Running Q-Chem job 1 of 1 
Check license passed

                  Welcome to Q-Chem
     A Quantum Leap Into The Future Of Chemistry


 Q-Chem 5.1, Q-Chem, Inc., Pleasanton, CA (2018)

 Yihan Shao,  Zhengting Gan,  E. Epifanovsky,  A. T. B. Gilbert,  M. Wormit,  
 J. Kussmann,  A. W. Lange,  A. Behn,  Jia Deng,  Xintian Feng,  D. Ghosh,  
 M. Goldey,  P. R. Horn,  L. D. Jacobson,  I. Kaliman,  T. Kus,  A. Land  ,  
 Jie Liu,  E. I. Proynov,  R. M. Richard,  R. P. Steele,  E. J. Sundstrom,  
 H. L. Woodcock III,  P. M. Zimmerman,  D. Zuev,  B. Albrecht,  E. Alguire,  
 S. A. Baeppler,  D. Barton,  Z. Benda,  Y. A. Bernard,  E. J. Berquist,  
 K. B. Bravaya,  H. Burton,  D. Casanova,  Chun-Min Chang,  Yunqing Chen,  
 A. Chien,  K. D. Closser,  M. P. Coons,  S. Coriani,  S. Dasgupta,  
 A. L. Dempwolff,  M. Diedenhofen,  Hainam Do,  R. G. Edgar,  Po-Tung Fang,  
 S. Faraji,  S. Fatehi,  Qingguo Feng,  K. D. Fenk,  J. Fosso-Tande,  
 J. Gayvert,  Qinghui Ge,  A. Ghysels,  G. Gidofalvi,  J. Gomes,  
 J. Gonthier,  A. Gunina,  D. Hait,  M. W. D. Hanson-Heine,  
 P. H. P. Harbach,  A. W. H  ser,  J. E. Herr,  E. G. Hohenstein,  
 Z. C. Holden,  Kerwin Hui,  B. C. Huynh,  T.-C. Jag  ,  Hyunjun Ji,  
 B. Kaduk,  K. Khistyaev,  Jaehoon Kim,  P. Klunzinger,  K. Koh,  
 D. Kosenkov,  L. Koulias,  T. Kowalczyk,  C. M. Kr  ter,  A. Kunitsa,  
 Ka Un Lao,  A. L  rent,  K. V. Lawler,  Joonho Lee,  D. Lefrancois,  
 S. Lehtola,  D. S. Levine,  Yi-Pei Li,  You-Sheng Lin,  Fenglai Liu,  
 E. Livshits,  A. Luenser,  P. Manohar,  E. Mansoor,  S. F. Manzer,  
 Shan-Ping Mao,  Yuezhi Mao,  N. Mardirossian,  A. V. Marenich,  
 T. Markovich,  L. A. Martinez-Martinez,  S. A. M  rer,  N. J. Mayhall,  
 S. C. McKenzie,  J.-M. Mewes,  A. F. Morrison,  J. W. Mullinax,  K. Nanda,  
 T. S. Nguyen-Beck,  R. Olivares-Amaya,  J. A. Parkhill,  T. M. Perrine,  
 F. Plasser,  P. Pokhilko,  S. Prager,  A. Prociuk,  E. Ramos,  D. R. Rehn,  
 F. Rob,  M. Schneider,  N. Sergueev,  S. M. Sharada,  S. Sharma,  
 D. W. Small,  T. St  ch,  T. Stein,  Yu-Chuan Su,  A. J. W. Thom,  
 A. Tkatchenko,  T. Tsuchimochi,  N. M. Tubman,  L. Vogt,  M. L. Vidal,  
 O. Vydrov,  M. A. Watson,  J. Wenzel,  M. de Wergifosse,  T. A. Wesolowski,  
 A. White,  J. Witte,  A. Yamada,  Jun Yang,  K. Yao,  S. Yeganeh,  
 S. R. Yost,  Zhi-Qiang You,  A. Zech,  Igor Ying Zhang,  Xing Zhang,  
 Yan Zhao,  Ying Zhu,  B. R. Brooks,  G. K. L. Chan,  C. J. Cramer,  
 M. S. Gordon,  W. J. Hehre,  A. Klamt,  M. W. Schmidt,  C. D. Sherrill,  
 D. G. Truhlar,  A. Aspuru-Guzik,  R. Baer,  A. T. Bell,  N. A. Besley,  
 Jeng-Da Chai,  A. E. DePrince, III,  R. A. DiStasio Jr.,  A. Dreuw,  
 B. D. Dunietz,  T. R. Furlani,  Chao-Ping Hsu,  Yousung Jung,  Jing Kong,  
 D. S. Lambrecht,  WanZhen Liang,  C. Ochsenfeld,  V. A. Rassolov,  
 L. V. Slipchenko,  J. E. Subotnik,  T. Van Voorhis,  J. M. Herbert,  
 A. I. Krylov,  P. M. W. Gill,  M. Head-Gordon

 Contributors to earlier versions of Q-Chem not listed above: 
 R. D. Adamson,  B. Austin,  J. Baker,  G. J. O. Beran,  K. Brandhorst,  
 S. T. Brown,  E. F. C. Byrd,  A. K. Chakraborty,  C.-L. Cheng,  
 Siu Hung Chien,  D. M. Chipman,  D. L. Crittenden,  H. Dachsel,  
 R. J. Doerksen,  A. D. Dutoi,  L. Fusti-Molnar,  W. A. Goddard III,  
 A. Golubeva-Zadorozhnaya,  S. R. Gwaltney,  G. Hawkins,  A. Heyden,  
 S. Hirata,  G. Kedziora,  F. J. Keil,  C. Kelley,  Jihan Kim,  R. A. King,  
 R. Z. Khaliullin,  P. P. Korambath,  W. Kurlancheek,  A. M. Lee,  M. S. Lee,  
 S. V. Levchenko,  Ching Yeh Lin,  D. Liotard,  R. C. Lochan,  I. Lotan,  
 P. E. Maslen,  N. Nair,  D. P. O'Neill,  D. Neuh  ser,  E. Neuscamman,  
 C. M. Oana,  R. Olson,  B. Peters,  R. Peverati,  P. A. Pieniazek,  
 Y. M. Rhee,  J. Ritchie,  M. A. Rohrdanz,  E. Rosta,  N. J. Russ,  
 H. F. Schaefer III,  N. E. Schultz,  N. Shenvi,  A. C. Simmonett,  A. Sodt,  
 D. Stuck,  K. S. Thanthiriwatte,  V. Vanovschi,  Tao Wang,  A. Warshel,  
 C. F. Williams,  Q. Wu,  X. Xu,  W. Zhang

 Please cite Q-Chem as follows:
 Y. Shao et al., Mol. Phys. 113, 184-215 (2015)
 DOI: 10.1080/00268976.2014.952696

 Q-Chem 5.1.2 for Intel X86 EM64T Linux

 Parts of Q-Chem use Armadillo 8.300.2 (Tropical Shenanigans).
 http://arma.sourceforge.net/

 Q-Chem begins on Thu Jun  3 10:22:30 2021  

Host: 127

     Scratch files written to C:/Users/scaparas/AppData/Local/Temp/qchem10654//
 Dec318 |cygdrive|d|Jenkins|workspace|build_RNUM -1
Input Ideriv = 1
Curr. Ideriv = -1
Max.  Ideriv = 1

Checking the input file for inconsistencies... 	...done.

--------------------------------------------------------------
User input:
--------------------------------------------------------------

$molecule
0 1
C         2.1665374654   -0.6554056232    0.0000000000
C         2.1169746126    0.7536230414    0.0000000000
C         0.9078293763    1.4297941068    0.0000000000
C        -0.2602955279    0.6603427264    0.0000000000
N        -1.5823227859    1.0465645945    0.0000000000
H        -1.9138448994    1.9970952131    0.0000000000
C        -2.3831006726   -0.0753467300    0.0000000000
C        -1.6031102305   -1.1965127142    0.0000000000
C        -0.2354025284   -0.7544080528    0.0000000000
C         1.0061117308   -1.4110304737    0.0000000000
H         3.1323502333   -1.1522732729    0.0000000000
H         3.0445811710    1.3187694778    0.0000000000
H         0.8711978004    2.5159935936    0.0000000000
H        -3.4599415153    0.0224367365    0.0000000000
H        -1.9589772753   -2.2174458375    0.0000000000
H         1.0526344532   -2.4968312448    0.0000000000
$end

$rem
BASIS  =  6-31+G*
GUI  =  2
JOB_TYPE  =  Optimization
METHOD  =  wB97X
SCF_CONVERGENCE  =  8
THRESH = 12
CIS_N_ROOTS  = 6
CIS_SINGLETS = true
CIS_TRIPLETS = false
CIS_STATE_DERIV = 1
$end
--------------------------------------------------------------
 ----------------------------------------------------------------
             Standard Nuclear Orientation (Angstroms)
    I     Atom           X                Y                Z
 ----------------------------------------------------------------
    1      C       2.1545809193    -0.6917179572    -0.0000000000
    2      C       2.1305971189     0.7179781205     0.0000000000
    3      C       0.9339220871     1.4159812583     0.0000000000
    4      C      -0.2479743579     0.6678555924     0.0000000000
    5      N      -1.5627747859     1.0780058536     0.0000000000
    6      H      -1.8769921819     2.0343963579     0.0000000000
    7      C      -2.3837811130    -0.0291882824    -0.0000000000
    8      C      -1.6242659160    -1.1643248026    -0.0000000000
    9      C      -0.2487601923    -0.7471139518    -0.0000000000
   10      C       0.9806332983    -1.4261590938    -0.0000000000
   11      H       3.1112175340    -1.2060312385    -0.0000000000
   12      H       3.0683071256     1.2661973878     0.0000000000
   13      H       0.9170087673     2.5026666484     0.0000000000
   14      H      -3.4586700515     0.0881214642    -0.0000000000
   15      H      -1.9986021312    -2.1786315579    -0.0000000000
   16      H       1.0074433715    -2.5126253373    -0.0000000000
 ----------------------------------------------------------------
 Molecular Point Group                 Cs    NOp =  2
 Largest Abelian Subgroup              Cs    NOp =  2
 Nuclear Repulsion Energy =   400.7281381655 hartrees
 There are       31 alpha and       31 beta electrons
 Requested basis set is 6-31+G(d)
 There are 59 shells and 185 basis functions

 Total QAlloc Memory Limit   2000 MB
 Mega-Array Size       188 MB
 MEM_STATIC part       192 MB
 Smallest overlap matrix eigenvalue = 1.29E-06

 Scale SEOQF with 1.000000e-01/1.000000e-01/1.000000e-01

 Standard Electronic Orientation quadrupole field applied
 Nucleus-field energy     =     0.0000000117 hartrees
 Guess from superposition of atomic densities
 Warning:  Energy on first SCF cycle will be non-variational
 SAD guess density has 62.000000 electrons

 -----------------------------------------------------------------------
  General SCF calculation program by
  Eric Jon Sundstrom, P  l Horn, Yuezhi Mao, Dmitri Zuev, Alec White,
  David Stuck, Shaama M.S., Shane Yost, Joonho Lee, David Small,
  Daniel Levine, Susi Lehtola, Hugh Burton, Evgeny Epifanovsky
 -----------------------------------------------------------------------
 Exchange:     0.1577 Hartree-Fock + 1.0000 wB97X + LR-HF
 Correlation:  1.0000 wB97X
 Using SG-2 standard quadrature grid
 A restricted SCF calculation will be
 performed using DIIS
 SCF converges when DIIS error is below 1.0e-08
 ---------------------------------------
  Cycle       Energy         DIIS error
 ---------------------------------------
    1    -366.9332827568      5.50e-02  
    2    -363.6647234884      3.27e-03  
    3    -363.7026511599      2.23e-03  
    4    -363.7232945938      5.58e-04  
    5    -363.7245278952      2.64e-04  
    6    -363.7248227412      3.59e-05  
    7    -363.7248320172      1.78e-05  
    8    -363.7248346144      5.34e-06  
    9    -363.7248351427      1.62e-06  
   10    -363.7248352037      1.03e-06  
   11    -363.7248352178      3.25e-07  
   12    -363.7248352202      1.59e-07  
   13    -363.7248352205      4.62e-08  
   14    -363.7248352205      1.55e-08  
   15    -363.7248352205      7.86e-09  Convergence criterion met
 ---------------------------------------
 SCF time:   CPU 103.23s  wall 102.00s 
 SCF   energy in the final basis set =     -363.7248352205
 Total energy in the final basis set =     -363.7248352205
 A cutoff of  1.0D-12 yielded   1657 shell pairs
 There are     17105 function pairs

 Exchange:     0.1577 Hartree-Fock + 1.0000 wB97X + LR-HF
 Correlation:  1.0000 wB97X
 Using SG-2 standard quadrature grid
 Direct TDDFT/TDA calculation will be performed
 Singlet excitation energies requested
 CIS energy converged when residual is below 10e- 6
 ---------------------------------------------------
 Iter    Rts Conv    Rts Left    Ttl Dev     Max Dev
 ---------------------------------------------------
   1         0           6      0.004944    0.001714
   2         0           6      0.001613    0.000534
   3         0           6      0.001019    0.000364
   4         0           6      0.000641    0.000183
   5         0           6      0.000292    0.000080
   6         0           6      0.000129    0.000032
   7         0           6      0.000055    0.000013
   8         1           5      0.000023    0.000005
   9         1           5      0.000009    0.000002
  10         6           0      0.000004    0.000001    Roots Converged
 ---------------------------------------------------

 ---------------------------------------------------
         TDDFT/TDA Excitation Energies              
 ---------------------------------------------------

 Excited state   1: excitation energy (eV) =    5.2647
 Total energy for state  1:                  -363.53135955   
    Multiplicity: Singlet
    Trans. Mom.:  0.4181 X   0.3094 Y   0.0000 Z
    Strength   :     0.0348943850
    D( 30) --> V(  1) amplitude =  0.7950
    D( 31) --> V(  5) amplitude =  0.5348

 Excited state   2: excitation energy (eV) =    5.4557
 Total energy for state  2:                  -363.52434228   
    Multiplicity: Singlet
    Trans. Mom.: -0.7610 X   0.6788 Y   0.0000 Z
    Strength   :     0.1389996835
    D( 30) --> V(  5) amplitude = -0.3602
    D( 31) --> V(  1) amplitude =  0.9037

 Excited state   3: excitation energy (eV) =    6.0213
 Total energy for state  3:                  -363.50355662   
    Multiplicity: Singlet
    Trans. Mom.: -0.0000 X  -0.0000 Y  -0.1941 Z
    Strength   :     0.0055567393
    D( 31) --> V(  2) amplitude =  0.9204

 Excited state   4: excitation energy (eV) =    6.5040
 Total energy for state  4:                  -363.48581903   
    Multiplicity: Singlet
    Trans. Mom.:  0.0000 X   0.0000 Y   0.2040 Z
    Strength   :     0.0066286656
    D( 30) --> V(  2) amplitude =  0.8106
    D( 30) --> V(  9) amplitude = -0.2247
    D( 31) --> V(  3) amplitude =  0.3658

 Excited state   5: excitation energy (eV) =    6.6921
 Total energy for state  5:                  -363.47890643   
    Multiplicity: Singlet
    Trans. Mom.: -0.0000 X  -0.0000 Y  -0.0479 Z
    Strength   :     0.0003754096
    D( 30) --> V(  2) amplitude = -0.3289
    D( 31) --> V(  3) amplitude =  0.8286

 Excited state   6: excitation energy (eV) =    6.7033
 Total energy for state  6:                  -363.47849286   
    Multiplicity: Singlet
    Trans. Mom.: -0.0000 X  -0.0000 Y   0.1213 Z
    Strength   :     0.0024161270
    D( 31) --> V(  4) amplitude =  0.8464

 ---------------------------------------------------
 Calculating Relaxed Density
 ---------------------------------------------------
 Iter    Rts Conv    Rts Left    Ttl Dev     Max Dev
 ---------------------------------------------------
   1         0           6      0.001593    0.000331
   2         0           6      0.000545    0.000108
   3         0           6      0.000184    0.000035
   4         0           6      0.000041    0.000009
   5         1           5      0.000007    0.000002
   6         6           0      0.000000    0.000000    Roots Converged
 ---------------------------------------------------
  SETman timing summary (seconds)
  CPU time               708.84s
  System time            205.86s
  Wall time              359.71s

 --------------------------------------------------------------
             Orbital Energies (a.u.) and Symmetries
 --------------------------------------------------------------

 Alpha MOs, Restricted
 -- Occupied --                  
-14.462 -10.309 -10.306 -10.277 -10.272 -10.272 -10.271 -10.266
  1 A'    2 A'    3 A'    4 A'    5 A'    6 A'    7 A'    8 A'                 
-10.262  -1.117  -0.974  -0.915  -0.866  -0.847  -0.748  -0.716
  9 A'   10 A'   11 A'   12 A'   13 A'   14 A'   15 A'   16 A'                 
 -0.703  -0.658  -0.596  -0.585  -0.546  -0.541  -0.539  -0.519
 17 A'   18 A'   19 A'   20 A'   21 A'    1 A"   22 A'   23 A'                 
 -0.498  -0.458  -0.447  -0.437  -0.381  -0.312  -0.294
 24 A'   25 A'    2 A"   26 A'    3 A"    4 A"    5 A"                         
 -- Virtual --                   
  0.059   0.066   0.084   0.088   0.098   0.101   0.105   0.120
  6 A"   27 A'   28 A'   29 A'    7 A"   30 A'   31 A'    8 A"                 
  0.126   0.129   0.132   0.135   0.154   0.161   0.168   0.170
 32 A'   33 A'    9 A"   34 A'   10 A"   11 A"   35 A'   36 A'                 
  0.180   0.195   0.209   0.209   0.222   0.226   0.234   0.240
 37 A'   12 A"   13 A"   38 A'   39 A'   14 A"   40 A'   15 A"                 
  0.240   0.254   0.257   0.260   0.266   0.272   0.278   0.289
 41 A'   42 A'   43 A'   16 A"   44 A'   45 A'   46 A'   47 A'                 
  0.290   0.299   0.304   0.308   0.315   0.316   0.328   0.334
 17 A"   48 A'   49 A'   50 A'   18 A"   51 A'   52 A'   53 A'                 
  0.345   0.347   0.363   0.375   0.390   0.400   0.401   0.417
 54 A'   55 A'   56 A'   57 A'   58 A'   59 A'   60 A'   61 A'                 
  0.437   0.460   0.470   0.494   0.541   0.549   0.617   0.687
 62 A'   63 A'   64 A'   65 A'   66 A'   67 A'   68 A'   69 A'                 
  0.734   0.777   0.780   0.803   0.822   0.825   0.839   0.841
 70 A'   19 A"   71 A'   20 A"   72 A'   21 A"   73 A'   22 A"                 
  0.850   0.857   0.865   0.882   0.897   0.908   0.924   0.959
 74 A'   23 A"   75 A'   24 A"   25 A"   76 A'   77 A'   26 A"                 
  1.002   1.011   1.022   1.044   1.051   1.060   1.070   1.092
 78 A'   79 A'   80 A'   81 A'   82 A'   83 A'   27 A"   84 A'                 
  1.112   1.138   1.155   1.174   1.201   1.221   1.227   1.279
 85 A'   86 A'   87 A'   88 A'   89 A'   90 A'   91 A'   92 A'                 
  1.288   1.313   1.332   1.342   1.363   1.428   1.429   1.449
 93 A'   94 A'   95 A'   28 A"   96 A'   97 A'   29 A"   30 A"                 
  1.476   1.524   1.524   1.559   1.570   1.575   1.606   1.612
 98 A'   31 A"   99 A'  100 A'   32 A"   33 A"   34 A"   35 A"                 
  1.650   1.698   1.759   1.898   1.954   1.993   2.001   2.031
101 A'  102 A'  103 A'  104 A'  105 A'  106 A'   36 A"  107 A'                 
  2.049   2.103   2.105   2.116   2.176   2.210   2.250   2.283
108 A'  109 A'  110 A'   37 A"  111 A'  112 A'  113 A'  114 A'                 
  2.287   2.306   2.360   2.370   2.376   2.395   2.422   2.493
 38 A"  115 A'   39 A"   40 A"   41 A"  116 A'  117 A'   42 A"                 
  2.518   2.555   2.658   2.671   2.747   2.768   2.779   2.811
 43 A"  118 A'  119 A'   44 A"  120 A'  121 A'   45 A"  122 A'                 
  2.850   2.921   2.957   2.970   3.064   3.090   3.223   3.356
123 A'  124 A'  125 A'  126 A'  127 A'  128 A'  129 A'  130 A'                 
  3.555   4.269   4.380   4.412   4.447   4.482   4.519   4.602
131 A'  132 A'  133 A'  134 A'  135 A'  136 A'  137 A'  138 A'                 
  4.642   4.909
139 A'  140 A'                                                                 

 Beta MOs, Restricted
 -- Occupied --                  
-14.462 -10.309 -10.306 -10.277 -10.272 -10.272 -10.271 -10.266
  1 A'    2 A'    3 A'    4 A'    5 A'    6 A'    7 A'    8 A'                 
-10.262  -1.117  -0.974  -0.915  -0.866  -0.847  -0.748  -0.716
  9 A'   10 A'   11 A'   12 A'   13 A'   14 A'   15 A'   16 A'                 
 -0.703  -0.658  -0.596  -0.585  -0.546  -0.541  -0.539  -0.519
 17 A'   18 A'   19 A'   20 A'   21 A'    1 A"   22 A'   23 A'                 
 -0.498  -0.458  -0.447  -0.437  -0.381  -0.312  -0.294
 24 A'   25 A'    2 A"   26 A'    3 A"    4 A"    5 A"                         
 -- Virtual --                   
  0.059   0.066   0.084   0.088   0.098   0.101   0.105   0.120
  6 A"   27 A'   28 A'   29 A'    7 A"   30 A'   31 A'    8 A"                 
  0.126   0.129   0.132   0.135   0.154   0.161   0.168   0.170
 32 A'   33 A'    9 A"   34 A'   10 A"   11 A"   35 A'   36 A'                 
  0.180   0.195   0.209   0.209   0.222   0.226   0.234   0.240
 37 A'   12 A"   13 A"   38 A'   39 A'   14 A"   40 A'   15 A"                 
  0.240   0.254   0.257   0.260   0.266   0.272   0.278   0.289
 41 A'   42 A'   43 A'   16 A"   44 A'   45 A'   46 A'   47 A'                 
  0.290   0.299   0.304   0.308   0.315   0.316   0.328   0.334
 17 A"   48 A'   49 A'   50 A'   18 A"   51 A'   52 A'   53 A'                 
  0.345   0.347   0.363   0.375   0.390   0.400   0.401   0.417
 54 A'   55 A'   56 A'   57 A'   58 A'   59 A'   60 A'   61 A'                 
  0.437   0.460   0.470   0.494   0.541   0.549   0.617   0.687
 62 A'   63 A'   64 A'   65 A'   66 A'   67 A'   68 A'   69 A'                 
  0.734   0.777   0.780   0.803   0.822   0.825   0.839   0.841
 70 A'   19 A"   71 A'   20 A"   72 A'   21 A"   73 A'   22 A"                 
  0.850   0.857   0.865   0.882   0.897   0.908   0.924   0.959
 74 A'   23 A"   75 A'   24 A"   25 A"   76 A'   77 A'   26 A"                 
  1.002   1.011   1.022   1.044   1.051   1.060   1.070   1.092
 78 A'   79 A'   80 A'   81 A'   82 A'   83 A'   27 A"   84 A'                 
  1.112   1.138   1.155   1.174   1.201   1.221   1.227   1.279
 85 A'   86 A'   87 A'   88 A'   89 A'   90 A'   91 A'   92 A'                 
  1.288   1.313   1.332   1.342   1.363   1.428   1.429   1.449
 93 A'   94 A'   95 A'   28 A"   96 A'   97 A'   29 A"   30 A"                 
  1.476   1.524   1.524   1.559   1.570   1.575   1.606   1.612
 98 A'   31 A"   99 A'  100 A'   32 A"   33 A"   34 A"   35 A"                 
  1.650   1.698   1.759   1.898   1.954   1.993   2.001   2.031
101 A'  102 A'  103 A'  104 A'  105 A'  106 A'   36 A"  107 A'                 
  2.049   2.103   2.105   2.116   2.176   2.210   2.250   2.283
108 A'  109 A'  110 A'   37 A"  111 A'  112 A'  113 A'  114 A'                 
  2.287   2.306   2.360   2.370   2.376   2.395   2.422   2.493
 38 A"  115 A'   39 A"   40 A"   41 A"  116 A'  117 A'   42 A"                 
  2.518   2.555   2.658   2.671   2.747   2.768   2.779   2.811
 43 A"  118 A'  119 A'   44 A"  120 A'  121 A'   45 A"  122 A'                 
  2.850   2.921   2.957   2.970   3.064   3.090   3.223   3.356
123 A'  124 A'  125 A'  126 A'  127 A'  128 A'  129 A'  130 A'                 
  3.555   4.269   4.380   4.412   4.447   4.482   4.519   4.602
131 A'  132 A'  133 A'  134 A'  135 A'  136 A'  137 A'  138 A'                 
  4.642   4.909
139 A'  140 A'                                                                 
 --------------------------------------------------------------

          Ground-State Mulliken Net Atomic Charges

     Atom                 Charge (a.u.)
  ----------------------------------------
      1 C                    -0.048337
      2 C                    -0.441692
      3 C                    -0.083633
      4 C                    -0.707874
      5 N                    -0.564390
      6 H                     0.430168
      7 C                    -0.246265
      8 C                     0.094527
      9 C                     0.873317
     10 C                    -0.536085
     11 H                     0.196175
     12 H                     0.197313
     13 H                     0.202035
     14 H                     0.215347
     15 H                     0.214682
     16 H                     0.204712
  ----------------------------------------
  Sum of atomic charges =     0.000000

 -----------------------------------------------------------------
                    Cartesian Multipole Moments
 -----------------------------------------------------------------
    Charge (ESU x 10^10)
                 0.0000
    Dipole Moment (Debye)
         X      -1.4732      Y       1.5749      Z      -0.0000
       Tot       2.1565
    Quadrupole Moments (Debye-Ang)
        XX     -44.9128     XY      -3.1876     YY     -44.1017
        XZ       0.0000     YZ       0.0000     ZZ     -58.7842
    Octopole Moments (Debye-Ang^2)
       XXX     -14.7940    XXY       8.3882    XYY      -7.8666
       YYY      10.5059    XXZ      -0.0000    XYZ      -0.0000
       YYZ       0.0000    XZZ      -2.0103    YZZ       2.0249
       ZZZ      -0.0000
    Hexadecapole Moments (Debye-Ang^3)
      XXXX    -806.5448   XXXY     -21.7902   XXYY    -194.6658
      XYYY     -19.6933   YYYY    -365.1744   XXXZ       0.0000
      XXYZ       0.0000   XYYZ       0.0000   YYYZ      -0.0000
      XXZZ    -188.2887   XYZZ      -3.9099   YYZZ     -93.1607
      XZZZ       0.0000   YZZZ      -0.0000   ZZZZ     -71.7769
 -----------------------------------------------------------------
 Calculating analytic gradient of the CIS energy
 CIS relaxed dipole moment
            1
    1  -0.7511156
    2   0.5080235
    3  -0.0000000
	Magnitude:	 0.907   	 2.305 Debye
 CIS 1 State Energy is -363.5313595484
 Gradient of the state energy (including CIS Excitation Energy)
            1           2           3           4           5           6
    1  -0.0231610  -0.0254347   0.0130208   0.0135280  -0.0207931  -0.0002003
    2  -0.0049821  -0.0024680  -0.0254397  -0.0288485  -0.0050384  -0.0010443
    3   0.0000000   0.0000000  -0.0000000  -0.0000000   0.0000000  -0.0000000
            7           8           9          10          11          12
    1   0.0190438  -0.0064588   0.0086976   0.0212389  -0.0003293  -0.0001957
    2   0.0084414   0.0016839   0.0296665   0.0268550   0.0000283   0.0003468
    3  -0.0000000   0.0000000   0.0000000  -0.0000000  -0.0000000  -0.0000000
           13          14          15          16
    1   0.0002596   0.0005130   0.0000008   0.0002705
    2   0.0000765   0.0000827   0.0007673  -0.0001274
    3  -0.0000000  -0.0000000  -0.0000000  -0.0000000
 Gradient time:  CPU 76.03 s  wall 53.15 s
 Geometry Optimization Parameters
   NAtoms,    NIC,     NZ,  NCons,   NDum,   NFix, NCnnct, MaxDiis
       16     116       0       0       0       0       0       0


** GEOMETRY OPTIMIZATION IN DELOCALIZED INTERNAL COORDINATES **
   Searching for a Minimum

   Optimization Cycle:   1

                       Coordinates (Angstroms)
     ATOM                X               Y               Z
      1  C         2.1545809193   -0.6917179572    0.0000000000
      2  C         2.1305971189    0.7179781205    0.0000000000
      3  C         0.9339220871    1.4159812583    0.0000000000
      4  C        -0.2479743579    0.6678555924    0.0000000000
      5  N        -1.5627747859    1.0780058536    0.0000000000
      6  H        -1.8769921819    2.0343963579    0.0000000000
      7  C        -2.3837811130   -0.0291882824    0.0000000000
      8  C        -1.6242659160   -1.1643248026    0.0000000000
      9  C        -0.2487601923   -0.7471139518    0.0000000000
     10  C         0.9806332983   -1.4261590938    0.0000000000
     11  H         3.1112175340   -1.2060312385    0.0000000000
     12  H         3.0683071256    1.2661973878    0.0000000000
     13  H         0.9170087673    2.5026666484    0.0000000000
     14  H        -3.4586700515    0.0881214642    0.0000000000
     15  H        -1.9986021312   -2.1786315579    0.0000000000
     16  H         1.0074433715   -2.5126253373    0.0000000000
   Point Group: cs    Number of degrees of freedom:    29


   Energy is   -363.531359548


 Attempting to Generate Delocalized Internal Coordinates

 29 Hessian modes will be used to form the next step
  Hessian Eigenvalues:
     0.160000    0.160000    0.160000    0.160000    0.160000    0.160000
     0.160000    0.220000    0.221874    0.226615    0.240154    0.246535
     0.351831    0.351854    0.352547    0.352641    0.358411    0.358524
     0.370243    0.381736    0.421745    0.429383    0.450758    0.465320
     0.465358    0.471677    0.475377    0.478120    0.507735

 Minimum Search - Taking Simple RFO Step
 Searching for Lamda that Minimizes Along All modes
 Value Taken    Lamda =  -0.00897843
 Step Taken.  Stepsize is  0.142845

                             Maximum     Tolerance    Cnvgd?
         Gradient           0.036605      0.000300      NO
         Displacement       0.085073      0.001200      NO
         Energy change     *********      0.000001      NO


 New Cartesian Coordinates Obtained by Inverse Iteration

 Displacement from previous Coordinates is:  0.190232
 ----------------------------------------------------------------
             Standard Nuclear Orientation (Angstroms)
    I     Atom           X                Y                Z
 ----------------------------------------------------------------
    1      C       2.1683264259    -0.6936214020     0.0000000000
    2      C       2.1565042195     0.7362233300     0.0000000000
    3      C       0.9373053435     1.4541795323     0.0000000000
    4      C      -0.2495636778     0.6848638732     0.0000000000
    5      N      -1.5595995418     1.0794075262     0.0000000000
    6      H      -1.8719135447     2.0375142915     0.0000000000
    7      C      -2.4018728522    -0.0361657002     0.0000000000
    8      C      -1.6370554731    -1.1757225130     0.0000000000
    9      C      -0.2600632391    -0.7692971339     0.0000000000
   10      C       0.9713667957    -1.4597944852     0.0000000000
   11      H       3.1261591008    -1.2066467344     0.0000000000
   12      H       3.0990473985     1.2760711213     0.0000000000
   13      H       0.9151010793     2.5406615256     0.0000000000
   14      H      -3.4771453106     0.0842472132     0.0000000000
   15      H      -2.0132292980    -2.1904525204     0.0000000000
   16      H       0.9985220666    -2.5460574627     0.0000000000
 ----------------------------------------------------------------
 Molecular Point Group                 Cs    NOp =  2
 Largest Abelian Subgroup              Cs    NOp =  2
 Nuclear Repulsion Energy =   396.7880310200 hartrees
 There are       31 alpha and       31 beta electrons
 Applying Cartesian multipole field
    Component          Value
    ---------          -----
     (2,0,0)        1.00000E-11
     (0,2,0)        2.00000E-11
     (0,0,2)       -3.00000E-11
 Nucleus-field energy     =     0.0000000120 hartrees
 Requested basis set is 6-31+G(d)
 There are 59 shells and 185 basis functions
 Smallest overlap matrix eigenvalue = 1.48E-06
 Guess MOs from SCF MO coefficient file

 -----------------------------------------------------------------------
  General SCF calculation program by
  Eric Jon Sundstrom, P  l Horn, Yuezhi Mao, Dmitri Zuev, Alec White,
  David Stuck, Shaama M.S., Shane Yost, Joonho Lee, David Small,
  Daniel Levine, Susi Lehtola, Hugh Burton, Evgeny Epifanovsky
 -----------------------------------------------------------------------
 Exchange:     0.1577 Hartree-Fock + 1.0000 wB97X + LR-HF
 Correlation:  1.0000 wB97X
 Using SG-2 standard quadrature grid
 A restricted SCF calculation will be
 performed using DIIS
 SCF converges when DIIS error is below 1.0e-08
 ---------------------------------------
  Cycle       Energy         DIIS error
 ---------------------------------------
    1    -363.7172588320      9.49e-04  
    2    -363.7201966973      1.75e-04  
    3    -363.7203420337      1.06e-04  
    4    -363.7203949342      2.67e-05  
    5    -363.7204012489      1.34e-05  
    6    -363.7204032252      4.73e-06  
    7    -363.7204037635      2.95e-06  
    8    -363.7204039111      7.50e-07  
    9    -363.7204039242      3.19e-07  
   10    -363.7204039260      1.74e-07  
   11    -363.7204039263      4.26e-08  
   12    -363.7204039264      2.19e-08  
   13    -363.7204039264      5.33e-09  Convergence criterion met
 ---------------------------------------
 SCF time:   CPU 104.59s  wall 104.00s 
 SCF   energy in the final basis set =     -363.7204039264
 Total energy in the final basis set =     -363.7204039264
 A cutoff of  1.0D-12 yielded   1656 shell pairs
 There are     17099 function pairs

 Exchange:     0.1577 Hartree-Fock + 1.0000 wB97X + LR-HF
 Correlation:  1.0000 wB97X
 Using SG-2 standard quadrature grid
 Direct TDDFT/TDA calculation will be performed
 Singlet excitation energies requested
 CIS energy converged when residual is below 10e- 6
 ---------------------------------------------------
 Iter    Rts Conv    Rts Left    Ttl Dev     Max Dev
 ---------------------------------------------------
   1         0           6      0.004997    0.001698
   2         0           6      0.001614    0.000536
   3         0           6      0.001021    0.000349
   4         0           6      0.000635    0.000169
   5         0           6      0.000295    0.000068
   6         0           6      0.000144    0.000032
   7         0           6      0.000060    0.000014
   8         1           5      0.000030    0.000008
   9         1           5      0.000015    0.000005
  10         4           2      0.000007    0.000002
  11         5           1      0.000004    0.000001
  12         6           0      0.000003    0.000001    Roots Converged
 ---------------------------------------------------

 ---------------------------------------------------
         TDDFT/TDA Excitation Energies              
 ---------------------------------------------------

 Excited state   1: excitation energy (eV) =    5.0216
 Total energy for state  1:                  -363.53586420   
    Multiplicity: Singlet
    Trans. Mom.:  0.4855 X   0.3810 Y   0.0000 Z
    Strength   :     0.0468507217
    D( 30) --> V(  1) amplitude =  0.8018
    D( 31) --> V(  5) amplitude =  0.5107

 Excited state   2: excitation energy (eV) =    5.3171
 Total energy for state  2:                  -363.52500573   
    Multiplicity: Singlet
    Trans. Mom.:  0.7058 X  -0.6769 Y  -0.0000 Z
    Strength   :     0.1245968526
    D( 30) --> V(  5) amplitude = -0.3842
    D( 31) --> V(  1) amplitude =  0.8809

 Excited state   3: excitation energy (eV) =    6.0362
 Total energy for state  3:                  -363.49857902   
    Multiplicity: Singlet
    Trans. Mom.:  0.0000 X  -0.0000 Y  -0.1858 Z
    Strength   :     0.0051045428
    D( 31) --> V(  2) amplitude =  0.9143

 Excited state   4: excitation energy (eV) =    6.3823
 Total energy for state  4:                  -363.48585975   
    Multiplicity: Singlet
    Trans. Mom.: -0.0000 X   0.0000 Y  -0.1989 Z
    Strength   :     0.0061876750
    D( 30) --> V(  2) amplitude =  0.8568
    D( 30) --> V(  9) amplitude = -0.2366
    D( 31) --> V(  3) amplitude = -0.2653

 Excited state   5: excitation energy (eV) =    6.6850
 Total energy for state  5:                  -363.47473296   
    Multiplicity: Singlet
    Trans. Mom.: -0.0000 X  -0.0000 Y   0.0510 Z
    Strength   :     0.0004261867
    D( 31) --> V(  3) amplitude = -0.4338
    D( 31) --> V(  4) amplitude =  0.7358
    D( 31) --> V( 12) amplitude =  0.2588

 Excited state   6: excitation energy (eV) =    6.6905
 Total energy for state  6:                  -363.47453290   
    Multiplicity: Singlet
    Trans. Mom.: -0.0000 X  -0.0000 Y   0.0365 Z
    Strength   :     0.0002180959
    D( 30) --> V(  2) amplitude =  0.2320
    D( 30) --> V(  3) amplitude =  0.2148
    D( 31) --> V(  3) amplitude =  0.7559
    D( 31) --> V(  4) amplitude =  0.4333

 ---------------------------------------------------
 Calculating Relaxed Density
 ---------------------------------------------------
 Iter    Rts Conv    Rts Left    Ttl Dev     Max Dev
 ---------------------------------------------------
   1         0           6      0.001712    0.000362
   2         0           6      0.000658    0.000139
   3         0           6      0.000169    0.000036
   4         0           6      0.000041    0.000009
   5         1           5      0.000007    0.000002
   6         6           0      0.000000    0.000000    Roots Converged
 ---------------------------------------------------
  SETman timing summary (seconds)
  CPU time               709.83s
  System time            200.58s
  Wall time              386.96s

 --------------------------------------------------------------
             Orbital Energies (a.u.) and Symmetries
 --------------------------------------------------------------

 Alpha MOs, Restricted
 -- Occupied --                  
-14.464 -10.313 -10.312 -10.283 -10.279 -10.279 -10.277 -10.273
  1 A'    2 A'    3 A'    4 A'    5 A'    6 A'    7 A'    8 A'                 
-10.266  -1.113  -0.963  -0.915  -0.859  -0.846  -0.747  -0.715
  9 A'   10 A'   11 A'   12 A'   13 A'   14 A'   15 A'   16 A'                 
 -0.700  -0.654  -0.600  -0.581  -0.544  -0.540  -0.538  -0.517
 17 A'   18 A'   19 A'   20 A'   21 A'   22 A'    1 A"   23 A'                 
 -0.499  -0.457  -0.439  -0.439  -0.383  -0.306  -0.294
 24 A'   25 A'    2 A"   26 A'    3 A"    4 A"    5 A"                         
 -- Virtual --                   
  0.053   0.066   0.084   0.088   0.093   0.101   0.104   0.119
  6 A"   27 A'   28 A'   29 A'    7 A"   30 A'   31 A'    8 A"                 
  0.126   0.129   0.131   0.135   0.154   0.160   0.167   0.169
 32 A'   33 A'    9 A"   34 A'   10 A"   11 A"   35 A'   36 A'                 
  0.181   0.195   0.207   0.208   0.221   0.226   0.234   0.238
 37 A'   12 A"   13 A"   38 A'   39 A'   14 A"   40 A'   15 A"                 
  0.239   0.255   0.256   0.259   0.266   0.272   0.273   0.285
 41 A'   42 A'   43 A'   16 A"   44 A'   45 A'   46 A'   17 A"                 
  0.288   0.298   0.301   0.308   0.309   0.314   0.328   0.333
 47 A'   48 A'   49 A'   50 A'   18 A"   51 A'   52 A'   53 A'                 
  0.340   0.345   0.363   0.371   0.383   0.393   0.397   0.411
 54 A'   55 A'   56 A'   57 A'   58 A'   59 A'   60 A'   61 A'                 
  0.428   0.454   0.463   0.486   0.528   0.545   0.610   0.668
 62 A'   63 A'   64 A'   65 A'   66 A'   67 A'   68 A'   69 A'                 
  0.704   0.778   0.778   0.803   0.813   0.825   0.837   0.841
 70 A'   71 A'   19 A"   20 A"   72 A'   21 A"   73 A'   74 A'                 
  0.842   0.857   0.859   0.881   0.896   0.898   0.921   0.956
 22 A"   23 A"   75 A'   24 A"   25 A"   76 A'   77 A'   26 A"                 
  0.999   1.009   1.020   1.045   1.053   1.061   1.069   1.094
 78 A'   79 A'   80 A'   81 A'   82 A'   83 A'   27 A"   84 A'                 
  1.102   1.137   1.155   1.173   1.197   1.217   1.221   1.274
 85 A'   86 A'   87 A'   88 A'   89 A'   90 A'   91 A'   92 A'                 
  1.283   1.308   1.329   1.343   1.351   1.420   1.429   1.449
 93 A'   94 A'   95 A'   28 A"   96 A'   97 A'   29 A"   30 A"                 
  1.469   1.510   1.519   1.544   1.567   1.579   1.601   1.604
 98 A'   99 A'   31 A"  100 A'   32 A"   33 A"   34 A"   35 A"                 
  1.640   1.690   1.751   1.894   1.932   1.984   1.995   2.013
101 A'  102 A'  103 A'  104 A'  105 A'  106 A'   36 A"  107 A'                 
  2.030   2.093   2.099   2.111   2.152   2.165   2.227   2.242
108 A'  109 A'  110 A'   37 A"  111 A'  112 A'  113 A'  114 A'                 
  2.260   2.294   2.336   2.346   2.364   2.371   2.404   2.472
 38 A"  115 A'   39 A"   40 A"   41 A"  116 A'  117 A'   42 A"                 
  2.512   2.546   2.640   2.653   2.730   2.735   2.754   2.784
 43 A"  118 A'  119 A'   44 A"  120 A'   45 A"  121 A'  122 A'                 
  2.822   2.896   2.935   2.942   3.062   3.071   3.202   3.329
123 A'  124 A'  125 A'  126 A'  127 A'  128 A'  129 A'  130 A'                 
  3.487   4.259   4.357   4.409   4.440   4.477   4.514   4.594
131 A'  132 A'  133 A'  134 A'  135 A'  136 A'  137 A'  138 A'                 
  4.636   4.884
139 A'  140 A'                                                                 

 Beta MOs, Restricted
 -- Occupied --                  
-14.464 -10.313 -10.312 -10.283 -10.279 -10.279 -10.277 -10.273
  1 A'    2 A'    3 A'    4 A'    5 A'    6 A'    7 A'    8 A'                 
-10.266  -1.113  -0.963  -0.915  -0.859  -0.846  -0.747  -0.715
  9 A'   10 A'   11 A'   12 A'   13 A'   14 A'   15 A'   16 A'                 
 -0.700  -0.654  -0.600  -0.581  -0.544  -0.540  -0.538  -0.517
 17 A'   18 A'   19 A'   20 A'   21 A'   22 A'    1 A"   23 A'                 
 -0.499  -0.457  -0.439  -0.439  -0.383  -0.306  -0.294
 24 A'   25 A'    2 A"   26 A'    3 A"    4 A"    5 A"                         
 -- Virtual --                   
  0.053   0.066   0.084   0.088   0.093   0.101   0.104   0.119
  6 A"   27 A'   28 A'   29 A'    7 A"   30 A'   31 A'    8 A"                 
  0.126   0.129   0.131   0.135   0.154   0.160   0.167   0.169
 32 A'   33 A'    9 A"   34 A'   10 A"   11 A"   35 A'   36 A'                 
  0.181   0.195   0.207   0.208   0.221   0.226   0.234   0.238
 37 A'   12 A"   13 A"   38 A'   39 A'   14 A"   40 A'   15 A"                 
  0.239   0.255   0.256   0.259   0.266   0.272   0.273   0.285
 41 A'   42 A'   43 A'   16 A"   44 A'   45 A'   46 A'   17 A"                 
  0.288   0.298   0.301   0.308   0.309   0.314   0.328   0.333
 47 A'   48 A'   49 A'   50 A'   18 A"   51 A'   52 A'   53 A'                 
  0.340   0.345   0.363   0.371   0.383   0.393   0.397   0.411
 54 A'   55 A'   56 A'   57 A'   58 A'   59 A'   60 A'   61 A'                 
  0.428   0.454   0.463   0.486   0.528   0.545   0.610   0.668
 62 A'   63 A'   64 A'   65 A'   66 A'   67 A'   68 A'   69 A'                 
  0.704   0.778   0.778   0.803   0.813   0.825   0.837   0.841
 70 A'   71 A'   19 A"   20 A"   72 A'   21 A"   73 A'   74 A'                 
  0.842   0.857   0.859   0.881   0.896   0.898   0.921   0.956
 22 A"   23 A"   75 A'   24 A"   25 A"   76 A'   77 A'   26 A"                 
  0.999   1.009   1.020   1.045   1.053   1.061   1.069   1.094
 78 A'   79 A'   80 A'   81 A'   82 A'   83 A'   27 A"   84 A'                 
  1.102   1.137   1.155   1.173   1.197   1.217   1.221   1.274
 85 A'   86 A'   87 A'   88 A'   89 A'   90 A'   91 A'   92 A'                 
  1.283   1.308   1.329   1.343   1.351   1.420   1.429   1.449
 93 A'   94 A'   95 A'   28 A"   96 A'   97 A'   29 A"   30 A"                 
  1.469   1.510   1.519   1.544   1.567   1.579   1.601   1.604
 98 A'   99 A'   31 A"  100 A'   32 A"   33 A"   34 A"   35 A"                 
  1.640   1.690   1.751   1.894   1.932   1.984   1.995   2.013
101 A'  102 A'  103 A'  104 A'  105 A'  106 A'   36 A"  107 A'                 
  2.030   2.093   2.099   2.111   2.152   2.165   2.227   2.242
108 A'  109 A'  110 A'   37 A"  111 A'  112 A'  113 A'  114 A'                 
  2.260   2.294   2.336   2.346   2.364   2.371   2.404   2.472
 38 A"  115 A'   39 A"   40 A"   41 A"  116 A'  117 A'   42 A"                 
  2.512   2.546   2.640   2.653   2.730   2.735   2.754   2.784
 43 A"  118 A'  119 A'   44 A"  120 A'   45 A"  121 A'  122 A'                 
  2.822   2.896   2.935   2.942   3.062   3.071   3.202   3.329
123 A'  124 A'  125 A'  126 A'  127 A'  128 A'  129 A'  130 A'                 
  3.487   4.259   4.357   4.409   4.440   4.477   4.514   4.594
131 A'  132 A'  133 A'  134 A'  135 A'  136 A'  137 A'  138 A'                 
  4.636   4.884
139 A'  140 A'                                                                 
 --------------------------------------------------------------

          Ground-State Mulliken Net Atomic Charges

     Atom                 Charge (a.u.)
  ----------------------------------------
      1 C                    -0.075573
      2 C                    -0.399280
      3 C                    -0.134434
      4 C                    -0.643666
      5 N                    -0.557742
      6 H                     0.430413
      7 C                    -0.243932
      8 C                     0.101062
      9 C                     0.803106
     10 C                    -0.519505
     11 H                     0.194850
     12 H                     0.199352
     13 H                     0.204093
     14 H                     0.217600
     15 H                     0.216358
     16 H                     0.207297
  ----------------------------------------
  Sum of atomic charges =    -0.000000

 -----------------------------------------------------------------
                    Cartesian Multipole Moments
 -----------------------------------------------------------------
    Charge (ESU x 10^10)
                -0.0000
    Dipole Moment (Debye)
         X      -1.5841      Y       1.5312      Z      -0.0000
       Tot       2.2032
    Quadrupole Moments (Debye-Ang)
        XX     -44.8617     XY      -2.9853     YY     -43.8940
        XZ      -0.0000     YZ       0.0000     ZZ     -59.2320
    Octopole Moments (Debye-Ang^2)
       XXX     -15.5603    XXY       8.4351    XYY      -7.9107
       YYY      10.2112    XXZ      -0.0000    XYZ       0.0000
       YYZ      -0.0000    XZZ      -2.4456    YZZ       1.9941
       ZZZ      -0.0000
    Hexadecapole Moments (Debye-Ang^3)
      XXXX    -814.3075   XXXY     -21.9487   XXYY    -198.2225
      XYYY     -21.2246   YYYY    -373.8395   XXXZ      -0.0000
      XXYZ       0.0000   XYYZ       0.0000   YYYZ       0.0000
      XXZZ    -191.7548   XYZZ      -4.6049   YYZZ     -95.9409
      XZZZ      -0.0000   YZZZ       0.0000   ZZZZ     -73.1139
 -----------------------------------------------------------------
 Calculating analytic gradient of the CIS energy
 CIS relaxed dipole moment
            1
    1  -0.7270169
    2   0.4883707
    3  -0.0000000
	Magnitude:	 0.876   	 2.226 Debye
 CIS 1 State Energy is -363.5358641989
 Gradient of the state energy (including CIS Excitation Energy)
            1           2           3           4           5           6
    1   0.0009534  -0.0001142   0.0013534   0.0039015  -0.0093282   0.0004047
    2  -0.0047830   0.0037642  -0.0005252  -0.0045304   0.0012488  -0.0003185
    3  -0.0000000   0.0000000  -0.0000000  -0.0000000   0.0000000   0.0000000
            7           8           9          10          11          12
    1   0.0050799  -0.0025177  -0.0007599   0.0023926   0.0000869   0.0002586
    2   0.0049450  -0.0053355   0.0048683   0.0006172   0.0001458   0.0005734
    3   0.0000000   0.0000000  -0.0000000   0.0000000  -0.0000000   0.0000000
           13          14          15          16
    1  -0.0000052  -0.0005710  -0.0001067  -0.0010281
    2   0.0005866  -0.0006662   0.0000948  -0.0006852
    3  -0.0000000  -0.0000000  -0.0000000   0.0000000
 Gradient time:  CPU 73.67 s  wall 52.86 s
 Geometry Optimization Parameters
   NAtoms,    NIC,     NZ,  NCons,   NDum,   NFix, NCnnct, MaxDiis
       16     116       0       0       0       0       0       0

 Cartesian Hessian Update
 Hessian Updated using BFGS Update


** GEOMETRY OPTIMIZATION IN DELOCALIZED INTERNAL COORDINATES **
   Searching for a Minimum

   Optimization Cycle:   2

                       Coordinates (Angstroms)
     ATOM                X               Y               Z
      1  C         2.1683264259   -0.6936214020    0.0000000000
      2  C         2.1565042195    0.7362233300    0.0000000000
      3  C         0.9373053435    1.4541795323    0.0000000000
      4  C        -0.2495636778    0.6848638732    0.0000000000
      5  N        -1.5595995418    1.0794075262    0.0000000000
      6  H        -1.8719135447    2.0375142915    0.0000000000
      7  C        -2.4018728522   -0.0361657002    0.0000000000
      8  C        -1.6370554731   -1.1757225130    0.0000000000
      9  C        -0.2600632391   -0.7692971339    0.0000000000
     10  C         0.9713667957   -1.4597944852    0.0000000000
     11  H         3.1261591008   -1.2066467344    0.0000000000
     12  H         3.0990473985    1.2760711213    0.0000000000
     13  H         0.9151010793    2.5406615256    0.0000000000
     14  H        -3.4771453106    0.0842472132    0.0000000000
     15  H        -2.0132292980   -2.1904525204    0.0000000000
     16  H         0.9985220666   -2.5460574627    0.0000000000
   Point Group: cs    Number of degrees of freedom:    29


   Energy is   -363.535864199

 Hessian Updated using BFGS Update

 24 Hessian modes will be used to form the next step
  Hessian Eigenvalues:
     0.159651    0.160181    0.211151    0.220325    0.226875    0.240862
     0.246147    0.351452    0.351841    0.352476    0.352643    0.358335
     0.358528    0.368735    0.376380    0.421548    0.432604    0.437903
     0.458660    0.465321    0.470953    0.472212    0.491059    0.548190

 Minimum Search - Taking Simple RFO Step
 Searching for Lamda that Minimizes Along All modes
 Value Taken    Lamda =  -0.00031654
 Step Taken.  Stepsize is  0.033387

                             Maximum     Tolerance    Cnvgd?
         Gradient           0.005061      0.000300      NO
         Displacement       0.016710      0.001200      NO
         Energy change     -0.004505      0.000001      NO


 New Cartesian Coordinates Obtained by Inverse Iteration

 Displacement from previous Coordinates is:  0.038034
 ----------------------------------------------------------------
             Standard Nuclear Orientation (Angstroms)
    I     Atom           X                Y                Z
 ----------------------------------------------------------------
    1      C       2.1634872274    -0.6900256120     0.0000000000
    2      C       2.1530818862     0.7354067986     0.0000000000
    3      C       0.9346722935     1.4559931457     0.0000000000
    4      C      -0.2491542679     0.6847007171     0.0000000000
    5      N      -1.5529660672     1.0760265356     0.0000000000
    6      H      -1.8644985513     2.0349521875     0.0000000000
    7      C      -2.4046424731    -0.0375854973     0.0000000000
    8      C      -1.6358579116    -1.1725370524     0.0000000000
    9      C      -0.2598273749    -0.7731681577     0.0000000000
   10      C       0.9695949817    -1.4625506751     0.0000000000
   11      H       3.1217660478    -1.2022244013     0.0000000000
   12      H       3.0970699997     1.2711317986     0.0000000000
   13      H       0.9121510967     2.5415568086     0.0000000000
   14      H      -3.4784898950     0.0888885341     0.0000000000
   15      H      -2.0112827695    -2.1876629845     0.0000000000
   16      H       1.0067852699    -2.5474916839     0.0000000000
 ----------------------------------------------------------------
 Molecular Point Group                 Cs    NOp =  2
 Largest Abelian Subgroup              Cs    NOp =  2
 Nuclear Repulsion Energy =   397.0976141101 hartrees
 There are       31 alpha and       31 beta electrons
 Applying Cartesian multipole field
    Component          Value
    ---------          -----
     (2,0,0)        1.00000E-11
     (0,2,0)        2.00000E-11
     (0,0,2)       -3.00000E-11
 Nucleus-field energy     =     0.0000000120 hartrees
 Requested basis set is 6-31+G(d)
 There are 59 shells and 185 basis functions
 Smallest overlap matrix eigenvalue = 1.46E-06
 Guess MOs from SCF MO coefficient file

 -----------------------------------------------------------------------
  General SCF calculation program by
  Eric Jon Sundstrom, P  l Horn, Yuezhi Mao, Dmitri Zuev, Alec White,
  David Stuck, Shaama M.S., Shane Yost, Joonho Lee, David Small,
  Daniel Levine, Susi Lehtola, Hugh Burton, Evgeny Epifanovsky
 -----------------------------------------------------------------------
 Exchange:     0.1577 Hartree-Fock + 1.0000 wB97X + LR-HF
 Correlation:  1.0000 wB97X
 Using SG-2 standard quadrature grid
 A restricted SCF calculation will be
 performed using DIIS
 SCF converges when DIIS error is below 1.0e-08
 ---------------------------------------
  Cycle       Energy         DIIS error
 ---------------------------------------
    1    -363.7198626115      1.71e-04  
    2    -363.7199880952      3.38e-05  
    3    -363.7199940082      2.78e-05  
    4    -363.7199972073      5.98e-06  
    5    -363.7199976290      2.37e-06  
    6    -363.7199977034      1.19e-06  
    7    -363.7199977318      4.66e-07  
    8    -363.7199977362      1.97e-07  
    9    -363.7199977367      7.80e-08  
   10    -363.7199977368      2.43e-08  
   11    -363.7199977368      1.21e-08  
   12    -363.7199977368      3.17e-09  Convergence criterion met
 ---------------------------------------
 SCF time:   CPU 81.44s  wall 81.00s 
 SCF   energy in the final basis set =     -363.7199977368
 Total energy in the final basis set =     -363.7199977368
 A cutoff of  1.0D-12 yielded   1656 shell pairs
 There are     17099 function pairs

 Exchange:     0.1577 Hartree-Fock + 1.0000 wB97X + LR-HF
 Correlation:  1.0000 wB97X
 Using SG-2 standard quadrature grid
 Direct TDDFT/TDA calculation will be performed
 Singlet excitation energies requested
 CIS energy converged when residual is below 10e- 6
 ---------------------------------------------------
 Iter    Rts Conv    Rts Left    Ttl Dev     Max Dev
 ---------------------------------------------------
   1         0           6      0.005005    0.001694
   2         0           6      0.001611    0.000529
   3         0           6      0.001019    0.000341
   4         0           6      0.000632    0.000169
   5         0           6      0.000296    0.000066
   6         0           6      0.000146    0.000037
   7         0           6      0.000060    0.000015
   8         1           5      0.000031    0.000009
   9         1           5      0.000015    0.000006
  10         4           2      0.000008    0.000003
  11         5           1      0.000004    0.000001
  12         6           0      0.000003    0.000001    Roots Converged
 ---------------------------------------------------

 ---------------------------------------------------
         TDDFT/TDA Excitation Energies              
 ---------------------------------------------------

 Excited state   1: excitation energy (eV) =    5.0051
 Total energy for state  1:                  -363.53606540   
    Multiplicity: Singlet
    Trans. Mom.: -0.5023 X  -0.4166 Y   0.0000 Z
    Strength   :     0.0522208157
    D( 30) --> V(  1) amplitude =  0.7974
    D( 31) --> V(  5) amplitude =  0.4943

 Excited state   2: excitation energy (eV) =    5.3131
 Total energy for state  2:                  -363.52474410   
    Multiplicity: Singlet
    Trans. Mom.: -0.7047 X   0.6774 Y  -0.0000 Z
    Strength   :     0.1243775270
    D( 30) --> V(  5) amplitude = -0.3773
    D( 31) --> V(  1) amplitude =  0.8699

 Excited state   3: excitation energy (eV) =    6.0374
 Total energy for state  3:                  -363.49812718   
    Multiplicity: Singlet
    Trans. Mom.:  0.0000 X   0.0000 Y  -0.1784 Z
    Strength   :     0.0047059584
    D( 31) --> V(  2) amplitude =  0.9121

 Excited state   4: excitation energy (eV) =    6.3647
 Total energy for state  4:                  -363.48610022   
    Multiplicity: Singlet
    Trans. Mom.:  0.0000 X  -0.0000 Y  -0.2059 Z
    Strength   :     0.0066123537
    D( 30) --> V(  2) amplitude =  0.8606
    D( 30) --> V(  9) amplitude = -0.2375
    D( 31) --> V(  3) amplitude = -0.2569

 Excited state   5: excitation energy (eV) =    6.6840
 Total energy for state  5:                  -363.47436647   
    Multiplicity: Singlet
    Trans. Mom.:  0.0000 X   0.0000 Y   0.0392 Z
    Strength   :     0.0002520825
    D( 31) --> V(  3) amplitude = -0.3494
    D( 31) --> V(  4) amplitude =  0.7758
    D( 31) --> V( 12) amplitude =  0.2593

 Excited state   6: excitation energy (eV) =    6.7001
 Total energy for state  6:                  -363.47377272   
    Multiplicity: Singlet
    Trans. Mom.:  0.0000 X   0.0000 Y   0.0279 Z
    Strength   :     0.0001278544
    D( 30) --> V(  2) amplitude =  0.2322
    D( 30) --> V(  3) amplitude =  0.2207
    D( 31) --> V(  3) amplitude =  0.7986
    D( 31) --> V(  4) amplitude =  0.3475

 ---------------------------------------------------
 Calculating Relaxed Density
 ---------------------------------------------------
 Iter    Rts Conv    Rts Left    Ttl Dev     Max Dev
 ---------------------------------------------------
   1         0           6      0.001721    0.000357
   2         0           6      0.000677    0.000140
   3         0           6      0.000170    0.000036
   4         0           6      0.000041    0.000009
   5         1           5      0.000006    0.000002
   6         6           0      0.000000    0.000000    Roots Converged
 ---------------------------------------------------
  SETman timing summary (seconds)
  CPU time               732.20s
  System time            205.14s
  Wall time              380.77s

 --------------------------------------------------------------
             Orbital Energies (a.u.) and Symmetries
 --------------------------------------------------------------

 Alpha MOs, Restricted
 -- Occupied --                  
-14.464 -10.313 -10.312 -10.282 -10.279 -10.279 -10.277 -10.272
  1 A'    2 A'    3 A'    4 A'    5 A'    6 A'    7 A'    8 A'                 
-10.266  -1.114  -0.963  -0.915  -0.859  -0.846  -0.747  -0.715
  9 A'   10 A'   11 A'   12 A'   13 A'   14 A'   15 A'   16 A'                 
 -0.700  -0.654  -0.601  -0.581  -0.543  -0.539  -0.538  -0.517
 17 A'   18 A'   19 A'   20 A'   21 A'   22 A'    1 A"   23 A'                 
 -0.499  -0.457  -0.439  -0.439  -0.383  -0.306  -0.294
 24 A'   25 A'    2 A"   26 A'    3 A"    4 A"    5 A"                         
 -- Virtual --                   
  0.052   0.066   0.084   0.088   0.094   0.101   0.104   0.120
  6 A"   27 A'   28 A'   29 A'    7 A"   30 A'   31 A'    8 A"                 
  0.126   0.129   0.131   0.135   0.154   0.160   0.167   0.169
 32 A'   33 A'    9 A"   34 A'   10 A"   11 A"   35 A'   36 A'                 
  0.181   0.195   0.207   0.208   0.221   0.226   0.234   0.238
 37 A'   12 A"   13 A"   38 A'   39 A'   14 A"   40 A'   15 A"                 
  0.238   0.256   0.256   0.259   0.266   0.272   0.273   0.285
 41 A'   42 A'   43 A'   16 A"   44 A'   45 A'   46 A'   17 A"                 
  0.288   0.298   0.301   0.308   0.310   0.314   0.328   0.333
 47 A'   48 A'   49 A'   50 A'   18 A"   51 A'   52 A'   53 A'                 
  0.340   0.345   0.364   0.371   0.384   0.394   0.398   0.411
 54 A'   55 A'   56 A'   57 A'   58 A'   59 A'   60 A'   61 A'                 
  0.428   0.455   0.464   0.487   0.528   0.548   0.611   0.668
 62 A'   63 A'   64 A'   65 A'   66 A'   67 A'   68 A'   69 A'                 
  0.704   0.778   0.778   0.803   0.812   0.825   0.839   0.842
 70 A'   71 A'   19 A"   20 A"   72 A'   21 A"   73 A'   22 A"                 
  0.842   0.857   0.860   0.881   0.896   0.899   0.920   0.956
 74 A'   23 A"   75 A'   24 A"   25 A"   76 A'   77 A'   26 A"                 
  0.999   1.009   1.020   1.046   1.053   1.061   1.069   1.094
 78 A'   79 A'   80 A'   81 A'   82 A'   83 A'   27 A"   84 A'                 
  1.102   1.137   1.156   1.173   1.197   1.218   1.222   1.274
 85 A'   86 A'   87 A'   88 A'   89 A'   90 A'   91 A'   92 A'                 
  1.284   1.310   1.329   1.343   1.350   1.420   1.430   1.449
 93 A'   94 A'   95 A'   28 A"   96 A'   97 A'   29 A"   30 A"                 
  1.470   1.510   1.517   1.543   1.570   1.579   1.602   1.604
 98 A'   99 A'   31 A"  100 A'   32 A"   33 A"   34 A"   35 A"                 
  1.641   1.693   1.750   1.895   1.933   1.987   1.996   2.013
101 A'  102 A'  103 A'  104 A'  105 A'  106 A'   36 A"  107 A'                 
  2.033   2.096   2.101   2.112   2.151   2.161   2.229   2.243
108 A'  109 A'  110 A'   37 A"  111 A'  112 A'  113 A'  114 A'                 
  2.257   2.299   2.336   2.344   2.370   2.370   2.406   2.473
 38 A"  115 A'   39 A"   40 A"   41 A"  116 A'  117 A'   42 A"                 
  2.515   2.547   2.643   2.656   2.729   2.736   2.755   2.785
 43 A"  118 A'  119 A'   44 A"  120 A'   45 A"  121 A'  122 A'                 
  2.823   2.897   2.936   2.945   3.067   3.073   3.203   3.334
123 A'  124 A'  125 A'  126 A'  127 A'  128 A'  129 A'  130 A'                 
  3.490   4.258   4.359   4.410   4.441   4.479   4.515   4.595
131 A'  132 A'  133 A'  134 A'  135 A'  136 A'  137 A'  138 A'                 
  4.637   4.886
139 A'  140 A'                                                                 

 Beta MOs, Restricted
 -- Occupied --                  
-14.464 -10.313 -10.312 -10.282 -10.279 -10.279 -10.277 -10.272
  1 A'    2 A'    3 A'    4 A'    5 A'    6 A'    7 A'    8 A'                 
-10.266  -1.114  -0.963  -0.915  -0.859  -0.846  -0.747  -0.715
  9 A'   10 A'   11 A'   12 A'   13 A'   14 A'   15 A'   16 A'                 
 -0.700  -0.654  -0.601  -0.581  -0.543  -0.539  -0.538  -0.517
 17 A'   18 A'   19 A'   20 A'   21 A'   22 A'    1 A"   23 A'                 
 -0.499  -0.457  -0.439  -0.439  -0.383  -0.306  -0.294
 24 A'   25 A'    2 A"   26 A'    3 A"    4 A"    5 A"                         
 -- Virtual --                   
  0.052   0.066   0.084   0.088   0.094   0.101   0.104   0.120
  6 A"   27 A'   28 A'   29 A'    7 A"   30 A'   31 A'    8 A"                 
  0.126   0.129   0.131   0.135   0.154   0.160   0.167   0.169
 32 A'   33 A'    9 A"   34 A'   10 A"   11 A"   35 A'   36 A'                 
  0.181   0.195   0.207   0.208   0.221   0.226   0.234   0.238
 37 A'   12 A"   13 A"   38 A'   39 A'   14 A"   40 A'   15 A"                 
  0.238   0.256   0.256   0.259   0.266   0.272   0.273   0.285
 41 A'   42 A'   43 A'   16 A"   44 A'   45 A'   46 A'   17 A"                 
  0.288   0.298   0.301   0.308   0.310   0.314   0.328   0.333
 47 A'   48 A'   49 A'   50 A'   18 A"   51 A'   52 A'   53 A'                 
  0.340   0.345   0.364   0.371   0.384   0.394   0.398   0.411
 54 A'   55 A'   56 A'   57 A'   58 A'   59 A'   60 A'   61 A'                 
  0.428   0.455   0.464   0.487   0.528   0.548   0.611   0.668
 62 A'   63 A'   64 A'   65 A'   66 A'   67 A'   68 A'   69 A'                 
  0.704   0.778   0.778   0.803   0.812   0.825   0.839   0.842
 70 A'   71 A'   19 A"   20 A"   72 A'   21 A"   73 A'   22 A"                 
  0.842   0.857   0.860   0.881   0.896   0.899   0.920   0.956
 74 A'   23 A"   75 A'   24 A"   25 A"   76 A'   77 A'   26 A"                 
  0.999   1.009   1.020   1.046   1.053   1.061   1.069   1.094
 78 A'   79 A'   80 A'   81 A'   82 A'   83 A'   27 A"   84 A'                 
  1.102   1.137   1.156   1.173   1.197   1.218   1.222   1.274
 85 A'   86 A'   87 A'   88 A'   89 A'   90 A'   91 A'   92 A'                 
  1.284   1.310   1.329   1.343   1.350   1.420   1.430   1.449
 93 A'   94 A'   95 A'   28 A"   96 A'   97 A'   29 A"   30 A"                 
  1.470   1.510   1.517   1.543   1.570   1.579   1.602   1.604
 98 A'   99 A'   31 A"  100 A'   32 A"   33 A"   34 A"   35 A"                 
  1.641   1.693   1.750   1.895   1.933   1.987   1.996   2.013
101 A'  102 A'  103 A'  104 A'  105 A'  106 A'   36 A"  107 A'                 
  2.033   2.096   2.101   2.112   2.151   2.161   2.229   2.243
108 A'  109 A'  110 A'   37 A"  111 A'  112 A'  113 A'  114 A'                 
  2.257   2.299   2.336   2.344   2.370   2.370   2.406   2.473
 38 A"  115 A'   39 A"   40 A"   41 A"  116 A'  117 A'   42 A"                 
  2.515   2.547   2.643   2.656   2.729   2.736   2.755   2.785
 43 A"  118 A'  119 A'   44 A"  120 A'   45 A"  121 A'  122 A'                 
  2.823   2.897   2.936   2.945   3.067   3.073   3.203   3.334
123 A'  124 A'  125 A'  126 A'  127 A'  128 A'  129 A'  130 A'                 
  3.490   4.258   4.359   4.410   4.441   4.479   4.515   4.595
131 A'  132 A'  133 A'  134 A'  135 A'  136 A'  137 A'  138 A'                 
  4.637   4.886
139 A'  140 A'                                                                 
 --------------------------------------------------------------

          Ground-State Mulliken Net Atomic Charges

     Atom                 Charge (a.u.)
  ----------------------------------------
      1 C                    -0.076694
      2 C                    -0.395084
      3 C                    -0.141100
      4 C                    -0.631394
      5 N                    -0.559184
      6 H                     0.429768
      7 C                    -0.240721
      8 C                     0.098421
      9 C                     0.800004
     10 C                    -0.523774
     11 H                     0.193944
     12 H                     0.199177
     13 H                     0.204292
     14 H                     0.218600
     15 H                     0.215879
     16 H                     0.207865
  ----------------------------------------
  Sum of atomic charges =    -0.000000

 -----------------------------------------------------------------
                    Cartesian Multipole Moments
 -----------------------------------------------------------------
    Charge (ESU x 10^10)
                -0.0000
    Dipole Moment (Debye)
         X      -1.5975      Y       1.5255      Z       0.0000
       Tot       2.2088
    Quadrupole Moments (Debye-Ang)
        XX     -44.8576     XY      -2.9905     YY     -43.9141
        XZ       0.0000     YZ      -0.0000     ZZ     -59.2023
    Octopole Moments (Debye-Ang^2)
       XXX     -15.7790    XXY       8.4573    XYY      -7.7560
       YYY      10.1788    XXZ       0.0000    XYZ       0.0000
       YYZ       0.0000    XZZ      -2.4094    YZZ       2.0018
       ZZZ      -0.0000
    Hexadecapole Moments (Debye-Ang^3)
      XXXX    -811.9852   XXXY     -21.9697   XXYY    -198.2069
      XYYY     -21.4916   YYYY    -373.7588   XXXZ      -0.0000
      XXYZ      -0.0000   XYYZ       0.0000   YYYZ      -0.0000
      XXZZ    -191.3193   XYZZ      -4.6263   YYZZ     -95.8397
      XZZZ       0.0000   YZZZ      -0.0000   ZZZZ     -73.0379
 -----------------------------------------------------------------
 Calculating analytic gradient of the CIS energy
 CIS relaxed dipole moment
            1
    1  -0.7225972
    2   0.4827018
    3   0.0000000
	Magnitude:	 0.869   	 2.209 Debye
 CIS 1 State Energy is -363.5360653951
 Gradient of the state energy (including CIS Excitation Energy)
            1           2           3           4           5           6
    1   0.0006980   0.0003589  -0.0005191   0.0016951  -0.0034369   0.0001583
    2  -0.0016807   0.0011175   0.0004235  -0.0007105  -0.0008488  -0.0001359
    3   0.0000000   0.0000000   0.0000000  -0.0000000  -0.0000000  -0.0000000
            7           8           9          10          11          12
    1   0.0019656   0.0001694  -0.0006207   0.0003859  -0.0000514  -0.0000943
    2   0.0026789  -0.0011931   0.0007652  -0.0003662   0.0001865   0.0000177
    3  -0.0000000  -0.0000000   0.0000000  -0.0000000   0.0000000  -0.0000000
           13          14          15          16
    1   0.0000126  -0.0002820  -0.0000377  -0.0004018
    2  -0.0000254  -0.0004137   0.0002197  -0.0000346
    3   0.0000000   0.0000000   0.0000000  -0.0000000
 Gradient time:  CPU 75.02 s  wall 52.52 s
 Geometry Optimization Parameters
   NAtoms,    NIC,     NZ,  NCons,   NDum,   NFix, NCnnct, MaxDiis
       16     116       0       0       0       0       0       0

 Cartesian Hessian Update
 Hessian Updated using BFGS Update


** GEOMETRY OPTIMIZATION IN DELOCALIZED INTERNAL COORDINATES **
   Searching for a Minimum

   Optimization Cycle:   3

                       Coordinates (Angstroms)
     ATOM                X               Y               Z
      1  C         2.1634872274   -0.6900256120    0.0000000000
      2  C         2.1530818862    0.7354067986    0.0000000000
      3  C         0.9346722935    1.4559931457    0.0000000000
      4  C        -0.2491542679    0.6847007171    0.0000000000
      5  N        -1.5529660672    1.0760265356    0.0000000000
      6  H        -1.8644985513    2.0349521875    0.0000000000
      7  C        -2.4046424731   -0.0375854973    0.0000000000
      8  C        -1.6358579116   -1.1725370524    0.0000000000
      9  C        -0.2598273749   -0.7731681577    0.0000000000
     10  C         0.9695949817   -1.4625506751    0.0000000000
     11  H         3.1217660478   -1.2022244013    0.0000000000
     12  H         3.0970699997    1.2711317986    0.0000000000
     13  H         0.9121510967    2.5415568086    0.0000000000
     14  H        -3.4784898950    0.0888885341    0.0000000000
     15  H        -2.0112827695   -2.1876629845    0.0000000000
     16  H         1.0067852699   -2.5474916839    0.0000000000
   Point Group: cs    Number of degrees of freedom:    29


   Energy is   -363.536065395

 Hessian Updated using BFGS Update

 25 Hessian modes will be used to form the next step
  Hessian Eigenvalues:
     0.140796    0.160017    0.160420    0.199483    0.222760    0.227633
     0.241687    0.244925    0.344631    0.351854    0.352386    0.353136
     0.354412    0.358649    0.360998    0.375814    0.396046    0.421968
     0.439920    0.458666    0.465359    0.471088    0.484857    0.491685
     0.524562

 Minimum Search - Taking Simple RFO Step
 Searching for Lamda that Minimizes Along All modes
 Value Taken    Lamda =  -0.00005399
 Step Taken.  Stepsize is  0.016322

                             Maximum     Tolerance    Cnvgd?
         Gradient           0.001705      0.000300      NO
         Displacement       0.007660      0.001200      NO
         Energy change     -0.000201      0.000001      NO


 New Cartesian Coordinates Obtained by Inverse Iteration

 Displacement from previous Coordinates is:  0.019736
 ----------------------------------------------------------------
             Standard Nuclear Orientation (Angstroms)
    I     Atom           X                Y                Z
 ----------------------------------------------------------------
    1      C       2.1612272625    -0.6874186183     0.0000000000
    2      C       2.1523279015     0.7353475458     0.0000000000
    3      C       0.9344435720     1.4556958354     0.0000000000
    4      C      -0.2493086466     0.6840235810     0.0000000000
    5      N      -1.5497554091     1.0750080111     0.0000000000
    6      H      -1.8607647911     2.0344515691     0.0000000000
    7      C      -2.4067446386    -0.0392198507     0.0000000000
    8      C      -1.6371901833    -1.1727816080     0.0000000000
    9      C      -0.2605499551    -0.7749358622     0.0000000000
   10      C       0.9689756854    -1.4623676484     0.0000000000
   11      H       3.1193350655    -1.2005341610     0.0000000000
   12      H       3.0971040654     1.2698761898     0.0000000000
   13      H       0.9116810239     2.5412411750     0.0000000000
   14      H      -3.4794264829     0.0926571431     0.0000000000
   15      H      -2.0117464581    -2.1886670829     0.0000000000
   16      H       1.0122814812    -2.5469657570     0.0000000000
 ----------------------------------------------------------------
 Molecular Point Group                 Cs    NOp =  2
 Largest Abelian Subgroup              Cs    NOp =  2
 Nuclear Repulsion Energy =   397.1826589129 hartrees
 There are       31 alpha and       31 beta electrons
 Applying Cartesian multipole field
    Component          Value
    ---------          -----
     (2,0,0)        1.00000E-11
     (0,2,0)        2.00000E-11
     (0,0,2)       -3.00000E-11
 Nucleus-field energy     =     0.0000000119 hartrees
 Requested basis set is 6-31+G(d)
 There are 59 shells and 185 basis functions
 Smallest overlap matrix eigenvalue = 1.45E-06
 Guess MOs from SCF MO coefficient file

 -----------------------------------------------------------------------
  General SCF calculation program by
  Eric Jon Sundstrom, P  l Horn, Yuezhi Mao, Dmitri Zuev, Alec White,
  David Stuck, Shaama M.S., Shane Yost, Joonho Lee, David Small,
  Daniel Levine, Susi Lehtola, Hugh Burton, Evgeny Epifanovsky
 -----------------------------------------------------------------------
 Exchange:     0.1577 Hartree-Fock + 1.0000 wB97X + LR-HF
 Correlation:  1.0000 wB97X
 Using SG-2 standard quadrature grid
 A restricted SCF calculation will be
 performed using DIIS
 SCF converges when DIIS error is below 1.0e-08
 ---------------------------------------
  Cycle       Energy         DIIS error
 ---------------------------------------
    1    -363.7197696112      6.47e-05  
    2    -363.7197929967      1.51e-05  
    3    -363.7197943568      1.19e-05  
    4    -363.7197950140      2.47e-06  
    5    -363.7197950969      1.13e-06  
    6    -363.7197951145      5.95e-07  
    7    -363.7197951208      2.00e-07  
    8    -363.7197951215      8.83e-08  
    9    -363.7197951216      3.28e-08  
   10    -363.7197951216      1.28e-08  
   11    -363.7197951216      4.95e-09  Convergence criterion met
 ---------------------------------------
 SCF time:   CPU 74.52s  wall 74.00s 
 SCF   energy in the final basis set =     -363.7197951216
 Total energy in the final basis set =     -363.7197951216
 A cutoff of  1.0D-12 yielded   1656 shell pairs
 There are     17099 function pairs

 Exchange:     0.1577 Hartree-Fock + 1.0000 wB97X + LR-HF
 Correlation:  1.0000 wB97X
 Using SG-2 standard quadrature grid
 Direct TDDFT/TDA calculation will be performed
 Singlet excitation energies requested
 CIS energy converged when residual is below 10e- 6
 ---------------------------------------------------
 Iter    Rts Conv    Rts Left    Ttl Dev     Max Dev
 ---------------------------------------------------
   1         0           6      0.005008    0.001699
   2         0           6      0.001609    0.000526
   3         0           6      0.001017    0.000336
   4         0           6      0.000632    0.000172
   5         0           6      0.000298    0.000065
   6         0           6      0.000149    0.000039
   7         0           6      0.000061    0.000015
   8         1           5      0.000032    0.000010
   9         1           5      0.000016    0.000006
  10         4           2      0.000008    0.000003
  11         5           1      0.000004    0.000001
  12         6           0      0.000003    0.000001    Roots Converged
 ---------------------------------------------------

 ---------------------------------------------------
         TDDFT/TDA Excitation Energies              
 ---------------------------------------------------

 Excited state   1: excitation energy (eV) =    4.9987
 Total energy for state  1:                  -363.53609496   
    Multiplicity: Singlet
    Trans. Mom.:  0.5114 X   0.4394 Y   0.0000 Z
    Strength   :     0.0556784365
    D( 30) --> V(  1) amplitude =  0.7896
    D( 31) --> V(  1) amplitude =  0.2538
    D( 31) --> V(  5) amplitude =  0.4818

 Excited state   2: excitation energy (eV) =    5.3190
 Total energy for state  2:                  -363.52432417   
    Multiplicity: Singlet
    Trans. Mom.: -0.6986 X   0.6734 Y   0.0000 Z
    Strength   :     0.1226922918
    D( 30) --> V(  1) amplitude = -0.2126
    D( 30) --> V(  5) amplitude = -0.3714
    D( 31) --> V(  1) amplitude =  0.8578

 Excited state   3: excitation energy (eV) =    6.0425
 Total energy for state  3:                  -363.49773552   
    Multiplicity: Singlet
    Trans. Mom.: -0.0000 X  -0.0000 Y  -0.1708 Z
    Strength   :     0.0043169368
    D( 31) --> V(  2) amplitude =  0.9100

 Excited state   4: excitation energy (eV) =    6.3573
 Total energy for state  4:                  -363.48616840   
    Multiplicity: Singlet
    Trans. Mom.:  0.0000 X  -0.0000 Y   0.2128 Z
    Strength   :     0.0070543212
    D( 30) --> V(  2) amplitude =  0.8632
    D( 30) --> V(  9) amplitude = -0.2379
    D( 31) --> V(  3) amplitude =  0.2515

 Excited state   5: excitation energy (eV) =    6.6852
 Total energy for state  5:                  -363.47411719   
    Multiplicity: Singlet
    Trans. Mom.: -0.0000 X  -0.0000 Y   0.0262 Z
    Strength   :     0.0001124431
    D( 31) --> V(  3) amplitude = -0.3635
    D( 31) --> V(  4) amplitude =  0.7680
    D( 31) --> V( 12) amplitude =  0.2587

 Excited state   6: excitation energy (eV) =    6.7112
 Total energy for state  6:                  -363.47316271   
    Multiplicity: Singlet
    Trans. Mom.: -0.0000 X  -0.0000 Y   0.0266 Z
    Strength   :     0.0001167029
    D( 30) --> V(  2) amplitude = -0.2272
    D( 30) --> V(  3) amplitude = -0.2393
    D( 31) --> V(  3) amplitude =  0.7908
    D( 31) --> V(  4) amplitude =  0.3571

 ---------------------------------------------------
 Calculating Relaxed Density
 ---------------------------------------------------
 Iter    Rts Conv    Rts Left    Ttl Dev     Max Dev
 ---------------------------------------------------
   1         0           6      0.001727    0.000359
   2         0           6      0.000676    0.000140
   3         0           6      0.000166    0.000035
   4         0           6      0.000040    0.000009
   5         0           6      0.000007    0.000002
   6         6           0      0.000000    0.000000    Roots Converged
 ---------------------------------------------------
  SETman timing summary (seconds)
  CPU time               751.48s
  System time            217.26s
  Wall time              386.34s

 --------------------------------------------------------------
             Orbital Energies (a.u.) and Symmetries
 --------------------------------------------------------------

 Alpha MOs, Restricted
 -- Occupied --                  
-14.463 -10.313 -10.312 -10.282 -10.279 -10.278 -10.277 -10.271
  1 A'    2 A'    3 A'    4 A'    5 A'    6 A'    7 A'    8 A'                 
-10.267  -1.114  -0.963  -0.916  -0.858  -0.846  -0.747  -0.715
  9 A'   10 A'   11 A'   12 A'   13 A'   14 A'   15 A'   16 A'                 
 -0.700  -0.654  -0.601  -0.581  -0.543  -0.539  -0.538  -0.518
 17 A'   18 A'   19 A'   20 A'   21 A'   22 A'    1 A"   23 A'                 
 -0.499  -0.457  -0.439  -0.439  -0.384  -0.305  -0.295
 24 A'   25 A'    2 A"   26 A'    3 A"    4 A"    5 A"                         
 -- Virtual --                   
  0.052   0.066   0.084   0.088   0.094   0.101   0.104   0.120
  6 A"   27 A'   28 A'   29 A'    7 A"   30 A'   31 A'    8 A"                 
  0.126   0.129   0.131   0.135   0.154   0.160   0.167   0.169
 32 A'   33 A'    9 A"   34 A'   10 A"   11 A"   35 A'   36 A'                 
  0.181   0.195   0.207   0.208   0.221   0.226   0.234   0.238
 37 A'   12 A"   13 A"   38 A'   39 A'   14 A"   40 A'   41 A'                 
  0.238   0.255   0.256   0.259   0.266   0.271   0.273   0.285
 15 A"   42 A'   43 A'   16 A"   44 A'   45 A'   46 A'   17 A"                 
  0.288   0.298   0.301   0.308   0.310   0.314   0.328   0.333
 47 A'   48 A'   49 A'   50 A'   18 A"   51 A'   52 A'   53 A'                 
  0.339   0.345   0.365   0.371   0.384   0.394   0.397   0.411
 54 A'   55 A'   56 A'   57 A'   58 A'   59 A'   60 A'   61 A'                 
  0.428   0.456   0.464   0.487   0.528   0.549   0.611   0.669
 62 A'   63 A'   64 A'   65 A'   66 A'   67 A'   68 A'   69 A'                 
  0.705   0.777   0.778   0.803   0.812   0.825   0.839   0.842
 70 A'   71 A'   19 A"   20 A"   72 A'   21 A"   73 A'   22 A"                 
  0.842   0.857   0.860   0.881   0.896   0.899   0.920   0.956
 74 A'   23 A"   75 A'   24 A"   25 A"   76 A'   77 A'   26 A"                 
  0.999   1.009   1.020   1.046   1.053   1.061   1.069   1.094
 78 A'   79 A'   80 A'   81 A'   82 A'   83 A'   27 A"   84 A'                 
  1.103   1.137   1.157   1.173   1.197   1.218   1.222   1.274
 85 A'   86 A'   87 A'   88 A'   89 A'   90 A'   91 A'   92 A'                 
  1.285   1.310   1.329   1.343   1.351   1.420   1.430   1.449
 93 A'   94 A'   95 A'   28 A"   96 A'   97 A'   29 A"   30 A"                 
  1.471   1.510   1.516   1.543   1.570   1.579   1.603   1.604
 98 A'   99 A'   31 A"  100 A'   32 A"   33 A"   34 A"   35 A"                 
  1.641   1.695   1.749   1.895   1.933   1.987   1.996   2.014
101 A'  102 A'  103 A'  104 A'  105 A'  106 A'   36 A"  107 A'                 
  2.035   2.096   2.102   2.112   2.151   2.160   2.230   2.244
108 A'  109 A'  110 A'   37 A"  111 A'  112 A'  113 A'  114 A'                 
  2.256   2.301   2.336   2.344   2.369   2.371   2.407   2.474
 38 A"  115 A'   39 A"   40 A"  116 A'   41 A"  117 A'   42 A"                 
  2.515   2.547   2.645   2.656   2.729   2.738   2.755   2.785
 43 A"  118 A'  119 A'   44 A"  120 A'   45 A"  121 A'  122 A'                 
  2.823   2.898   2.937   2.946   3.067   3.074   3.202   3.335
123 A'  124 A'  125 A'  126 A'  127 A'  128 A'  129 A'  130 A'                 
  3.492   4.258   4.360   4.410   4.442   4.479   4.515   4.596
131 A'  132 A'  133 A'  134 A'  135 A'  136 A'  137 A'  138 A'                 
  4.637   4.886
139 A'  140 A'                                                                 

 Beta MOs, Restricted
 -- Occupied --                  
-14.463 -10.313 -10.312 -10.282 -10.279 -10.278 -10.277 -10.271
  1 A'    2 A'    3 A'    4 A'    5 A'    6 A'    7 A'    8 A'                 
-10.267  -1.114  -0.963  -0.916  -0.858  -0.846  -0.747  -0.715
  9 A'   10 A'   11 A'   12 A'   13 A'   14 A'   15 A'   16 A'                 
 -0.700  -0.654  -0.601  -0.581  -0.543  -0.539  -0.538  -0.518
 17 A'   18 A'   19 A'   20 A'   21 A'   22 A'    1 A"   23 A'                 
 -0.499  -0.457  -0.439  -0.439  -0.384  -0.305  -0.295
 24 A'   25 A'    2 A"   26 A'    3 A"    4 A"    5 A"                         
 -- Virtual --                   
  0.052   0.066   0.084   0.088   0.094   0.101   0.104   0.120
  6 A"   27 A'   28 A'   29 A'    7 A"   30 A'   31 A'    8 A"                 
  0.126   0.129   0.131   0.135   0.154   0.160   0.167   0.169
 32 A'   33 A'    9 A"   34 A'   10 A"   11 A"   35 A'   36 A'                 
  0.181   0.195   0.207   0.208   0.221   0.226   0.234   0.238
 37 A'   12 A"   13 A"   38 A'   39 A'   14 A"   40 A'   41 A'                 
  0.238   0.255   0.256   0.259   0.266   0.271   0.273   0.285
 15 A"   42 A'   43 A'   16 A"   44 A'   45 A'   46 A'   17 A"                 
  0.288   0.298   0.301   0.308   0.310   0.314   0.328   0.333
[...]
  0.339   0.345   0.365   0.371   0.384   0.394   0.397   0.411
 54 A'   55 A'   56 A'   57 A'   58 A'   59 A'   60 A'   61 A'                 
  0.428   0.456   0.464   0.487   0.527   0.549   0.611   0.669
 62 A'   63 A'   64 A'   65 A'   66 A'   67 A'   68 A'   69 A'                 
  0.705   0.778   0.778   0.803   0.812   0.825   0.839   0.842
 70 A'   71 A'   19 A"   20 A"   72 A'   21 A"   73 A'   22 A"                 
  0.842   0.857   0.860   0.881   0.896   0.899   0.920   0.956
 74 A'   23 A"   75 A'   24 A"   25 A"   76 A'   77 A'   26 A"                 
  0.999   1.009   1.020   1.046   1.053   1.061   1.069   1.094
 78 A'   79 A'   80 A'   81 A'   82 A'   83 A'   27 A"   84 A'                 
  1.103   1.137   1.157   1.173   1.197   1.218   1.222   1.274
 85 A'   86 A'   87 A'   88 A'   89 A'   90 A'   91 A'   92 A'                 
  1.285   1.310   1.329   1.343   1.351   1.420   1.430   1.449
 93 A'   94 A'   95 A'   28 A"   96 A'   97 A'   29 A"   30 A"                 
  1.471   1.510   1.516   1.543   1.570   1.579   1.603   1.604
 98 A'   99 A'   31 A"  100 A'   32 A"   33 A"   34 A"   35 A"                 
  1.641   1.695   1.749   1.895   1.933   1.986   1.996   2.014
101 A'  102 A'  103 A'  104 A'  105 A'  106 A'   36 A"  107 A'                 
  2.035   2.096   2.102   2.112   2.150   2.160   2.229   2.244
108 A'  109 A'  110 A'   37 A"  111 A'  112 A'  113 A'  114 A'                 
  2.256   2.301   2.336   2.344   2.369   2.371   2.407   2.473
 38 A"  115 A'   39 A"   40 A"  116 A'   41 A"  117 A'   42 A"                 
  2.515   2.547   2.645   2.656   2.729   2.738   2.755   2.786
 43 A"  118 A'  119 A'   44 A"  120 A'   45 A"  121 A'  122 A'                 
  2.823   2.898   2.937   2.946   3.067   3.074   3.202   3.335
123 A'  124 A'  125 A'  126 A'  127 A'  128 A'  129 A'  130 A'                 
  3.492   4.257   4.361   4.410   4.442   4.478   4.515   4.596
131 A'  132 A'  133 A'  134 A'  135 A'  136 A'  137 A'  138 A'                 
  4.637   4.886
139 A'  140 A'                                                                 
 --------------------------------------------------------------

          Ground-State Mulliken Net Atomic Charges

     Atom                 Charge (a.u.)
  ----------------------------------------
      1 C                    -0.074049
      2 C                    -0.395240
      3 C                    -0.140137
      4 C                    -0.633462
      5 N                    -0.560522
      6 H                     0.429439
      7 C                    -0.239233
      8 C                     0.098245
      9 C                     0.804884
     10 C                    -0.529796
     11 H                     0.193432
     12 H                     0.199407
     13 H                     0.204109
     14 H                     0.218967
     15 H                     0.216021
     16 H                     0.207934
  ----------------------------------------
  Sum of atomic charges =     0.000000

 -----------------------------------------------------------------
                    Cartesian Multipole Moments
 -----------------------------------------------------------------
    Charge (ESU x 10^10)
                 0.0000
    Dipole Moment (Debye)
         X      -1.6012      Y       1.5163      Z      -0.0000
       Tot       2.2052
    Quadrupole Moments (Debye-Ang)
        XX     -44.8492     XY      -2.9759     YY     -43.9278
        XZ       0.0000     YZ       0.0000     ZZ     -59.1920
    Octopole Moments (Debye-Ang^2)
       XXX     -15.8160    XXY       8.4916    XYY      -7.6961
       YYY      10.1367    XXZ      -0.0000    XYZ      -0.0000
       YYZ       0.0000    XZZ      -2.3630    YZZ       2.0080
       ZZZ       0.0000
    Hexadecapole Moments (Debye-Ang^3)
      XXXX    -811.7124   XXXY     -22.1543   XXYY    -198.1950
      XYYY     -21.7777   YYYY    -373.6057   XXXZ       0.0000
      XXYZ       0.0000   XYYZ      -0.0000   YYYZ      -0.0000
      XXZZ    -191.2726   XYZZ      -4.7084   YYZZ     -95.7659
      XZZZ      -0.0000   YZZZ       0.0000   ZZZZ     -72.9996
 -----------------------------------------------------------------
 Calculating analytic gradient of the CIS energy
 CIS relaxed dipole moment
            1
    1  -0.7205410
    2   0.4764055
    3   0.0000000
	Magnitude:	 0.864   	 2.196 Debye
 CIS 1 State Energy is -363.5360970505
 Gradient of the state energy (including CIS Excitation Energy)
            1           2           3           4           5           6
    1  -0.0000355  -0.0000638  -0.0000608   0.0000241  -0.0000455   0.0000113
    2   0.0000263  -0.0000510   0.0000119   0.0002999  -0.0002415   0.0000119
    3  -0.0000000   0.0000000   0.0000000  -0.0000000  -0.0000000   0.0000000
            7           8           9          10          11          12
    1  -0.0000141   0.0001869  -0.0000631  -0.0000014   0.0000168   0.0000157
    2   0.0002442   0.0000271  -0.0002894  -0.0000123   0.0000203  -0.0000162
    3  -0.0000000  -0.0000000   0.0000000  -0.0000000   0.0000000  -0.0000000
           13          14          15          16
    1   0.0000383  -0.0000039  -0.0000244   0.0000194
    2  -0.0000158  -0.0000422   0.0000103   0.0000168
    3   0.0000000   0.0000000   0.0000000  -0.0000000
 Gradient time:  CPU 76.12 s  wall 53.04 s

Z-matrix Print:
$molecule
0 1
C 
N  1 1.357760
H  2 1.008583 1 124.719100
C  2 1.406580 1 110.831330 3 -180.000000 0
H  4 1.080781 2 120.499591 1 -180.000000 0
C  4 1.369858 2 108.227741 1 -0.000000 0
H  6 1.082668 4 125.608392 2 -180.000000 0
C  1 1.413363 2 130.155005 3 -0.000000 0
H  8 1.085853 1 121.847376 2 -0.000000 0
C  8 1.414863 1 116.331560 2 -180.000000 0
H  10 1.085499 8 119.905446 1 -180.000000 0
C  10 1.422573 8 120.920602 1 -0.000000 0
H  12 1.086907 10 118.560771 8 -180.000000 0
C  12 1.421940 10 122.672730 8 -0.000000 0
H  14 1.085520 12 120.702323 10 -180.000000 0
C  14 1.408636 12 117.793679 10 -0.000000 0
$end

 Geometry Optimization Parameters
   NAtoms,    NIC,     NZ,  NCons,   NDum,   NFix, NCnnct, MaxDiis
       16     116       0       0       0       0       0       0

 Cartesian Hessian Update
 Hessian Updated using BFGS Update


** GEOMETRY OPTIMIZATION IN DELOCALIZED INTERNAL COORDINATES **
   Searching for a Minimum

   Optimization Cycle:   5

                       Coordinates (Angstroms)
     ATOM                X               Y               Z
      1  C         2.1613880365   -0.6870891960    0.0000000000
      2  C         2.1528674796    0.7354580415    0.0000000000
      3  C         0.9347515195    1.4552021505    0.0000000000
      4  C        -0.2493701496    0.6835475212    0.0000000000
      5  N        -1.5494948952    1.0749391442    0.0000000000
      6  H        -1.8605802096    2.0343482400    0.0000000000
      7  C        -2.4074269109   -0.0396993622    0.0000000000
      8  C        -1.6377105229   -1.1728577500    0.0000000000
      9  C        -0.2606805828   -0.7748533839    0.0000000000
     10  C         0.9690638020   -1.4618643195    0.0000000000
     11  H         3.1191250583   -1.2010019756    0.0000000000
     12  H         3.0974780937    1.2702658786    0.0000000000
     13  H         0.9111842976    2.5407991655    0.0000000000
     14  H        -3.4799538166    0.0936194472    0.0000000000
     15  H        -2.0116365091   -2.1889038729    0.0000000000
     16  H         1.0128848019   -2.5464992671    0.0000000000
   Point Group: cs    Number of degrees of freedom:    29


   Energy is   -363.536097050

 Hessian Updated using BFGS Update

 27 Hessian modes will be used to form the next step
  Hessian Eigenvalues:
     0.117469    0.155991    0.160005    0.160110    0.160181    0.204611
     0.215790    0.229327    0.242685    0.243439    0.314553    0.351023
     0.351879    0.352594    0.353455    0.357580    0.359497    0.367222
     0.377675    0.422163    0.439370    0.455753    0.461930    0.465427
     0.471982    0.491522    0.527846

 Minimum Search - Taking Simple RFO Step
 Searching for Lamda that Minimizes Along All modes
 Value Taken    Lamda =   0.00000000
 Step Taken.  Stepsize is  0.001816

                             Maximum     Tolerance    Cnvgd?
         Gradient           0.000145      0.000300     YES
         Displacement       0.000647      0.001200     YES
         Energy change     -0.000002      0.000001      NO

 Final energy is   -363.53609705047012     


 ******************************
 **  OPTIMIZATION CONVERGED  **
 ******************************

                       Coordinates (Angstroms)
     ATOM                X               Y               Z
      1  C         2.1613880365   -0.6870891960    0.0000000000
      2  C         2.1528674796    0.7354580415    0.0000000000
      3  C         0.9347515195    1.4552021505    0.0000000000
      4  C        -0.2493701496    0.6835475212    0.0000000000
      5  N        -1.5494948952    1.0749391442    0.0000000000
      6  H        -1.8605802096    2.0343482400    0.0000000000
      7  C        -2.4074269109   -0.0396993622    0.0000000000
      8  C        -1.6377105229   -1.1728577500    0.0000000000
      9  C        -0.2606805828   -0.7748533839    0.0000000000
     10  C         0.9690638020   -1.4618643195    0.0000000000
     11  H         3.1191250583   -1.2010019756    0.0000000000
     12  H         3.0974780937    1.2702658786    0.0000000000
     13  H         0.9111842976    2.5407991655    0.0000000000
     14  H        -3.4799538166    0.0936194472    0.0000000000
     15  H        -2.0116365091   -2.1889038729    0.0000000000
     16  H         1.0128848019   -2.5464992671    0.0000000000

 --------------------------------------------------------------
             Orbital Energies (a.u.) and Symmetries
 --------------------------------------------------------------

 Alpha MOs, Restricted
 -- Occupied --                  
-14.463 -10.313 -10.312 -10.282 -10.279 -10.278 -10.277 -10.271
  1 A'    2 A'    3 A'    4 A'    5 A'    6 A'    7 A'    8 A'                 
-10.267  -1.114  -0.963  -0.916  -0.858  -0.847  -0.747  -0.715
  9 A'   10 A'   11 A'   12 A'   13 A'   14 A'   15 A'   16 A'                 
 -0.700  -0.654  -0.601  -0.581  -0.543  -0.539  -0.538  -0.518
 17 A'   18 A'   19 A'   20 A'   21 A'   22 A'    1 A"   23 A'                 
 -0.500  -0.457  -0.439  -0.439  -0.384  -0.305  -0.295
 24 A'   25 A'    2 A"   26 A'    3 A"    4 A"    5 A"                         
 -- Virtual --                   
  0.052   0.066   0.084   0.088   0.095   0.101   0.104   0.120
  6 A"   27 A'   28 A'   29 A'    7 A"   30 A'   31 A'    8 A"                 
  0.126   0.129   0.131   0.135   0.154   0.160   0.167   0.169
 32 A'   33 A'    9 A"   34 A'   10 A"   11 A"   35 A'   36 A'                 
  0.181   0.195   0.207   0.208   0.221   0.226   0.234   0.238
 37 A'   12 A"   13 A"   38 A'   39 A'   14 A"   40 A'   41 A'                 
  0.238   0.255   0.256   0.259   0.266   0.271   0.273   0.285
 15 A"   42 A'   43 A'   16 A"   44 A'   45 A'   46 A'   17 A"                 
  0.288   0.298   0.301   0.308   0.310   0.314   0.328   0.333
 47 A'   48 A'   49 A'   50 A'   18 A"   51 A'   52 A'   53 A'                 
  0.339   0.345   0.365   0.371   0.384   0.394   0.397   0.411
 54 A'   55 A'   56 A'   57 A'   58 A'   59 A'   60 A'   61 A'                 
  0.428   0.456   0.464   0.487   0.527   0.549   0.611   0.669
 62 A'   63 A'   64 A'   65 A'   66 A'   67 A'   68 A'   69 A'                 
  0.705   0.778   0.778   0.803   0.812   0.825   0.839   0.842
 70 A'   71 A'   19 A"   20 A"   72 A'   21 A"   73 A'   22 A"                 
  0.842   0.857   0.860   0.881   0.896   0.899   0.920   0.956
 74 A'   23 A"   75 A'   24 A"   25 A"   76 A'   77 A'   26 A"                 
  0.999   1.009   1.020   1.046   1.053   1.061   1.069   1.094
 78 A'   79 A'   80 A'   81 A'   82 A'   83 A'   27 A"   84 A'                 
  1.103   1.137   1.157   1.173   1.197   1.218   1.222   1.274
 85 A'   86 A'   87 A'   88 A'   89 A'   90 A'   91 A'   92 A'                 
  1.285   1.310   1.329   1.343   1.351   1.420   1.430   1.449
 93 A'   94 A'   95 A'   28 A"   96 A'   97 A'   29 A"   30 A"                 
  1.471   1.510   1.516   1.543   1.570   1.579   1.603   1.604
 98 A'   99 A'   31 A"  100 A'   32 A"   33 A"   34 A"   35 A"                 
  1.641   1.695   1.749   1.895   1.933   1.986   1.996   2.014
101 A'  102 A'  103 A'  104 A'  105 A'  106 A'   36 A"  107 A'                 
  2.035   2.096   2.102   2.112   2.150   2.160   2.229   2.244
108 A'  109 A'  110 A'   37 A"  111 A'  112 A'  113 A'  114 A'                 
  2.256   2.301   2.336   2.344   2.369   2.371   2.407   2.473
 38 A"  115 A'   39 A"   40 A"  116 A'   41 A"  117 A'   42 A"                 
  2.515   2.547   2.645   2.656   2.729   2.738   2.755   2.786
 43 A"  118 A'  119 A'   44 A"  120 A'   45 A"  121 A'  122 A'                 
  2.823   2.898   2.937   2.946   3.067   3.074   3.202   3.335
123 A'  124 A'  125 A'  126 A'  127 A'  128 A'  129 A'  130 A'                 
  3.492   4.257   4.361   4.410   4.442   4.478   4.515   4.596
131 A'  132 A'  133 A'  134 A'  135 A'  136 A'  137 A'  138 A'                 
  4.637   4.886
139 A'  140 A'                                                                 

 Beta MOs, Restricted
 -- Occupied --                  
-14.463 -10.313 -10.312 -10.282 -10.279 -10.278 -10.277 -10.271
  1 A'    2 A'    3 A'    4 A'    5 A'    6 A'    7 A'    8 A'                 
-10.267  -1.114  -0.963  -0.916  -0.858  -0.847  -0.747  -0.715
  9 A'   10 A'   11 A'   12 A'   13 A'   14 A'   15 A'   16 A'                 
 -0.700  -0.654  -0.601  -0.581  -0.543  -0.539  -0.538  -0.518
 17 A'   18 A'   19 A'   20 A'   21 A'   22 A'    1 A"   23 A'                 
 -0.500  -0.457  -0.439  -0.439  -0.384  -0.305  -0.295
 24 A'   25 A'    2 A"   26 A'    3 A"    4 A"    5 A"                         
 -- Virtual --                   
  0.052   0.066   0.084   0.088   0.095   0.101   0.104   0.120
  6 A"   27 A'   28 A'   29 A'    7 A"   30 A'   31 A'    8 A"                 
  0.126   0.129   0.131   0.135   0.154   0.160   0.167   0.169
 32 A'   33 A'    9 A"   34 A'   10 A"   11 A"   35 A'   36 A'                 
  0.181   0.195   0.207   0.208   0.221   0.226   0.234   0.238
 37 A'   12 A"   13 A"   38 A'   39 A'   14 A"   40 A'   41 A'                 
  0.238   0.255   0.256   0.259   0.266   0.271   0.273   0.285
 15 A"   42 A'   43 A'   16 A"   44 A'   45 A'   46 A'   17 A"                 
  0.288   0.298   0.301   0.308   0.310   0.314   0.328   0.333
 47 A'   48 A'   49 A'   50 A'   18 A"   51 A'   52 A'   53 A'                 
  0.339   0.345   0.365   0.371   0.384   0.394   0.397   0.411
 54 A'   55 A'   56 A'   57 A'   58 A'   59 A'   60 A'   61 A'                 
  0.428   0.456   0.464   0.487   0.527   0.549   0.611   0.669
 62 A'   63 A'   64 A'   65 A'   66 A'   67 A'   68 A'   69 A'                 
  0.705   0.778   0.778   0.803   0.812   0.825   0.839   0.842
 70 A'   71 A'   19 A"   20 A"   72 A'   21 A"   73 A'   22 A"                 
  0.842   0.857   0.860   0.881   0.896   0.899   0.920   0.956
 74 A'   23 A"   75 A'   24 A"   25 A"   76 A'   77 A'   26 A"                 
  0.999   1.009   1.020   1.046   1.053   1.061   1.069   1.094
 78 A'   79 A'   80 A'   81 A'   82 A'   83 A'   27 A"   84 A'                 
  1.103   1.137   1.157   1.173   1.197   1.218   1.222   1.274
 85 A'   86 A'   87 A'   88 A'   89 A'   90 A'   91 A'   92 A'                 
  1.285   1.310   1.329   1.343   1.351   1.420   1.430   1.449
 93 A'   94 A'   95 A'   28 A"   96 A'   97 A'   29 A"   30 A"                 
  1.471   1.510   1.516   1.543   1.570   1.579   1.603   1.604
 98 A'   99 A'   31 A"  100 A'   32 A"   33 A"   34 A"   35 A"                 
  1.641   1.695   1.749   1.895   1.933   1.986   1.996   2.014
101 A'  102 A'  103 A'  104 A'  105 A'  106 A'   36 A"  107 A'                 
  2.035   2.096   2.102   2.112   2.150   2.160   2.229   2.244
108 A'  109 A'  110 A'   37 A"  111 A'  112 A'  113 A'  114 A'                 
  2.256   2.301   2.336   2.344   2.369   2.371   2.407   2.473
 38 A"  115 A'   39 A"   40 A"  116 A'   41 A"  117 A'   42 A"                 
  2.515   2.547   2.645   2.656   2.729   2.738   2.755   2.786
 43 A"  118 A'  119 A'   44 A"  120 A'   45 A"  121 A'  122 A'                 
  2.823   2.898   2.937   2.946   3.067   3.074   3.202   3.335
123 A'  124 A'  125 A'  126 A'  127 A'  128 A'  129 A'  130 A'                 
  3.492   4.257   4.361   4.410   4.442   4.478   4.515   4.596
131 A'  132 A'  133 A'  134 A'  135 A'  136 A'  137 A'  138 A'                 
  4.637   4.886
139 A'  140 A'                                                                 
 --------------------------------------------------------------

          Ground-State Mulliken Net Atomic Charges

     Atom                 Charge (a.u.)
  ----------------------------------------
      1 C                    -0.074049
      2 C                    -0.395240
      3 C                    -0.140137
      4 C                    -0.633462
      5 N                    -0.560522
      6 H                     0.429439
      7 C                    -0.239233
      8 C                     0.098245
      9 C                     0.804884
     10 C                    -0.529796
     11 H                     0.193432
     12 H                     0.199407
     13 H                     0.204109
     14 H                     0.218967
     15 H                     0.216021
     16 H                     0.207934
  ----------------------------------------
  Sum of atomic charges =     0.000000

 -----------------------------------------------------------------
                    Cartesian Multipole Moments
 -----------------------------------------------------------------
    Charge (ESU x 10^10)
                 0.0000
    Dipole Moment (Debye)
         X      -1.6012      Y       1.5163      Z      -0.0000
       Tot       2.2052
    Quadrupole Moments (Debye-Ang)
        XX     -44.8492     XY      -2.9759     YY     -43.9278
        XZ       0.0000     YZ       0.0000     ZZ     -59.1920
    Octopole Moments (Debye-Ang^2)
       XXX     -15.8160    XXY       8.4916    XYY      -7.6961
       YYY      10.1367    XXZ      -0.0000    XYZ      -0.0000
       YYZ       0.0000    XZZ      -2.3630    YZZ       2.0080
       ZZZ       0.0000
    Hexadecapole Moments (Debye-Ang^3)
      XXXX    -811.7124   XXXY     -22.1543   XXYY    -198.1950
      XYYY     -21.7777   YYYY    -373.6057   XXXZ       0.0000
      XXYZ       0.0000   XYYZ      -0.0000   YYYZ      -0.0000
      XXZZ    -191.2726   XYZZ      -4.7084   YYZZ     -95.7659
      XZZZ      -0.0000   YZZZ       0.0000   ZZZZ     -72.9996
 -----------------------------------------------------------------
Archival summary:
1\1\WKENNERL-11804\OPT\ProcedureUnspecified\6-31+G*\187\scaparas\ThuJun311:05:392021ThuJun311:05:392021\0\\#,OPT,ProcedureUnspecified,6-31+G*,\\0,1\C\N,1,1.35776\H,2,1.00858,1,124.719\C,2,1.40658,1,110.831,3,-180,0\H,4,1.08078,2,120.5,1,-180,0\C,4,1.36986,2,108.228,1,-0,0\H,6,1.08267,4,125.608,2,-180,0\C,1,1.41336,2,130.155,3,-0,0\H,8,1.08585,1,121.847,2,-0,0\C,8,1.41486,1,116.332,2,-180,0\H,10,1.0855,8,119.905,1,-180,0\C,10,1.42257,8,120.921,1,-0,0\H,12,1.08691,10,118.561,8,-180,0\C,12,1.42194,10,122.673,8,-0,0\H,14,1.08552,12,120.702,10,-180,0\C,14,1.40864,12,117.794,10,-0,0\\\@
 
 Total job time:  2589.04s(wall), 4456.48s(cpu) 
 Thu Jun  3 11:05:39 2021

        *************************************************************
        *                                                           *
        *  Thank you very much for using Q-Chem.  Have a nice day.  *
        *                                                           *
        *************************************************************


