 Entering Gaussian System, Link 0=/cm/shared/apps/spack/cpu/opt/spack/linux-centos8-zen/gcc-8.3.1/gaussian-16.C.01-po5bqktfeugvmjyga3v7eigbecnokxng/g16/g16
 Initial command:
 /cm/shared/apps/spack/cpu/opt/spack/linux-centos8-zen/gcc-8.3.1/gaussian-16.C.01-po5bqktfeugvmjyga3v7eigbecnokxng/g16/l1.exe "/scratch/scaparas/job_3351585/Gau-59233.inp" -scrdir="/scratch/scaparas/job_3351585/"
 Entering Link 1 = /cm/shared/apps/spack/cpu/opt/spack/linux-centos8-zen/gcc-8.3.1/gaussian-16.C.01-po5bqktfeugvmjyga3v7eigbecnokxng/g16/l1.exe PID=     59234.
  
 Copyright (c) 1988-2019, Gaussian, Inc.  All Rights Reserved.
  
 This is part of the Gaussian(R) 16 program.  It is based on
 the Gaussian(R) 09 system (copyright 2009, Gaussian, Inc.),
 the Gaussian(R) 03 system (copyright 2003, Gaussian, Inc.),
 the Gaussian(R) 98 system (copyright 1998, Gaussian, Inc.),
 the Gaussian(R) 94 system (copyright 1995, Gaussian, Inc.),
 the Gaussian 92(TM) system (copyright 1992, Gaussian, Inc.),
 the Gaussian 90(TM) system (copyright 1990, Gaussian, Inc.),
 the Gaussian 88(TM) system (copyright 1988, Gaussian, Inc.),
 the Gaussian 86(TM) system (copyright 1986, Carnegie Mellon
 University), and the Gaussian 82(TM) system (copyright 1983,
 Carnegie Mellon University). Gaussian is a federally registered
 trademark of Gaussian, Inc.
  
 This software contains proprietary and confidential information,
 including trade secrets, belonging to Gaussian, Inc.
  
 This software is provided under written license and may be
 used, copied, transmitted, or stored only in accord with that
 written license.
  
 The following legend is applicable only to US Government
 contracts under FAR:
  
                    RESTRICTED RIGHTS LEGEND
  
 Use, reproduction and disclosure by the US Government is
 subject to restrictions as set forth in subparagraphs (a)
 and (c) of the Commercial Computer Software - Restricted
 Rights clause in FAR 52.227-19.
  
 Gaussian, Inc.
 340 Quinnipiac St., Bldg. 40, Wallingford CT 06492
  
  
 ---------------------------------------------------------------
 Warning -- This program may not be used in any manner that
 competes with the business of Gaussian, Inc. or will provide
 assistance to any competitor of Gaussian, Inc.  The licensee
 of this program is prohibited from giving any competitor of
 Gaussian, Inc. access to this program.  By using this program,
 the user acknowledges that Gaussian, Inc. is engaged in the
 business of creating and licensing software in the field of
 computational chemistry and represents and warrants to the
 licensee that it is not a competitor of Gaussian, Inc. and that
 it will not use this program in any manner prohibited above.
 ---------------------------------------------------------------
  

 Cite this work as:
 Gaussian 16, Revision C.01,
 M. J. Frisch, G. W. Trucks, H. B. Schlegel, G. E. Scuseria, 
 M. A. Robb, J. R. Cheeseman, G. Scalmani, V. Barone, 
 G. A. Petersson, H. Nakatsuji, X. Li, M. Caricato, A. V. Marenich, 
 J. Bloino, B. G. Janesko, R. Gomperts, B. Mennucci, H. P. Hratchian, 
 J. V. Ortiz, A. F. Izmaylov, J. L. Sonnenberg, D. Williams-Young, 
 F. Ding, F. Lipparini, F. Egidi, J. Goings, B. Peng, A. Petrone, 
 T. Henderson, D. Ranasinghe, V. G. Zakrzewski, J. Gao, N. Rega, 
 G. Zheng, W. Liang, M. Hada, M. Ehara, K. Toyota, R. Fukuda, 
 J. Hasegawa, M. Ishida, T. Nakajima, Y. Honda, O. Kitao, H. Nakai, 
 T. Vreven, K. Throssell, J. A. Montgomery, Jr., J. E. Peralta, 
 F. Ogliaro, M. J. Bearpark, J. J. Heyd, E. N. Brothers, K. N. Kudin, 
 V. N. Staroverov, T. A. Keith, R. Kobayashi, J. Normand, 
 K. Raghavachari, A. P. Rendell, J. C. Burant, S. S. Iyengar, 
 J. Tomasi, M. Cossi, J. M. Millam, M. Klene, C. Adamo, R. Cammi, 
 J. W. Ochterski, R. L. Martin, K. Morokuma, O. Farkas, 
 J. B. Foresman, and D. J. Fox, Gaussian, Inc., Wallingford CT, 2019.
 
 ******************************************
 Gaussian 16:  AS64L-G16RevC.01  3-Jul-2019
                11-Jun-2021 
 ******************************************
 %nprocshared=4
 Will use up to    4 processors via shared memory.
 %chk=FuncsCAM-B3LYPII1st.chk
 %Mem=3GB
 ---------------------------------------------------------------
 # td= (nstates=6, root=1) CAM-B3LYP/6-31+G* Opt density=current
 ---------------------------------------------------------------
 1/18=20,19=15,26=3,38=1/1,3;
 2/9=110,12=2,17=6,18=5,40=1/2;
 3/5=1,6=6,7=11,11=9,25=1,30=1,71=1,74=-40/1,2,3,8;
 4//1;
 5/5=2,38=5/2;
 8/6=1,10=2,107=1,108=6/1;
 9/8=1,15=2,41=6,42=1,70=2/14;
 10/5=4,28=1/2;
 6/7=2,8=2,9=2,10=2,22=-1/1;
 7/12=6,13=5,14=1/1,2,3,16;
 1/18=20,19=15,26=3/3(2);
 2/9=110/2;
 99//99;
 2/9=110/2;
 3/5=1,6=6,7=11,11=9,25=1,30=1,71=1,74=-40/1,2,3,8;
 4/5=5,16=3,69=1/1;
 5/5=2,38=5/2;
 8/6=1,10=2,107=1,108=6/1;
 9/8=1,15=2,41=6,42=1,49=4,70=2/14;
 10/5=4,28=1/2;
 7/12=6,13=5,14=1/1,2,3,16;
 1/18=20,19=15,26=3/3(-8);
 2/9=110/2;
 6/7=2,8=2,9=2,10=2,22=-1/1;
 99/9=10/99;
 -------------------
 FuncsCAM-B3LYPII1st
 -------------------
 Symbolic Z-matrix:
 Charge =  0 Multiplicity = 1
 C                    -2.15106   0.68921   0.00009 
 C                    -2.12793  -0.71582   0.00008 
 C                    -0.9323   -1.4131   -0.00001 
 C                     0.24691  -0.6702   -0.00004 
 C                     0.24819   0.7483    0. 
 C                    -0.97947   1.42353   0.00003 
 N                     1.56177  -1.07759  -0.00029 
 C                     1.62013   1.1629   -0.00016 
 C                     2.38201   0.03081   0.00025 
 H                     1.87632  -2.03001   0.00044 
 H                     1.99217   2.17301  -0.00035 
 H                     3.45255  -0.08243   0.00041 
 H                    -3.06159  -1.26202   0.00009 
 H                    -0.91725  -2.49534  -0.00007 
 H                    -3.1042    1.20079   0.00009 
 H                    -1.00935   2.50542  -0.00002 
 

 GradGradGradGradGradGradGradGradGradGradGradGradGradGradGradGradGradGrad
 Berny optimization.
 Initialization pass.
                           ----------------------------
                           !    Initial Parameters    !
                           ! (Angstroms and Degrees)  !
 --------------------------                            --------------------------
 ! Name  Definition              Value          Derivative Info.                !
 --------------------------------------------------------------------------------
 ! R1    R(1,2)                  1.4052         estimate D2E/DX2                !
 ! R2    R(1,6)                  1.3827         estimate D2E/DX2                !
 ! R3    R(1,15)                 1.0818         estimate D2E/DX2                !
 ! R4    R(2,3)                  1.3841         estimate D2E/DX2                !
 ! R5    R(2,13)                 1.0817         estimate D2E/DX2                !
 ! R6    R(3,4)                  1.3937         estimate D2E/DX2                !
 ! R7    R(3,14)                 1.0823         estimate D2E/DX2                !
 ! R8    R(4,5)                  1.4185         estimate D2E/DX2                !
 ! R9    R(4,7)                  1.3765         estimate D2E/DX2                !
 ! R10   R(5,6)                  1.4011         estimate D2E/DX2                !
 ! R11   R(5,8)                  1.4332         estimate D2E/DX2                !
 ! R12   R(6,16)                 1.0823         estimate D2E/DX2                !
 ! R13   R(7,9)                  1.3789         estimate D2E/DX2                !
 ! R14   R(7,10)                 1.003          estimate D2E/DX2                !
 ! R15   R(8,9)                  1.3646         estimate D2E/DX2                !
 ! R16   R(8,11)                 1.0764         estimate D2E/DX2                !
 ! R17   R(9,12)                 1.0765         estimate D2E/DX2                !
 ! A1    A(2,1,6)              121.1349         estimate D2E/DX2                !
 ! A2    A(2,1,15)             119.1671         estimate D2E/DX2                !
 ! A3    A(6,1,15)             119.698          estimate D2E/DX2                !
 ! A4    A(1,2,3)              121.1938         estimate D2E/DX2                !
 ! A5    A(1,2,13)             119.3846         estimate D2E/DX2                !
 ! A6    A(3,2,13)             119.4217         estimate D2E/DX2                !
 ! A7    A(2,3,4)              117.5387         estimate D2E/DX2                !
 ! A8    A(2,3,14)             121.0469         estimate D2E/DX2                !
 ! A9    A(4,3,14)             121.4144         estimate D2E/DX2                !
 ! A10   A(3,4,5)              122.2626         estimate D2E/DX2                !
 ! A11   A(3,4,7)              130.5743         estimate D2E/DX2                !
 ! A12   A(5,4,7)              107.163          estimate D2E/DX2                !
 ! A13   A(4,5,6)              118.7594         estimate D2E/DX2                !
 ! A14   A(4,5,8)              106.8666         estimate D2E/DX2                !
 ! A15   A(6,5,8)              134.374          estimate D2E/DX2                !
 ! A16   A(1,6,5)              119.1105         estimate D2E/DX2                !
 ! A17   A(1,6,16)             120.4966         estimate D2E/DX2                !
 ! A18   A(5,6,16)             120.3928         estimate D2E/DX2                !
 ! A19   A(4,7,9)              109.2874         estimate D2E/DX2                !
 ! A20   A(4,7,10)             125.4909         estimate D2E/DX2                !
 ! A21   A(9,7,10)             125.2217         estimate D2E/DX2                !
 ! A22   A(5,8,9)              107.125          estimate D2E/DX2                !
 ! A23   A(5,8,11)             127.0344         estimate D2E/DX2                !
 ! A24   A(9,8,11)             125.8405         estimate D2E/DX2                !
 ! A25   A(7,9,8)              109.5578         estimate D2E/DX2                !
 ! A26   A(7,9,12)             120.4645         estimate D2E/DX2                !
 ! A27   A(8,9,12)             129.9776         estimate D2E/DX2                !
 ! D1    D(6,1,2,3)             -0.0008         estimate D2E/DX2                !
 ! D2    D(6,1,2,13)          -179.9981         estimate D2E/DX2                !
 ! D3    D(15,1,2,3)           179.996          estimate D2E/DX2                !
 ! D4    D(15,1,2,13)           -0.0013         estimate D2E/DX2                !
 ! D5    D(2,1,6,5)             -0.0018         estimate D2E/DX2                !
 ! D6    D(2,1,6,16)           179.9965         estimate D2E/DX2                !
 ! D7    D(15,1,6,5)          -179.9986         estimate D2E/DX2                !
 ! D8    D(15,1,6,16)           -0.0003         estimate D2E/DX2                !
 ! D9    D(1,2,3,4)              0.002          estimate D2E/DX2                !
 ! D10   D(1,2,3,14)          -179.9968         estimate D2E/DX2                !
 ! D11   D(13,2,3,4)           179.9992         estimate D2E/DX2                !
 ! D12   D(13,2,3,14)            0.0005         estimate D2E/DX2                !
 ! D13   D(2,3,4,5)             -0.0005         estimate D2E/DX2                !
 ! D14   D(2,3,4,7)           -179.9911         estimate D2E/DX2                !
 ! D15   D(14,3,4,5)           179.9982         estimate D2E/DX2                !
 ! D16   D(14,3,4,7)             0.0076         estimate D2E/DX2                !
 ! D17   D(3,4,5,6)             -0.002          estimate D2E/DX2                !
 ! D18   D(3,4,5,8)           -179.9955         estimate D2E/DX2                !
 ! D19   D(7,4,5,6)            179.9905         estimate D2E/DX2                !
 ! D20   D(7,4,5,8)             -0.003          estimate D2E/DX2                !
 ! D21   D(3,4,7,9)           -179.98           estimate D2E/DX2                !
 ! D22   D(3,4,7,10)            -0.0649         estimate D2E/DX2                !
 ! D23   D(5,4,7,9)              0.0284         estimate D2E/DX2                !
 ! D24   D(5,4,7,10)           179.9434         estimate D2E/DX2                !
 ! D25   D(4,5,6,1)              0.0031         estimate D2E/DX2                !
 ! D26   D(4,5,6,16)          -179.9951         estimate D2E/DX2                !
 ! D27   D(8,5,6,1)            179.9944         estimate D2E/DX2                !
 ! D28   D(8,5,6,16)            -0.0038         estimate D2E/DX2                !
 ! D29   D(4,5,8,9)             -0.0234         estimate D2E/DX2                !
 ! D30   D(4,5,8,11)           179.9883         estimate D2E/DX2                !
 ! D31   D(6,5,8,9)            179.9846         estimate D2E/DX2                !
 ! D32   D(6,5,8,11)            -0.0037         estimate D2E/DX2                !
 ! D33   D(4,7,9,8)             -0.0444         estimate D2E/DX2                !
 ! D34   D(4,7,9,12)           179.9847         estimate D2E/DX2                !
 ! D35   D(10,7,9,8)          -179.9597         estimate D2E/DX2                !
 ! D36   D(10,7,9,12)            0.0693         estimate D2E/DX2                !
 ! D37   D(5,8,9,7)              0.0414         estimate D2E/DX2                !
 ! D38   D(5,8,9,12)          -179.9913         estimate D2E/DX2                !
 ! D39   D(11,8,9,7)          -179.9702         estimate D2E/DX2                !
 ! D40   D(11,8,9,12)           -0.0029         estimate D2E/DX2                !
 --------------------------------------------------------------------------------
 Trust Radius=3.00D-01 FncErr=1.00D-07 GrdErr=1.00D-06 EigMax=2.50D+02 EigMin=1.00D-04
 Number of steps in this run=     94 maximum allowed number of steps=    100.
 GradGradGradGradGradGradGradGradGradGradGradGradGradGradGradGradGradGrad

                          Input orientation:                          
 ---------------------------------------------------------------------
 Center     Atomic      Atomic             Coordinates (Angstroms)
 Number     Number       Type             X           Y           Z
 ---------------------------------------------------------------------
      1          6           0       -2.151063    0.689208    0.000088
      2          6           0       -2.127927   -0.715818    0.000075
      3          6           0       -0.932297   -1.413100   -0.000011
      4          6           0        0.246911   -0.670201   -0.000042
      5          6           0        0.248193    0.748299    0.000000
      6          6           0       -0.979474    1.423526    0.000032
      7          7           0        1.561774   -1.077592   -0.000285
      8          6           0        1.620133    1.162900   -0.000157
      9          6           0        2.382013    0.030806    0.000248
     10          1           0        1.876315   -2.030011    0.000438
     11          1           0        1.992173    2.173010   -0.000348
     12          1           0        3.452549   -0.082425    0.000408
     13          1           0       -3.061594   -1.262020    0.000088
     14          1           0       -0.917252   -2.495342   -0.000073
     15          1           0       -3.104203    1.200785    0.000090
     16          1           0       -1.009348    2.505421   -0.000015
 ---------------------------------------------------------------------
                    Distance matrix (angstroms):
                    1          2          3          4          5
     1  C    0.000000
     2  C    1.405216   0.000000
     3  C    2.430039   1.384100   0.000000
     4  C    2.756496   2.375276   1.393711   0.000000
     5  C    2.399984   2.790983   2.462763   1.418501   0.000000
     6  C    1.382694   2.428114   2.837018   2.426461   1.401106
     7  N    4.111781   3.707395   2.516536   1.376529   2.249305
     8  C    3.800829   4.192557   3.626386   2.290414   1.433218
     9  C    4.580641   4.571324   3.615178   2.247236   2.251218
    10  H    4.859416   4.214387   2.875566   2.122273   3.220216
    11  H    4.400917   5.031953   4.627387   3.336134   2.251948
    12  H    5.656491   5.616307   4.582311   3.259079   3.310287
    13  H    2.153220   1.081698   2.134650   3.361020   3.872476
    14  H    3.415208   2.152310   1.082347   2.164813   3.446661
    15  H    1.081752   2.150926   3.398466   3.838040   3.382795
    16  H    2.145261   3.409927   3.919278   3.415079   2.160761
                    6          7          8          9         10
     6  C    0.000000
     7  N    3.565604   0.000000
     8  C    2.612639   2.241252   0.000000
     9  C    3.638580   1.378890   1.364587   0.000000
    10  H    4.481345   1.003015   3.203172   2.121956   0.000000
    11  H    3.064704   3.278972   1.076446   2.177387   4.204618
    12  H    4.680888   2.136677   2.215532   1.076508   2.505515
    13  H    3.398144   4.627045   5.272457   5.595021   4.997275
    14  H    3.919362   2.855798   4.452085   4.155307   2.832058
    15  H    2.136372   5.192528   4.724488   5.609583   5.936632
    16  H    1.082307   4.410062   2.952378   4.198220   5.375611
                   11         12         13         14         15
    11  H    0.000000
    12  H    2.686947   0.000000
    13  H    6.110646   6.620083   0.000000
    14  H    5.500751   4.991726   2.473719   0.000000
    15  H    5.188282   6.681139   2.463174   4.294661   0.000000
    16  H    3.019872   5.158049   4.290143   5.001611   2.467892
                   16
    16  H    0.000000
 Stoichiometry    C8H7N
 Framework group  C1[X(C8H7N)]
 Deg. of freedom    42
 Full point group                 C1      NOp   1
 Largest Abelian subgroup         C1      NOp   1
 Largest concise Abelian subgroup C1      NOp   1
                         Standard orientation:                         
 ---------------------------------------------------------------------
 Center     Atomic      Atomic             Coordinates (Angstroms)
 Number     Number       Type             X           Y           Z
 ---------------------------------------------------------------------
      1          6           0       -2.151063    0.689208    0.000088
      2          6           0       -2.127927   -0.715818    0.000075
      3          6           0       -0.932297   -1.413100   -0.000011
      4          6           0        0.246911   -0.670201   -0.000042
      5          6           0        0.248193    0.748299    0.000000
      6          6           0       -0.979474    1.423526    0.000032
      7          7           0        1.561774   -1.077592   -0.000285
      8          6           0        1.620133    1.162900   -0.000157
      9          6           0        2.382013    0.030806    0.000248
     10          1           0        1.876315   -2.030011    0.000438
     11          1           0        1.992173    2.173010   -0.000348
     12          1           0        3.452549   -0.082425    0.000408
     13          1           0       -3.061594   -1.262020    0.000088
     14          1           0       -0.917252   -2.495342   -0.000073
     15          1           0       -3.104203    1.200785    0.000090
     16          1           0       -1.009348    2.505421   -0.000015
 ---------------------------------------------------------------------
 Rotational constants (GHZ):           3.9080822           1.6429452           1.1566805
 Standard basis: 6-31+G(d) (6D, 7F)
 There are   185 symmetry adapted cartesian basis functions of A   symmetry.
 There are   185 symmetry adapted basis functions of A   symmetry.
   185 basis functions,   316 primitive gaussians,   185 cartesian basis functions
    31 alpha electrons       31 beta electrons
       nuclear repulsion energy       401.3368668897 Hartrees.
 NAtoms=   16 NActive=   16 NUniq=   16 SFac= 1.00D+00 NAtFMM=   60 NAOKFM=F Big=F
 Integral buffers will be    131072 words long.
 Raffenetti 1 integral format.
 Two-electron integral symmetry is turned on.
 One-electron integrals computed using PRISM.
 NBasis=   185 RedAO= T EigKep=  1.26D-06  NBF=   185
 NBsUse=   185 1.00D-06 EigRej= -1.00D+00 NBFU=   185
 ExpMin= 4.38D-02 ExpMax= 4.17D+03 ExpMxC= 6.27D+02 IAcc=3 IRadAn=         5 AccDes= 0.00D+00
 Harris functional with IExCor=20419 and IRadAn=       5 diagonalized for initial guess.
 HarFok:  IExCor=20419 AccDes= 0.00D+00 IRadAn=         5 IDoV= 1 UseB2=F ITyADJ=14
 ICtDFT=  3500011 ScaDFX=  1.000000  1.000000  1.000000  1.000000
 FoFCou: FMM=F IPFlag=           0 FMFlag=      100000 FMFlg1=           0
         NFxFlg=           0 DoJE=T BraDBF=F KetDBF=T FulRan=T
         wScrn=  0.000000 ICntrl=       500 IOpCl=  0 I1Cent=   200000004 NGrid=           0
         NMat0=    1 NMatS0=      1 NMatT0=    0 NMatD0=    1 NMtDS0=    0 NMtDT0=    0
 Petite list used in FoFCou.
 Keep R1 ints in memory in canonical form, NReq=303303409.
 Requested convergence on RMS density matrix=1.00D-08 within 128 cycles.
 Requested convergence on MAX density matrix=1.00D-06.
 Requested convergence on             energy=1.00D-06.
 No special actions if energy rises.
 SCF Done:  E(RCAM-B3LYP) =  -363.624676885     A.U. after   15 cycles
            NFock= 15  Conv=0.49D-08     -V/T= 2.0091
 DoSCS=F DFT=T ScalE2(SS,OS)=  1.000000  1.000000
 ExpMin= 4.38D-02 ExpMax= 4.17D+03 ExpMxC= 6.27D+02 IAcc=3 IRadAn=         5 AccDes= 0.00D+00
 HarFok:  IExCor=  205 AccDes= 0.00D+00 IRadAn=         5 IDoV=-2 UseB2=F ITyADJ=14
 ICtDFT= 12500011 ScaDFX=  1.000000  1.000000  1.000000  1.000000
 Range of M.O.s used for correlation:    10   185
 NBasis=   185 NAE=    31 NBE=    31 NFC=     9 NFV=     0
 NROrb=    176 NOA=    22 NOB=    22 NVA=   154 NVB=   154

 **** Warning!!: The largest alpha MO coefficient is  0.20756584D+03

 Orbital symmetries:
       Occupied  (A) (A) (A) (A) (A) (A) (A) (A) (A) (A) (A) (A)
                 (A) (A) (A) (A) (A) (A) (A) (A) (A) (A) (A) (A)
                 (A) (A) (A) (A) (A) (A) (A)
       Virtual   (A) (A) (A) (A) (A) (A) (A) (A) (A) (A) (A) (A)
                 (A) (A) (A) (A) (A) (A) (A) (A) (A) (A) (A) (A)
                 (A) (A) (A) (A) (A) (A) (A) (A) (A) (A) (A) (A)
                 (A) (A) (A) (A) (A) (A) (A) (A) (A) (A) (A) (A)
                 (A) (A) (A) (A) (A) (A) (A) (A) (A) (A) (A) (A)
                 (A) (A) (A) (A) (A) (A) (A) (A) (A) (A) (A) (A)
                 (A) (A) (A) (A) (A) (A) (A) (A) (A) (A) (A) (A)
                 (A) (A) (A) (A) (A) (A) (A) (A) (A) (A) (A) (A)
                 (A) (A) (A) (A) (A) (A) (A) (A) (A) (A) (A) (A)
                 (A) (A) (A) (A) (A) (A) (A) (A) (A) (A) (A) (A)
                 (A) (A) (A) (A) (A) (A) (A) (A) (A) (A) (A) (A)
                 (A) (A) (A) (A) (A) (A) (A) (A) (A) (A) (A) (A)
                 (A) (A) (A) (A) (A) (A) (A) (A) (A) (A)
    24 initial guesses have been made.
 Convergence on wavefunction:    0.000001000000000
 Iteration     1 Dimension    24 NMult     0 NNew     24
 CISAX will form    24 AO SS matrices at one time.
 New state      2 was old state      4
 New state      3 was old state      2
 New state      4 was old state      3
 Iteration     2 Dimension    36 NMult    24 NNew     12
 New state      1 was old state      2
 New state      2 was old state      3
 New state      3 was old state      1
 Iteration     3 Dimension    48 NMult    36 NNew     12
 Iteration     4 Dimension    60 NMult    48 NNew     12
 Iteration     5 Dimension    72 NMult    60 NNew     12
 Iteration     6 Dimension    84 NMult    72 NNew     12
 Iteration     7 Dimension    96 NMult    84 NNew     12
 Iteration     8 Dimension   108 NMult    96 NNew     12
 Iteration     9 Dimension   120 NMult   108 NNew     12
 Iteration    10 Dimension   126 NMult   120 NNew      6
 Iteration    11 Dimension   130 NMult   126 NNew      4
 ***********************************************************************
 Excited states from <AA,BB:AA,BB> singles matrix:
 ***********************************************************************
 
 Ground to excited state transition densities written to RWF  633
 Ground to excited state transition electric dipole moments (Au):
       state          X           Y           Z        Dip. S.      Osc.
         1        -0.0609      0.6010     -0.0001      0.3649      0.0452
         2         0.8731     -0.3508      0.0003      0.8854      0.1107
         3         0.0011     -0.0008     -0.1552      0.0241      0.0031
         4        -0.0005     -0.0000     -0.1658      0.0275      0.0039
         5         0.0005     -0.0000     -0.0108      0.0001      0.0000
         6         0.0010      0.0003      0.1219      0.0149      0.0022
 Ground to excited state transition velocity dipole moments (Au):
       state          X           Y           Z        Dip. S.      Osc.
         1         0.0077     -0.1193      0.0000      0.0143      0.0512
         2        -0.1524      0.0711     -0.0000      0.0283      0.1005
         3        -0.0002      0.0002      0.0202      0.0004      0.0014
         4         0.0001      0.0000      0.0368      0.0014      0.0042
         5        -0.0001     -0.0000      0.0027      0.0000      0.0000
         6        -0.0002     -0.0001     -0.0267      0.0007      0.0022
 Ground to excited state transition magnetic dipole moments (Au):
       state          X           Y           Z
         1         0.0003      0.0001      0.1759
         2        -0.0002      0.0003     -0.0518
         3         0.1421     -0.0938     -0.0001
         4         0.0898     -0.3078     -0.0001
         5         0.2953     -0.2529      0.0002
         6         0.2520      0.3539      0.0008
 Ground to excited state transition velocity quadrupole moments (Au):
       state          XX          YY          ZZ          XY          XZ          YZ
         1         0.1280     -0.0197     -0.0051      0.0270      0.0000      0.0001
         2        -0.2097      0.1810     -0.0299     -0.0041     -0.0002     -0.0001
         3        -0.0004      0.0002      0.0001     -0.0000      0.0804      0.0670
         4         0.0000      0.0000      0.0000     -0.0000      0.2233      0.0318
         5        -0.0003      0.0000      0.0000      0.0002      0.2982      0.2951
         6        -0.0000     -0.0001      0.0001      0.0005     -0.2877      0.1299
 <0|del|b> * <b|rxdel|0> + <0|del|b> * <b|delr+rdel|0>
 Rotatory Strengths (R) in cgs (10**-40 erg-esu-cm/Gauss)
       state          XX          YY          ZZ    R(velocity)    E-M Angle
         1        -0.0001      0.0086     -0.0181     -0.0032       90.00
         2         0.0743      0.0969      0.0599      0.0770       90.00
         3        -0.0566     -0.0762     -0.0308     -0.0545       90.00
         4        -0.0076      0.0170      0.0100      0.0065       90.00
         5         0.0048     -0.1094     -0.0003     -0.0350       90.00
         6        -0.1091     -0.1434     -0.0468     -0.0998       90.00
 1/2[<0|r|b>*<b|rxdel|0> + (<0|rxdel|b>*<b|r|0>)*]
 Rotatory Strengths (R) in cgs (10**-40 erg-esu-cm/Gauss)
       state          XX          YY          ZZ     R(length)
         1         0.0130     -0.0231      0.0118      0.0006
         2         0.1537      0.0735      0.0111      0.0794
         3        -0.1134     -0.0537     -0.0076     -0.0582
         4         0.0304     -0.0045     -0.0107      0.0051
         5        -0.1125     -0.0008      0.0014     -0.0373
         6        -0.1802     -0.0754     -0.0698     -0.1085
  1/2[<0|del|b>*<b|r|0> + (<0|r|b>*<b|del|0>)*] (Au)
       state          X           Y           Z        Dip. S.   Osc.(frdel)
         1        -0.0005     -0.0717     -0.0000      0.0721      0.0481
         2        -0.1331     -0.0249     -0.0000      0.1580      0.1054
         3        -0.0000     -0.0000     -0.0031      0.0031      0.0021
         4        -0.0000     -0.0000     -0.0061      0.0061      0.0041
         5        -0.0000      0.0000     -0.0000      0.0000      0.0000
         6        -0.0000     -0.0000     -0.0033      0.0033      0.0022

 Excitation energies and oscillator strengths:
 
 Excited State   1:      Singlet-A      5.0595 eV  245.05 nm  f=0.0452  <S**2>=0.000
      30 -> 33         0.47238
      30 -> 37         0.12346
      31 -> 33        -0.42030
      31 -> 37         0.25318
 This state for optimization and/or second-order correction.
 Total Energy, E(TD-HF/TD-DFT) =  -363.438742952    
 Copying the excited state density for this state as the 1-particle RhoCI density.
 
 Excited State   2:      Singlet-A      5.1055 eV  242.85 nm  f=0.1107  <S**2>=0.000
      30 -> 33         0.34978
      30 -> 37        -0.14764
      31 -> 33         0.52274
      31 -> 37         0.26063
 
 Excited State   3:      Singlet-A      5.2852 eV  234.59 nm  f=0.0031  <S**2>=0.000
      31 -> 32         0.68599
 
 Excited State   4:      Singlet-A      5.7774 eV  214.60 nm  f=0.0039  <S**2>=0.000
      30 -> 32         0.64403
      31 -> 34         0.19448
 
 Excited State   5:      Singlet-A      5.9441 eV  208.59 nm  f=0.0000  <S**2>=0.000
      30 -> 32        -0.21098
      31 -> 34         0.62203
      31 -> 35        -0.17443
 
 Excited State   6:      Singlet-A      5.9906 eV  206.96 nm  f=0.0022  <S**2>=0.000
      31 -> 34         0.18522
      31 -> 35         0.63881
      31 -> 36         0.11632
 SavETr:  write IOETrn=   770 NScale= 10 NData=  16 NLR=1 NState=    6 LETran=     118.
          IDoAtm=1111111111111111
          Differentiating once with respect to electric field.
                with respect to dipole field.
          Differentiating once with respect to nuclear coordinates.
 Keep R1 ints in memory in canonical form, NReq=303315801.
          There are     1 degrees of freedom in the 1st order CPHF.  IDoFFX=0 NUNeed=     1.
 LinEq1:  Iter=  0 NonCon=     1 RMS=4.88D-03 Max=1.08D-01 NDo=     1
 AX will form     1 AO Fock derivatives at one time.
 LinEq1:  Iter=  1 NonCon=     1 RMS=1.97D-03 Max=4.73D-02 NDo=     1
 LinEq1:  Iter=  2 NonCon=     1 RMS=1.10D-03 Max=2.21D-02 NDo=     1
 LinEq1:  Iter=  3 NonCon=     1 RMS=5.24D-04 Max=1.86D-02 NDo=     1
 LinEq1:  Iter=  4 NonCon=     1 RMS=2.52D-04 Max=7.19D-03 NDo=     1
 LinEq1:  Iter=  5 NonCon=     1 RMS=1.50D-04 Max=5.69D-03 NDo=     1
 LinEq1:  Iter=  6 NonCon=     1 RMS=6.07D-05 Max=1.33D-03 NDo=     1
 LinEq1:  Iter=  7 NonCon=     1 RMS=2.81D-05 Max=5.62D-04 NDo=     1
 LinEq1:  Iter=  8 NonCon=     1 RMS=1.41D-05 Max=2.93D-04 NDo=     1
 LinEq1:  Iter=  9 NonCon=     1 RMS=6.88D-06 Max=1.10D-04 NDo=     1
 LinEq1:  Iter= 10 NonCon=     1 RMS=2.17D-06 Max=3.71D-05 NDo=     1
 LinEq1:  Iter= 11 NonCon=     1 RMS=1.40D-06 Max=4.05D-05 NDo=     1
 LinEq1:  Iter= 12 NonCon=     1 RMS=3.85D-07 Max=7.60D-06 NDo=     1
 LinEq1:  Iter= 13 NonCon=     1 RMS=1.47D-07 Max=2.73D-06 NDo=     1
 LinEq1:  Iter= 14 NonCon=     1 RMS=8.00D-08 Max=1.51D-06 NDo=     1
 LinEq1:  Iter= 15 NonCon=     1 RMS=2.34D-08 Max=4.27D-07 NDo=     1
 LinEq1:  Iter= 16 NonCon=     1 RMS=8.32D-09 Max=1.51D-07 NDo=     1
 LinEq1:  Iter= 17 NonCon=     1 RMS=2.98D-09 Max=4.40D-08 NDo=     1
 LinEq1:  Iter= 18 NonCon=     1 RMS=6.89D-10 Max=1.09D-08 NDo=     1
 LinEq1:  Iter= 19 NonCon=     1 RMS=2.38D-10 Max=4.28D-09 NDo=     1
 LinEq1:  Iter= 20 NonCon=     1 RMS=1.10D-10 Max=1.81D-09 NDo=     1
 LinEq1:  Iter= 21 NonCon=     0 RMS=2.00D-11 Max=4.69D-10 NDo=     1
 Linear equations converged to 1.000D-10 1.000D-09 after    21 iterations.
 End of Minotr F.D. properties file   721 does not exist.
 End of Minotr F.D. properties file   722 does not exist.
 End of Minotr F.D. properties file   788 does not exist.

 **********************************************************************

            Population analysis using the CI Density.

 **********************************************************************

 Orbital symmetries:
       Occupied  (A) (A) (A) (A) (A) (A) (A) (A) (A) (A) (A) (A)
                 (A) (A) (A) (A) (A) (A) (A) (A) (A) (A) (A) (A)
                 (A) (A) (A) (A) (A) (A) (A)
       Virtual   (A) (A) (A) (A) (A) (A) (A) (A) (A) (A) (A) (A)
                 (A) (A) (A) (A) (A) (A) (A) (A) (A) (A) (A) (A)
                 (A) (A) (A) (A) (A) (A) (A) (A) (A) (A) (A) (A)
                 (A) (A) (A) (A) (A) (A) (A) (A) (A) (A) (A) (A)
                 (A) (A) (A) (A) (A) (A) (A) (A) (A) (A) (A) (A)
                 (A) (A) (A) (A) (A) (A) (A) (A) (A) (A) (A) (A)
                 (A) (A) (A) (A) (A) (A) (A) (A) (A) (A) (A) (A)
                 (A) (A) (A) (A) (A) (A) (A) (A) (A) (A) (A) (A)
                 (A) (A) (A) (A) (A) (A) (A) (A) (A) (A) (A) (A)
                 (A) (A) (A) (A) (A) (A) (A) (A) (A) (A) (A) (A)
                 (A) (A) (A) (A) (A) (A) (A) (A) (A) (A) (A) (A)
                 (A) (A) (A) (A) (A) (A) (A) (A) (A) (A) (A) (A)
                 (A) (A) (A) (A) (A) (A) (A) (A) (A) (A)
 The electronic state is 1-A.
 Alpha  occ. eigenvalues --  -14.45747 -10.29795 -10.29500 -10.26497 -10.26010
 Alpha  occ. eigenvalues --  -10.25982 -10.25948 -10.25429 -10.25125  -1.06883
 Alpha  occ. eigenvalues --   -0.92649  -0.86751  -0.81881  -0.80023  -0.70325
 Alpha  occ. eigenvalues --   -0.67227  -0.65912  -0.61567  -0.55519  -0.54408
 Alpha  occ. eigenvalues --   -0.50768  -0.50010  -0.49701  -0.48101  -0.46004
 Alpha  occ. eigenvalues --   -0.42191  -0.40410  -0.40048  -0.34219  -0.27753
 Alpha  occ. eigenvalues --   -0.26016
 Alpha virt. eigenvalues --    0.02448   0.02472   0.04292   0.04765   0.06221
 Alpha virt. eigenvalues --    0.06311   0.06376   0.08060   0.08584   0.09076
 Alpha virt. eigenvalues --    0.09139   0.09387   0.11270   0.12002   0.13052
 Alpha virt. eigenvalues --    0.13185   0.14067   0.15441   0.16725   0.16816
 Alpha virt. eigenvalues --    0.18252   0.18592   0.19464   0.19885   0.20320
 Alpha virt. eigenvalues --    0.21691   0.21861   0.21871   0.22883   0.23596
 Alpha virt. eigenvalues --    0.24008   0.24955   0.25083   0.26083   0.26491
 Alpha virt. eigenvalues --    0.27031   0.27371   0.27979   0.29141   0.29603
 Alpha virt. eigenvalues --    0.30774   0.30969   0.32381   0.33831   0.35122
 Alpha virt. eigenvalues --    0.36019   0.36085   0.37699   0.39825   0.41976
 Alpha virt. eigenvalues --    0.43001   0.45417   0.49787   0.50632   0.57180
 Alpha virt. eigenvalues --    0.64350   0.68785   0.72881   0.73176   0.75498
 Alpha virt. eigenvalues --    0.77290   0.77656   0.79018   0.79269   0.80120
 Alpha virt. eigenvalues --    0.80958   0.81623   0.83464   0.84943   0.85850
 Alpha virt. eigenvalues --    0.87469   0.91142   0.95134   0.95816   0.96994
 Alpha virt. eigenvalues --    0.99369   1.00068   1.01105   1.02026   1.04228
 Alpha virt. eigenvalues --    1.06239   1.08863   1.10595   1.12323   1.15493
 Alpha virt. eigenvalues --    1.17459   1.18062   1.23161   1.24350   1.26944
 Alpha virt. eigenvalues --    1.28503   1.31034   1.31703   1.38232   1.39728
 Alpha virt. eigenvalues --    1.41693   1.43226   1.48234   1.49152   1.51587
 Alpha virt. eigenvalues --    1.53772   1.54323   1.57499   1.58118   1.60268
 Alpha virt. eigenvalues --    1.65599   1.71959   1.86243   1.91877   1.95872
 Alpha virt. eigenvalues --    1.97013   1.99461   2.01318   2.07034   2.07338
 Alpha virt. eigenvalues --    2.08490   2.13973   2.17604   2.21818   2.24897
 Alpha virt. eigenvalues --    2.25464   2.27427   2.33029   2.34162   2.34664
 Alpha virt. eigenvalues --    2.36207   2.39032   2.46281   2.49098   2.52268
 Alpha virt. eigenvalues --    2.62517   2.64230   2.71387   2.73525   2.75334
 Alpha virt. eigenvalues --    2.77720   2.81308   2.88750   2.92381   2.93595
 Alpha virt. eigenvalues --    3.03352   3.05673   3.19453   3.32160   3.52935
 Alpha virt. eigenvalues --    4.22050   4.32663   4.35646   4.39182   4.42791
 Alpha virt. eigenvalues --    4.46500   4.54802   4.58767   4.85958
          Condensed to atoms (all electrons):
               1          2          3          4          5          6
     1  C    5.547410   0.457666   0.148804  -0.537656  -0.154154   0.048497
     2  C    0.457666   6.069155  -0.261678   0.339171  -0.610442   0.449499
     3  C    0.148804  -0.261678  13.909066  -3.322560  -3.373262  -2.750624
     4  C   -0.537656   0.339171  -3.322560  13.927900  -2.777510  -0.828660
     5  C   -0.154154  -0.610442  -3.373262  -2.777510  15.023977  -0.919490
     6  C    0.048497   0.449499  -2.750624  -0.828660  -0.919490  12.843329
     7  N   -0.020825   0.012662  -0.473133  -0.331110   0.771841   0.109941
     8  C    0.189913  -0.296234   3.472602   0.584726  -5.370019  -3.302723
     9  C   -0.070403   0.033529  -1.311959  -0.313597   2.003073   0.941337
    10  H   -0.002516  -0.011574  -0.133327  -0.088246   0.182256   0.032296
    11  H   -0.000737   0.000629   0.007536   0.082851  -0.070201  -0.050348
    12  H    0.000260   0.000891   0.019354   0.073227  -0.042947  -0.022952
    13  H   -0.033618   0.329220  -0.045981   0.040030  -0.006942   0.025385
    14  H    0.026832   0.012675   0.277248  -0.019169   0.020331  -0.024373
    15  H    0.321848  -0.018817   0.031770  -0.025631   0.035566  -0.044823
    16  H   -0.012533   0.022405  -0.045743   0.044067   0.044592   0.291041
               7          8          9         10         11         12
     1  C   -0.020825   0.189913  -0.070403  -0.002516  -0.000737   0.000260
     2  C    0.012662  -0.296234   0.033529  -0.011574   0.000629   0.000891
     3  C   -0.473133   3.472602  -1.311959  -0.133327   0.007536   0.019354
     4  C   -0.331110   0.584726  -0.313597  -0.088246   0.082851   0.073227
     5  C    0.771841  -5.370019   2.003073   0.182256  -0.070201  -0.042947
     6  C    0.109941  -3.302723   0.941337   0.032296  -0.050348  -0.022952
     7  N    7.298580  -0.568848   0.441617   0.275095   0.006774  -0.055988
     8  C   -0.568848  13.287624  -2.502937   0.004004   0.378670  -0.038865
     9  C    0.441617  -2.502937   6.843463  -0.027737  -0.057150   0.378996
    10  H    0.275095   0.004004  -0.027737   0.336851  -0.000088  -0.002586
    11  H    0.006774   0.378670  -0.057150  -0.000088   0.492662  -0.000895
    12  H   -0.055988  -0.038865   0.378996  -0.002586  -0.000895   0.484829
    13  H   -0.000406  -0.002669   0.001752  -0.000002   0.000000  -0.000000
    14  H   -0.005743  -0.009006   0.009745   0.001928   0.000002   0.000003
    15  H    0.000238   0.003214  -0.000153  -0.000000  -0.000001  -0.000000
    16  H   -0.000825  -0.057752   0.004727   0.000004   0.001426  -0.000001
              13         14         15         16
     1  C   -0.033618   0.026832   0.321848  -0.012533
     2  C    0.329220   0.012675  -0.018817   0.022405
     3  C   -0.045981   0.277248   0.031770  -0.045743
     4  C    0.040030  -0.019169  -0.025631   0.044067
     5  C   -0.006942   0.020331   0.035566   0.044592
     6  C    0.025385  -0.024373  -0.044823   0.291041
     7  N   -0.000406  -0.005743   0.000238  -0.000825
     8  C   -0.002669  -0.009006   0.003214  -0.057752
     9  C    0.001752   0.009745  -0.000153   0.004727
    10  H   -0.000002   0.001928  -0.000000   0.000004
    11  H    0.000000   0.000002  -0.000001   0.001426
    12  H   -0.000000   0.000003  -0.000000  -0.000001
    13  H    0.522957  -0.004343  -0.004408  -0.000147
    14  H   -0.004343   0.529847  -0.000149   0.000017
    15  H   -0.004408  -0.000149   0.516367  -0.004146
    16  H   -0.000147   0.000017  -0.004146   0.521138
 Mulliken charges:
               1
     1  C    0.091211
     2  C   -0.528759
     3  C   -0.148112
     4  C   -0.847834
     5  C    1.243330
     6  C   -0.797333
     7  N   -0.459870
     8  C    0.228301
     9  C   -0.374302
    10  H    0.433641
    11  H    0.208871
    12  H    0.206674
    13  H    0.179172
    14  H    0.184155
    15  H    0.189126
    16  H    0.191728
 Sum of Mulliken charges =  -0.00000
 Mulliken charges with hydrogens summed into heavy atoms:
               1
     1  C    0.280337
     2  C   -0.349587
     3  C    0.036043
     4  C   -0.847834
     5  C    1.243330
     6  C   -0.605604
     7  N   -0.026229
     8  C    0.437172
     9  C   -0.167628
 Electronic spatial extent (au):  <R**2>=           1008.9474
 Charge=             -0.0000 electrons
 Dipole moment (field-independent basis, Debye):
    X=              2.4528    Y=             -1.0067    Z=             -0.0010  Tot=              2.6514
 Quadrupole moment (field-independent basis, Debye-Ang):
   XX=            -47.6219   YY=            -45.7017   ZZ=            -60.3576
   XY=             -4.1562   XZ=             -0.0009   YZ=             -0.0006
 Traceless Quadrupole moment (field-independent basis, Debye-Ang):
   XX=              3.6051   YY=              5.5254   ZZ=             -9.1305
   XY=             -4.1562   XZ=             -0.0009   YZ=             -0.0006
 Octapole moment (field-independent basis, Debye-Ang**2):
  XXX=             16.5789  YYY=             -8.6702  ZZZ=             -0.0150  XYY=             12.7809
  XXY=             -5.1630  XXZ=             -0.0036  XZZ=              3.0288  YZZ=             -0.6024
  YYZ=             -0.0077  XYZ=             -0.0024
 Hexadecapole moment (field-independent basis, Debye-Ang**3):
 XXXX=           -867.1877 YYYY=           -388.7667 ZZZZ=            -87.1252 XXXY=            -29.8164
 XXXZ=             -0.0198 YYYX=            -19.6022 YYYZ=              0.0063 ZZZX=             -0.0166
 ZZZY=              0.0132 XXYY=           -198.0784 XXZZ=           -202.3069 YYZZ=           -101.7720
 XXYZ=             -0.0056 YYXZ=              0.0020 ZZXY=             -4.3195
 N-N= 4.013368668897D+02 E-N=-1.644888671588D+03  KE= 3.605038191040D+02
 Calling FoFJK, ICntrl=  10005127 FMM=F ISym2X=0 I1Cent= 0 IOpClX= 0 NMat=1 NMatS=1 NMatT=0.
 ***** Axes restored to original set *****
 -------------------------------------------------------------------
 Center     Atomic                   Forces (Hartrees/Bohr)
 Number     Number              X              Y              Z
 -------------------------------------------------------------------
      1        6          -0.023993461   -0.026382468    0.000000307
      2        6          -0.037427662    0.016895102   -0.000001546
      3        6           0.025099507   -0.024521284    0.000008340
      4        6           0.005931696   -0.012032157   -0.000012581
      5        6           0.006557731    0.007499229   -0.000041507
      6        6           0.025297318    0.027123857    0.000001477
      7        7          -0.024578351    0.011191762    0.000046220
      8        6          -0.010043508    0.003730281    0.000034373
      9        6           0.031666547   -0.001166117   -0.000032525
     10        1           0.001624474   -0.006282653   -0.000001498
     11        1           0.001291987    0.003179687    0.000007402
     12        1           0.002315010   -0.000385925   -0.000007912
     13        1          -0.002118418   -0.000325630    0.000000556
     14        1           0.000464917   -0.002458106   -0.000003851
     15        1          -0.002309686    0.001473885    0.000000751
     16        1           0.000221898    0.002460537    0.000001994
 -------------------------------------------------------------------
 Cartesian Forces:  Max     0.037427662 RMS     0.012728141

 GradGradGradGradGradGradGradGradGradGradGradGradGradGradGradGradGradGrad
 Berny optimization.
 FormGI is forming the generalized inverse of G from B-inverse, IUseBI=4.
 Internal  Forces:  Max     0.040366716 RMS     0.007392781
 Search for a local minimum.
 Step number   1 out of a maximum of   94
 All quantities printed in internal units (Hartrees-Bohrs-Radians)
 Mixed Optimization -- RFO/linear search
 Second derivative matrix not updated -- first step.
 ITU=  0
     Eigenvalues ---    0.01853   0.01931   0.01986   0.02012   0.02070
     Eigenvalues ---    0.02113   0.02148   0.02153   0.02172   0.02209
     Eigenvalues ---    0.02233   0.02248   0.02338   0.16000   0.16000
     Eigenvalues ---    0.16000   0.16000   0.16000   0.16000   0.16000
     Eigenvalues ---    0.22000   0.22188   0.22662   0.24011   0.24651
     Eigenvalues ---    0.35712   0.35717   0.35783   0.35790   0.36420
     Eigenvalues ---    0.36427   0.37009   0.38432   0.42633   0.43465
     Eigenvalues ---    0.45769   0.46692   0.47162   0.47468   0.47567
     Eigenvalues ---    0.48125   0.50955
 RFO step:  Lambda=-1.06319916D-02 EMin= 1.85287394D-02
 Linear search not attempted -- first point.
 Iteration  1 RMS(Cart)=  0.02523828 RMS(Int)=  0.00021578
 Iteration  2 RMS(Cart)=  0.00027904 RMS(Int)=  0.00007487
 Iteration  3 RMS(Cart)=  0.00000006 RMS(Int)=  0.00007487
 Variable       Old X    -DE/DX   Delta X   Delta X   Delta X     New X
                                 (Linear)    (Quad)   (Total)
    R1        2.65547  -0.00005   0.00000   0.00161   0.00165   2.65713
    R2        2.61291   0.04037   0.00000   0.08192   0.08197   2.69488
    R3        2.04421   0.00273   0.00000   0.00741   0.00741   2.05163
    R4        2.61557   0.03761   0.00000   0.07708   0.07708   2.69265
    R5        2.04411   0.00199   0.00000   0.00541   0.00541   2.04952
    R6        2.63373   0.01253   0.00000   0.02556   0.02552   2.65925
    R7        2.04534   0.00246   0.00000   0.00670   0.00670   2.05204
    R8        2.68058   0.01308   0.00000   0.02576   0.02552   2.70610
    R9        2.60126  -0.00591   0.00000  -0.01333  -0.01331   2.58795
   R10        2.64771   0.00792   0.00000   0.01600   0.01600   2.66371
   R11        2.70839   0.00561   0.00000   0.01412   0.01399   2.72238
   R12        2.04526   0.00245   0.00000   0.00667   0.00667   2.05194
   R13        2.60573   0.01524   0.00000   0.03120   0.03140   2.63713
   R14        1.89542   0.00648   0.00000   0.01343   0.01343   1.90885
   R15        2.57870   0.01295   0.00000   0.02660   0.02672   2.60542
   R16        2.03419   0.00343   0.00000   0.00915   0.00915   2.04334
   R17        2.03430   0.00234   0.00000   0.00625   0.00625   2.04055
    A1        2.11420   0.00454   0.00000   0.02368   0.02372   2.13792
    A2        2.07986  -0.00206   0.00000  -0.01060  -0.01062   2.06924
    A3        2.08912  -0.00248   0.00000  -0.01308  -0.01310   2.07603
    A4        2.11523  -0.00623   0.00000  -0.02230  -0.02230   2.09293
    A5        2.08365   0.00231   0.00000   0.00643   0.00643   2.09008
    A6        2.08430   0.00392   0.00000   0.01588   0.01588   2.10018
    A7        2.05144  -0.00176   0.00000  -0.00768  -0.00777   2.04367
    A8        2.11267   0.00132   0.00000   0.00642   0.00647   2.11913
    A9        2.11908   0.00044   0.00000   0.00126   0.00131   2.12039
   A10        2.13389   0.00708   0.00000   0.02640   0.02637   2.16026
   A11        2.27895  -0.00219   0.00000  -0.00180  -0.00164   2.27731
   A12        1.87035  -0.00489   0.00000  -0.02460  -0.02474   1.84561
   A13        2.07274  -0.00129   0.00000  -0.00846  -0.00838   2.06436
   A14        1.86517   0.00184   0.00000   0.00563   0.00534   1.87052
   A15        2.34527  -0.00055   0.00000   0.00283   0.00304   2.34831
   A16        2.07887  -0.00234   0.00000  -0.01163  -0.01163   2.06724
   A17        2.10306   0.00147   0.00000   0.00755   0.00755   2.11062
   A18        2.10125   0.00087   0.00000   0.00408   0.00408   2.10533
   A19        1.90743   0.01168   0.00000   0.04733   0.04749   1.95492
   A20        2.19023  -0.00625   0.00000  -0.02604  -0.02612   2.16411
   A21        2.18553  -0.00543   0.00000  -0.02129  -0.02137   2.16416
   A22        1.86968   0.00295   0.00000   0.01700   0.01698   1.88666
   A23        2.21717  -0.00136   0.00000  -0.00782  -0.00781   2.20936
   A24        2.19633  -0.00159   0.00000  -0.00918  -0.00917   2.18716
   A25        1.91215  -0.01158   0.00000  -0.04535  -0.04508   1.86707
   A26        2.10250   0.00565   0.00000   0.02184   0.02170   2.12420
   A27        2.26854   0.00593   0.00000   0.02352   0.02338   2.29192
    D1       -0.00001   0.00000   0.00000   0.00004   0.00004   0.00003
    D2       -3.14156  -0.00000   0.00000  -0.00002  -0.00002  -3.14158
    D3        3.14152   0.00000   0.00000   0.00008   0.00008  -3.14158
    D4       -0.00002   0.00000   0.00000   0.00003   0.00003   0.00000
    D5       -0.00003   0.00000   0.00000   0.00006   0.00006   0.00003
    D6        3.14153   0.00000   0.00000   0.00008   0.00008  -3.14158
    D7       -3.14157   0.00000   0.00000   0.00002   0.00002  -3.14155
    D8       -0.00001   0.00000   0.00000   0.00003   0.00004   0.00003
    D9        0.00003  -0.00000   0.00000  -0.00008  -0.00008  -0.00005
   D10       -3.14154   0.00000   0.00000   0.00000   0.00000  -3.14153
   D11        3.14158  -0.00000   0.00000  -0.00003  -0.00003   3.14155
   D12        0.00001   0.00000   0.00000   0.00006   0.00006   0.00007
   D13       -0.00001   0.00000   0.00000   0.00003   0.00003   0.00002
   D14       -3.14144   0.00000   0.00000   0.00001   0.00001  -3.14143
   D15        3.14156  -0.00000   0.00000  -0.00006  -0.00006   3.14150
   D16        0.00013  -0.00000   0.00000  -0.00007  -0.00008   0.00006
   D17       -0.00004   0.00000   0.00000   0.00007   0.00007   0.00004
   D18       -3.14151  -0.00000   0.00000  -0.00012  -0.00013   3.14155
   D19        3.14143   0.00000   0.00000   0.00008   0.00009   3.14151
   D20       -0.00005  -0.00000   0.00000  -0.00011  -0.00011  -0.00016
   D21       -3.14124  -0.00001   0.00000  -0.00031  -0.00032  -3.14156
   D22       -0.00113   0.00001   0.00000   0.00023   0.00023  -0.00091
   D23        0.00049  -0.00001   0.00000  -0.00033  -0.00034   0.00016
   D24        3.14060   0.00001   0.00000   0.00021   0.00021   3.14081
   D25        0.00005  -0.00000   0.00000  -0.00011  -0.00012  -0.00006
   D26       -3.14151  -0.00000   0.00000  -0.00013  -0.00013   3.14155
   D27        3.14150   0.00000   0.00000   0.00015   0.00015  -3.14154
   D28       -0.00007   0.00000   0.00000   0.00013   0.00013   0.00007
   D29       -0.00041   0.00001   0.00000   0.00052   0.00053   0.00012
   D30        3.14139   0.00000   0.00000   0.00013   0.00014   3.14153
   D31        3.14132   0.00001   0.00000   0.00028   0.00028  -3.14158
   D32       -0.00006  -0.00000   0.00000  -0.00011  -0.00011  -0.00017
   D33       -0.00077   0.00002   0.00000   0.00069   0.00069  -0.00008
   D34        3.14133   0.00001   0.00000   0.00033   0.00033  -3.14153
   D35       -3.14089   0.00001   0.00000   0.00016   0.00015  -3.14074
   D36        0.00121  -0.00001   0.00000  -0.00021  -0.00021   0.00100
   D37        0.00072  -0.00003   0.00000  -0.00076  -0.00075  -0.00003
   D38       -3.14144  -0.00001   0.00000  -0.00035  -0.00035   3.14140
   D39       -3.14107  -0.00002   0.00000  -0.00038  -0.00036  -3.14144
   D40       -0.00005  -0.00000   0.00000   0.00003   0.00004  -0.00001
         Item               Value     Threshold  Converged?
 Maximum Force            0.040367     0.000450     NO 
 RMS     Force            0.007393     0.000300     NO 
 Maximum Displacement     0.096380     0.001800     NO 
 RMS     Displacement     0.025198     0.001200     NO 
 Predicted change in Energy=-5.457793D-03
 GradGradGradGradGradGradGradGradGradGradGradGradGradGradGradGradGradGrad

                          Input orientation:                          
 ---------------------------------------------------------------------
 Center     Atomic      Atomic             Coordinates (Angstroms)
 Number     Number       Type             X           Y           Z
 ---------------------------------------------------------------------
      1          6           0       -2.173958    0.676035   -0.000005
      2          6           0       -2.171826   -0.730054    0.000013
      3          6           0       -0.935715   -1.438811    0.000076
      4          6           0        0.243434   -0.670788    0.000056
      5          6           0        0.260833    0.761110   -0.000001
      6          6           0       -0.972304    1.443954    0.000007
      7          7           0        1.556917   -1.058409   -0.000071
      8          6           0        1.642296    1.169707    0.000060
      9          6           0        2.424695    0.034478   -0.000005
     10          1           0        1.861545   -2.021500    0.000586
     11          1           0        2.014070    2.185072   -0.000017
     12          1           0        3.497042   -0.092300   -0.000149
     13          1           0       -3.112596   -1.269704   -0.000014
     14          1           0       -0.905614   -2.524287    0.000036
     15          1           0       -3.128324    1.193603   -0.000042
     16          1           0       -1.003593    2.529340    0.000007
 ---------------------------------------------------------------------
                    Distance matrix (angstroms):
                    1          2          3          4          5
     1  C    0.000000
     2  C    1.406091   0.000000
     3  C    2.450678   1.424888   0.000000
     4  C    2.767258   2.415987   1.407214   0.000000
     5  C    2.436276   2.853314   2.504273   1.432004   0.000000
     6  C    1.426069   2.482975   2.882997   2.439294   1.409575
     7  N    4.114331   3.743172   2.521491   1.369484   2.233939
     8  C    3.848052   4.261058   3.667493   2.311760   1.440622
     9  C    4.643189   4.659669   3.669187   2.292444   2.282607
    10  H    4.854068   4.235081   2.857304   2.107772   3.210171
    11  H    4.451603   5.100950   4.672661   3.360222   2.258652
    12  H    5.722812   5.704629   4.632756   3.304635   3.346843
    13  H    2.160310   1.084560   2.183440   3.409052   3.937541
    14  H    3.442492   2.196033   1.085892   2.180773   3.486321
    15  H    1.085676   2.148336   3.425951   3.852883   3.416641
    16  H    2.191916   3.462430   3.968732   3.434516   2.173801
                    6          7          8          9         10
     6  C    0.000000
     7  N    3.557917   0.000000
     8  C    2.628943   2.229751   0.000000
     9  C    3.677802   1.395508   1.378729   0.000000
    10  H    4.476613   1.010120   3.198729   2.131709   0.000000
    11  H    3.076961   3.275540   1.081288   2.189445   4.209336
    12  H    4.726006   2.167361   2.243378   1.079815   2.529162
    13  H    3.456123   4.674291   5.344129   5.688803   5.030634
    14  H    3.968801   2.865808   4.487475   4.199790   2.812466
    15  H    2.170507   5.198369   4.770680   5.672706   5.935965
    16  H    1.085837   4.407738   2.974783   4.239988   5.377654
                   11         12         13         14         15
    11  H    0.000000
    12  H    2.717652   0.000000
    13  H    6.182085   6.713687   0.000000
    14  H    5.540994   5.029706   2.538650   0.000000
    15  H    5.237101   6.749002   2.463357   4.331644   0.000000
    16  H    3.037238   5.208523   4.345185   5.054577   2.509716
                   16
    16  H    0.000000
 Stoichiometry    C8H7N
 Framework group  C1[X(C8H7N)]
 Deg. of freedom    42
 Full point group                 C1      NOp   1
 Largest Abelian subgroup         C1      NOp   1
 Largest concise Abelian subgroup C1      NOp   1
                         Standard orientation:                         
 ---------------------------------------------------------------------
 Center     Atomic      Atomic             Coordinates (Angstroms)
 Number     Number       Type             X           Y           Z
 ---------------------------------------------------------------------
      1          6           0       -2.165181    0.703912   -0.000023
      2          6           0       -2.181794   -0.702081   -0.000005
      3          6           0       -0.955241   -1.427254    0.000058
      4          6           0        0.234042   -0.675019    0.000038
      5          6           0        0.270528    0.756521   -0.000019
      6          6           0       -0.953396    1.455743   -0.000011
      7          7           0        1.542240   -1.080116   -0.000089
      8          6           0        1.657315    1.146664    0.000042
      9          6           0        2.424511    0.001105   -0.000023
     10          1           0        1.834002   -2.047182    0.000568
     11          1           0        2.042593    2.156983   -0.000035
     12          1           0        3.495073   -0.139957   -0.000167
     13          1           0       -3.129674   -1.229141   -0.000032
     14          1           0       -0.939614   -2.513034    0.000018
     15          1           0       -3.112562    1.234157   -0.000060
     16          1           0       -0.970213    2.541450   -0.000011
 ---------------------------------------------------------------------
 Rotational constants (GHZ):           3.8563645           1.6046227           1.1331303
 Standard basis: 6-31+G(d) (6D, 7F)
 There are   185 symmetry adapted cartesian basis functions of A   symmetry.
 There are   185 symmetry adapted basis functions of A   symmetry.
   185 basis functions,   316 primitive gaussians,   185 cartesian basis functions
    31 alpha electrons       31 beta electrons
       nuclear repulsion energy       397.5270444695 Hartrees.
 NAtoms=   16 NActive=   16 NUniq=   16 SFac= 1.00D+00 NAtFMM=   60 NAOKFM=F Big=F
 Integral buffers will be    131072 words long.
 Raffenetti 1 integral format.
 Two-electron integral symmetry is turned on.
 One-electron integrals computed using PRISM.
 NBasis=   185 RedAO= T EigKep=  1.39D-06  NBF=   185
 NBsUse=   185 1.00D-06 EigRej= -1.00D+00 NBFU=   185
 Initial guess from the checkpoint file:  "FuncsCAM-B3LYPII1st.chk"
 B after Tr=     0.000000   -0.000000    0.000000
         Rot=    0.999981    0.000009    0.000006    0.006216 Ang=   0.71 deg.
 ExpMin= 4.38D-02 ExpMax= 4.17D+03 ExpMxC= 6.27D+02 IAcc=3 IRadAn=         5 AccDes= 0.00D+00
 Harris functional with IExCor=20419 and IRadAn=       5 diagonalized for initial guess.
 HarFok:  IExCor=20419 AccDes= 0.00D+00 IRadAn=         5 IDoV= 1 UseB2=F ITyADJ=14
 ICtDFT=  3500011 ScaDFX=  1.000000  1.000000  1.000000  1.000000
 FoFCou: FMM=F IPFlag=           0 FMFlag=      100000 FMFlg1=           0
         NFxFlg=           0 DoJE=T BraDBF=F KetDBF=T FulRan=T
         wScrn=  0.000000 ICntrl=       500 IOpCl=  0 I1Cent=   200000004 NGrid=           0
         NMat0=    1 NMatS0=      1 NMatT0=    0 NMatD0=    1 NMtDS0=    0 NMtDT0=    0
 Petite list used in FoFCou.
 Keep R1 ints in memory in canonical form, NReq=303303409.
 Requested convergence on RMS density matrix=1.00D-08 within 128 cycles.
 Requested convergence on MAX density matrix=1.00D-06.
 Requested convergence on             energy=1.00D-06.
 No special actions if energy rises.
 SCF Done:  E(RCAM-B3LYP) =  -363.620060431     A.U. after   14 cycles
            NFock= 14  Conv=0.54D-08     -V/T= 2.0103
 DoSCS=F DFT=T ScalE2(SS,OS)=  1.000000  1.000000
 ExpMin= 4.38D-02 ExpMax= 4.17D+03 ExpMxC= 6.27D+02 IAcc=3 IRadAn=         5 AccDes= 0.00D+00
 HarFok:  IExCor=  205 AccDes= 0.00D+00 IRadAn=         5 IDoV=-2 UseB2=F ITyADJ=14
 ICtDFT= 12500011 ScaDFX=  1.000000  1.000000  1.000000  1.000000
 Range of M.O.s used for correlation:    10   185
 NBasis=   185 NAE=    31 NBE=    31 NFC=     9 NFV=     0
 NROrb=    176 NOA=    22 NOB=    22 NVA=   154 NVB=   154

 **** Warning!!: The largest alpha MO coefficient is  0.20748021D+03

 Orbital symmetries:
       Occupied  (A) (A) (A) (A) (A) (A) (A) (A) (A) (A) (A) (A)
                 (A) (A) (A) (A) (A) (A) (A) (A) (A) (A) (A) (A)
                 (A) (A) (A) (A) (A) (A) (A)
       Virtual   (A) (A) (A) (A) (A) (A) (A) (A) (A) (A) (A) (A)
                 (A) (A) (A) (A) (A) (A) (A) (A) (A) (A) (A) (A)
                 (A) (A) (A) (A) (A) (A) (A) (A) (A) (A) (A) (A)
                 (A) (A) (A) (A) (A) (A) (A) (A) (A) (A) (A) (A)
                 (A) (A) (A) (A) (A) (A) (A) (A) (A) (A) (A) (A)
                 (A) (A) (A) (A) (A) (A) (A) (A) (A) (A) (A) (A)
                 (A) (A) (A) (A) (A) (A) (A) (A) (A) (A) (A) (A)
                 (A) (A) (A) (A) (A) (A) (A) (A) (A) (A) (A) (A)
                 (A) (A) (A) (A) (A) (A) (A) (A) (A) (A) (A) (A)
                 (A) (A) (A) (A) (A) (A) (A) (A) (A) (A) (A) (A)
                 (A) (A) (A) (A) (A) (A) (A) (A) (A) (A) (A) (A)
                 (A) (A) (A) (A) (A) (A) (A) (A) (A) (A) (A) (A)
                 (A) (A) (A) (A) (A) (A) (A) (A) (A) (A)
 Generating guess from densities on rwf.
 Convergence on wavefunction:    0.000001000000000
 Iteration     1 Dimension    12 NMult     0 NNew     12
 CISAX will form    12 AO SS matrices at one time.
 New state      5 was old state      6
 New state      6 was old state      5
 Iteration     2 Dimension    24 NMult    12 NNew     12
 Iteration     3 Dimension    36 NMult    24 NNew     12
 Iteration     4 Dimension    48 NMult    36 NNew     12
 Iteration     5 Dimension    60 NMult    48 NNew     12
 Iteration     6 Dimension    72 NMult    60 NNew     12
 Iteration     7 Dimension    84 NMult    72 NNew     12
 Iteration     8 Dimension    96 NMult    84 NNew     12
 Iteration     9 Dimension   108 NMult    96 NNew     12
 Iteration    10 Dimension   120 NMult   108 NNew     12
 Iteration    11 Dimension   126 NMult   120 NNew      6
 Iteration    12 Dimension   130 NMult   126 NNew      4
 ***********************************************************************
 Excited states from <AA,BB:AA,BB> singles matrix:
 ***********************************************************************
 
 Ground to excited state transition densities written to RWF  633
 Ground to excited state transition electric dipole moments (Au):
       state          X           Y           Z        Dip. S.      Osc.
         1        -0.0745      0.7523     -0.0000      0.5715      0.0669
         2         0.8284     -0.2996      0.0001      0.7761      0.0940
         3         0.0001     -0.0001     -0.1413      0.0200      0.0026
         4        -0.0002     -0.0001     -0.1823      0.0332      0.0047
         5         0.0005      0.0001      0.0629      0.0040      0.0006
         6         0.0000     -0.0000      0.0407      0.0017      0.0002
 Ground to excited state transition velocity dipole moments (Au):
       state          X           Y           Z        Dip. S.      Osc.
         1         0.0086     -0.1406      0.0000      0.0199      0.0754
         2        -0.1400      0.0576     -0.0000      0.0229      0.0841
         3        -0.0000      0.0000      0.0168      0.0003      0.0010
         4         0.0000      0.0000      0.0389      0.0015      0.0048
         5        -0.0001     -0.0000     -0.0147      0.0002      0.0007
         6        -0.0000      0.0000     -0.0102      0.0001      0.0003
 Ground to excited state transition magnetic dipole moments (Au):
       state          X           Y           Z
         1         0.0001      0.0001      0.1684
         2         0.0000      0.0000      0.0500
         3         0.1172     -0.0462      0.0001
         4         0.1630     -0.3535     -0.0001
         5         0.3998      0.1639      0.0002
         6         0.0167      0.3966      0.0000
 Ground to excited state transition velocity quadrupole moments (Au):
       state          XX          YY          ZZ          XY          XZ          YZ
         1         0.1290     -0.0350     -0.0051      0.0552     -0.0000     -0.0000
         2        -0.2049      0.1791     -0.0323      0.0108     -0.0000      0.0000
         3        -0.0001      0.0001      0.0001      0.0000      0.0583      0.0474
         4         0.0002     -0.0001     -0.0000     -0.0001      0.2711      0.0937
         5         0.0001     -0.0000      0.0000      0.0001     -0.0530      0.3316
         6         0.0000      0.0000      0.0000      0.0000     -0.3845     -0.0876
 <0|del|b> * <b|rxdel|0> + <0|del|b> * <b|delr+rdel|0>
 Rotatory Strengths (R) in cgs (10**-40 erg-esu-cm/Gauss)
       state          XX          YY          ZZ    R(velocity)    E-M Angle
         1        -0.0219      0.0017     -0.0189     -0.0130       90.00
         2         0.0030     -0.0125     -0.0004     -0.0033       90.00
         3        -0.0030     -0.0032     -0.0014     -0.0026       90.00
         4        -0.0312      0.0167      0.0015     -0.0043       90.00
         5        -0.0134     -0.1189     -0.0141     -0.0488       90.00
         6         0.0014      0.0007     -0.0003      0.0006       90.00
 1/2[<0|r|b>*<b|rxdel|0> + (<0|rxdel|b>*<b|r|0>)*]
 Rotatory Strengths (R) in cgs (10**-40 erg-esu-cm/Gauss)
       state          XX          YY          ZZ     R(length)
         1         0.0038     -0.0415      0.0047     -0.0110
         2        -0.0114      0.0022     -0.0020     -0.0038
         3        -0.0090     -0.0049      0.0066     -0.0024
         4         0.0201     -0.0223     -0.0092     -0.0038
         5        -0.1303     -0.0099     -0.0098     -0.0500
         6        -0.0002      0.0001     -0.0002     -0.0001
  1/2[<0|del|b>*<b|r|0> + (<0|r|b>*<b|del|0>)*] (Au)
       state          X           Y           Z        Dip. S.   Osc.(frdel)
         1        -0.0006     -0.1058     -0.0000      0.1064      0.0710
         2        -0.1160     -0.0173     -0.0000      0.1332      0.0888
         3        -0.0000     -0.0000     -0.0024      0.0024      0.0016
         4        -0.0000     -0.0000     -0.0071      0.0071      0.0047
         5        -0.0000     -0.0000     -0.0009      0.0009      0.0006
         6        -0.0000     -0.0000     -0.0004      0.0004      0.0003

 Excitation energies and oscillator strengths:
 
 Excited State   1:      Singlet-A      4.7792 eV  259.43 nm  f=0.0669  <S**2>=0.000
      30 -> 32         0.34618
      30 -> 36        -0.14783
      31 -> 32         0.56117
      31 -> 36         0.16484
 This state for optimization and/or second-order correction.
 Total Energy, E(TD-HF/TD-DFT) =  -363.444428967    
 Copying the excited state density for this state as the 1-particle RhoCI density.
 
 Excited State   2:      Singlet-A      4.9448 eV  250.74 nm  f=0.0940  <S**2>=0.000
      30 -> 32         0.48368
      31 -> 32        -0.37962
      31 -> 36         0.31482
 
 Excited State   3:      Singlet-A      5.2370 eV  236.75 nm  f=0.0026  <S**2>=0.000
      31 -> 33         0.68446
 
 Excited State   4:      Singlet-A      5.7474 eV  215.72 nm  f=0.0047  <S**2>=0.000
      30 -> 33        -0.59950
      31 -> 34         0.30041
      31 -> 35        -0.12187
 
 Excited State   5:      Singlet-A      5.9090 eV  209.82 nm  f=0.0006  <S**2>=0.000
      30 -> 33         0.21611
      31 -> 34         0.54903
      31 -> 35         0.32823
 
 Excited State   6:      Singlet-A      5.9323 eV  209.00 nm  f=0.0002  <S**2>=0.000
      30 -> 33        -0.23906
      30 -> 34         0.11379
      31 -> 34        -0.25844
      31 -> 35         0.57465
 SavETr:  write IOETrn=   770 NScale= 10 NData=  16 NLR=1 NState=    6 LETran=     118.
          IDoAtm=1111111111111111
          Differentiating once with respect to electric field.
                with respect to dipole field.
          Differentiating once with respect to nuclear coordinates.
 Keep R1 ints in memory in canonical form, NReq=303315801.
          There are     1 degrees of freedom in the 1st order CPHF.  IDoFFX=0 NUNeed=     1.
 LinEq1:  Iter=  0 NonCon=     1 RMS=5.46D-03 Max=1.20D-01 NDo=     1
 AX will form     1 AO Fock derivatives at one time.
 LinEq1:  Iter=  1 NonCon=     1 RMS=2.30D-03 Max=5.22D-02 NDo=     1
 LinEq1:  Iter=  2 NonCon=     1 RMS=1.30D-03 Max=2.75D-02 NDo=     1
 LinEq1:  Iter=  3 NonCon=     1 RMS=5.75D-04 Max=2.20D-02 NDo=     1
 LinEq1:  Iter=  4 NonCon=     1 RMS=2.78D-04 Max=9.04D-03 NDo=     1
 LinEq1:  Iter=  5 NonCon=     1 RMS=1.70D-04 Max=6.35D-03 NDo=     1
 LinEq1:  Iter=  6 NonCon=     1 RMS=6.82D-05 Max=1.51D-03 NDo=     1
 LinEq1:  Iter=  7 NonCon=     1 RMS=3.31D-05 Max=7.17D-04 NDo=     1
 LinEq1:  Iter=  8 NonCon=     1 RMS=1.67D-05 Max=3.68D-04 NDo=     1
 LinEq1:  Iter=  9 NonCon=     1 RMS=7.66D-06 Max=1.11D-04 NDo=     1
 LinEq1:  Iter= 10 NonCon=     1 RMS=2.58D-06 Max=5.22D-05 NDo=     1
 LinEq1:  Iter= 11 NonCon=     1 RMS=1.64D-06 Max=4.06D-05 NDo=     1
 LinEq1:  Iter= 12 NonCon=     1 RMS=4.15D-07 Max=5.01D-06 NDo=     1
 LinEq1:  Iter= 13 NonCon=     1 RMS=1.80D-07 Max=4.76D-06 NDo=     1
 LinEq1:  Iter= 14 NonCon=     1 RMS=8.40D-08 Max=1.50D-06 NDo=     1
 LinEq1:  Iter= 15 NonCon=     1 RMS=2.61D-08 Max=5.56D-07 NDo=     1
 LinEq1:  Iter= 16 NonCon=     1 RMS=1.15D-08 Max=1.70D-07 NDo=     1
 LinEq1:  Iter= 17 NonCon=     1 RMS=3.91D-09 Max=5.47D-08 NDo=     1
 LinEq1:  Iter= 18 NonCon=     1 RMS=8.89D-10 Max=1.11D-08 NDo=     1
 LinEq1:  Iter= 19 NonCon=     1 RMS=3.58D-10 Max=6.11D-09 NDo=     1
 LinEq1:  Iter= 20 NonCon=     1 RMS=1.48D-10 Max=2.68D-09 NDo=     1
 LinEq1:  Iter= 21 NonCon=     0 RMS=2.73D-11 Max=6.23D-10 NDo=     1
 Linear equations converged to 1.000D-10 1.000D-09 after    21 iterations.
 End of Minotr F.D. properties file   721 does not exist.
 End of Minotr F.D. properties file   722 does not exist.
 End of Minotr F.D. properties file   788 does not exist.
 Calling FoFJK, ICntrl=  10005127 FMM=F ISym2X=0 I1Cent= 0 IOpClX= 0 NMat=1 NMatS=1 NMatT=0.
 ***** Axes restored to original set *****
 -------------------------------------------------------------------
 Center     Atomic                   Forces (Hartrees/Bohr)
 Number     Number              X              Y              Z
 -------------------------------------------------------------------
      1        6          -0.002941834   -0.017069417   -0.000001355
      2        6          -0.006821495    0.016617552    0.000001960
      3        6           0.010453897   -0.004265055    0.000001172
      4        6           0.000562594    0.004219370   -0.000011008
      5        6           0.000659138   -0.001971141    0.000005055
      6        6           0.006473192    0.005173414    0.000001386
      7        7          -0.003998763    0.002112029    0.000022511
      8        6          -0.008288636    0.000622069   -0.000017676
      9        6           0.005056305   -0.004294474    0.000005332
     10        1           0.000483215   -0.001220196   -0.000012320
     11        1          -0.000334102    0.000335784    0.000002526
     12        1          -0.001384673   -0.001049277    0.000001928
     13        1           0.000924211   -0.000003459    0.000000564
     14        1           0.000117041    0.000471707   -0.000001066
     15        1           0.000410956    0.001071562   -0.000000061
     16        1          -0.001371047   -0.000750466    0.000001052
 -------------------------------------------------------------------
 Cartesian Forces:  Max     0.017069417 RMS     0.004529166

 GradGradGradGradGradGradGradGradGradGradGradGradGradGradGradGradGradGrad
 Berny optimization.
 Using GEDIIS/GDIIS optimizer.
 FormGI is forming the generalized inverse of G from B-inverse, IUseBI=4.
 Internal  Forces:  Max     0.012285393 RMS     0.002110652
 Search for a local minimum.
 Step number   2 out of a maximum of   94
 All quantities printed in internal units (Hartrees-Bohrs-Radians)
 Mixed Optimization -- RFO/linear search
 Update second derivatives using D2CorX and points    1    2
 DE= -5.69D-03 DEPred=-5.46D-03 R= 1.04D+00
 TightC=F SS=  1.41D+00  RLast= 1.64D-01 DXNew= 5.0454D-01 4.9313D-01
 Trust test= 1.04D+00 RLast= 1.64D-01 DXMaxT set to 4.93D-01
 ITU=  1  0
 Use linear search instead of GDIIS.
     Eigenvalues ---    0.01851   0.01931   0.01986   0.02012   0.02070
     Eigenvalues ---    0.02113   0.02144   0.02150   0.02172   0.02209
     Eigenvalues ---    0.02234   0.02248   0.02340   0.15869   0.16000
     Eigenvalues ---    0.16000   0.16000   0.16000   0.16000   0.16020
     Eigenvalues ---    0.20786   0.22035   0.22859   0.24354   0.24779
     Eigenvalues ---    0.35547   0.35717   0.35741   0.35814   0.36060
     Eigenvalues ---    0.36454   0.36617   0.38349   0.38778   0.42764
     Eigenvalues ---    0.44455   0.46408   0.47169   0.47289   0.47677
     Eigenvalues ---    0.50826   0.56880
 RFO step:  Lambda=-1.02318977D-03 EMin= 1.85079177D-02
 Quartic linear search produced a step of  0.09636.
 Iteration  1 RMS(Cart)=  0.00814753 RMS(Int)=  0.00003733
 Iteration  2 RMS(Cart)=  0.00004374 RMS(Int)=  0.00001235
 Iteration  3 RMS(Cart)=  0.00000000 RMS(Int)=  0.00001235
 Variable       Old X    -DE/DX   Delta X   Delta X   Delta X     New X
                                 (Linear)    (Quad)   (Total)
    R1        2.65713  -0.01229   0.00016  -0.02987  -0.02972   2.62741
    R2        2.69488   0.00444   0.00790   0.01019   0.01809   2.71297
    R3        2.05163   0.00015   0.00071   0.00047   0.00118   2.05281
    R4        2.69265   0.00695   0.00743   0.01585   0.02326   2.71591
    R5        2.04952  -0.00080   0.00052  -0.00243  -0.00191   2.04761
    R6        2.65925  -0.00452   0.00246  -0.01065  -0.00819   2.65106
    R7        2.05204  -0.00047   0.00065  -0.00142  -0.00078   2.05126
    R8        2.70610  -0.00341   0.00246  -0.00996  -0.00752   2.69858
    R9        2.58795  -0.00374  -0.00128  -0.00892  -0.01019   2.57776
   R10        2.66371  -0.00158   0.00154  -0.00382  -0.00227   2.66144
   R11        2.72238  -0.00460   0.00135  -0.01223  -0.01090   2.71148
   R12        2.05194  -0.00071   0.00064  -0.00216  -0.00152   2.05042
   R13        2.63713  -0.00225   0.00303  -0.00445  -0.00140   2.63573
   R14        1.90885   0.00131   0.00129   0.00305   0.00435   1.91320
   R15        2.60542   0.00507   0.00258   0.01168   0.01427   2.61969
   R16        2.04334   0.00020   0.00088   0.00062   0.00150   2.04484
   R17        2.04055  -0.00125   0.00060  -0.00375  -0.00314   2.03741
    A1        2.13792   0.00125   0.00229   0.00649   0.00877   2.14669
    A2        2.06924   0.00054  -0.00102   0.00470   0.00368   2.07292
    A3        2.07603  -0.00179  -0.00126  -0.01120  -0.01246   2.06357
    A4        2.09293   0.00018  -0.00215   0.00087  -0.00131   2.09162
    A5        2.09008   0.00039   0.00062   0.00278   0.00341   2.09349
    A6        2.10018  -0.00056   0.00153  -0.00364  -0.00210   2.09808
    A7        2.04367  -0.00122  -0.00075  -0.00649  -0.00727   2.03640
    A8        2.11913   0.00074   0.00062   0.00417   0.00480   2.12393
    A9        2.12039   0.00048   0.00013   0.00233   0.00247   2.12285
   A10        2.16026   0.00086   0.00254   0.00472   0.00726   2.16752
   A11        2.27731  -0.00357  -0.00016  -0.01368  -0.01383   2.26349
   A12        1.84561   0.00271  -0.00238   0.00896   0.00657   1.85218
   A13        2.06436   0.00067  -0.00081   0.00319   0.00241   2.06677
   A14        1.87052  -0.00088   0.00051  -0.00517  -0.00470   1.86582
   A15        2.34831   0.00021   0.00029   0.00198   0.00229   2.35059
   A16        2.06724  -0.00174  -0.00112  -0.00877  -0.00988   2.05736
   A17        2.11062  -0.00056   0.00073  -0.00533  -0.00461   2.10601
   A18        2.10533   0.00230   0.00039   0.01410   0.01449   2.11982
   A19        1.95492  -0.00011   0.00458  -0.00086   0.00375   1.95866
   A20        2.16411   0.00015  -0.00252   0.00102  -0.00151   2.16260
   A21        2.16416  -0.00003  -0.00206  -0.00016  -0.00224   2.16192
   A22        1.88666   0.00055   0.00164   0.00520   0.00682   1.89349
   A23        2.20936  -0.00071  -0.00075  -0.00558  -0.00633   2.20303
   A24        2.18716   0.00017  -0.00088   0.00038  -0.00050   2.18667
   A25        1.86707  -0.00226  -0.00434  -0.00813  -0.01243   1.85463
   A26        2.12420  -0.00010   0.00209  -0.00431  -0.00223   2.12197
   A27        2.29192   0.00236   0.00225   0.01243   0.01467   2.30658
    D1        0.00003  -0.00000   0.00000  -0.00001  -0.00001   0.00001
    D2       -3.14158  -0.00000  -0.00000  -0.00001  -0.00002  -3.14159
    D3       -3.14158  -0.00000   0.00001  -0.00001   0.00000  -3.14158
    D4        0.00000  -0.00000   0.00000  -0.00001  -0.00000   0.00000
    D5        0.00003   0.00000   0.00001   0.00001   0.00001   0.00004
    D6       -3.14158   0.00000   0.00001   0.00001   0.00001  -3.14156
    D7       -3.14155  -0.00000   0.00000  -0.00000  -0.00000  -3.14155
    D8        0.00003  -0.00000   0.00000  -0.00000   0.00000   0.00003
    D9       -0.00005   0.00000  -0.00001   0.00004   0.00003  -0.00002
   D10       -3.14153  -0.00000   0.00000  -0.00001  -0.00001  -3.14154
   D11        3.14155   0.00000  -0.00000   0.00004   0.00003   3.14159
   D12        0.00007  -0.00000   0.00001  -0.00001  -0.00000   0.00006
   D13        0.00002  -0.00000   0.00000  -0.00006  -0.00005  -0.00003
   D14       -3.14143  -0.00000   0.00000  -0.00016  -0.00016  -3.14158
   D15        3.14150  -0.00000  -0.00001  -0.00001  -0.00001   3.14149
   D16        0.00006  -0.00000  -0.00001  -0.00011  -0.00012  -0.00006
   D17        0.00004   0.00000   0.00001   0.00005   0.00005   0.00009
   D18        3.14155   0.00000  -0.00001   0.00008   0.00007  -3.14157
   D19        3.14151   0.00000   0.00001   0.00013   0.00014  -3.14154
   D20       -0.00016   0.00000  -0.00001   0.00017   0.00016  -0.00001
   D21       -3.14156   0.00000  -0.00003   0.00003  -0.00001  -3.14157
   D22       -0.00091   0.00001   0.00002   0.00030   0.00032  -0.00059
   D23        0.00016  -0.00000  -0.00003  -0.00006  -0.00010   0.00006
   D24        3.14081   0.00000   0.00002   0.00021   0.00023   3.14104
   D25       -0.00006  -0.00000  -0.00001  -0.00002  -0.00003  -0.00009
   D26        3.14155  -0.00000  -0.00001  -0.00002  -0.00003   3.14151
   D27       -3.14154  -0.00000   0.00001  -0.00007  -0.00006   3.14159
   D28        0.00007  -0.00000   0.00001  -0.00007  -0.00006   0.00001
   D29        0.00012  -0.00000   0.00005  -0.00021  -0.00016  -0.00004
   D30        3.14153  -0.00000   0.00001  -0.00001   0.00001   3.14153
   D31       -3.14158  -0.00000   0.00003  -0.00017  -0.00014   3.14147
   D32       -0.00017   0.00000  -0.00001   0.00004   0.00003  -0.00014
   D33       -0.00008  -0.00000   0.00007  -0.00007  -0.00000  -0.00009
   D34       -3.14153   0.00000   0.00003   0.00002   0.00005  -3.14147
   D35       -3.14074  -0.00001   0.00001  -0.00034  -0.00033  -3.14107
   D36        0.00100  -0.00000  -0.00002  -0.00025  -0.00027   0.00073
   D37       -0.00003   0.00000  -0.00007   0.00017   0.00010   0.00008
   D38        3.14140   0.00000  -0.00003   0.00007   0.00004   3.14144
   D39       -3.14144  -0.00000  -0.00004  -0.00003  -0.00006  -3.14150
   D40       -0.00001  -0.00000   0.00000  -0.00013  -0.00013  -0.00014
         Item               Value     Threshold  Converged?
 Maximum Force            0.012285     0.000450     NO 
 RMS     Force            0.002111     0.000300     NO 
 Maximum Displacement     0.033780     0.001800     NO 
 RMS     Displacement     0.008152     0.001200     NO 
 Predicted change in Energy=-5.495085D-04
 GradGradGradGradGradGradGradGradGradGradGradGradGradGradGradGradGradGrad

                          Input orientation:                          
 ---------------------------------------------------------------------
 Center     Atomic      Atomic             Coordinates (Angstroms)
 Number     Number       Type             X           Y           Z
 ---------------------------------------------------------------------
      1          6           0       -2.173531    0.666726    0.000013
      2          6           0       -2.171884   -0.723638    0.000009
      3          6           0       -0.924396   -1.437302    0.000029
      4          6           0        0.244770   -0.661984    0.000029
      5          6           0        0.260724    0.765954   -0.000029
      6          6           0       -0.970380    1.449985    0.000021
      7          7           0        1.550903   -1.055382    0.000036
      8          6           0        1.638161    1.167786   -0.000043
      9          6           0        2.428380    0.028783    0.000062
     10          1           0        1.849367   -2.022809    0.000537
     11          1           0        2.007561    2.184861   -0.000134
[...]
 ! D9    D(1,2,3,4)             -0.001          -DE/DX =    0.0                 !
 ! D10   D(1,2,3,14)          -179.9972         -DE/DX =    0.0                 !
 ! D11   D(13,2,3,4)          -180.0005         -DE/DX =    0.0                 !
 ! D12   D(13,2,3,14)            0.0033         -DE/DX =    0.0                 !
 ! D13   D(2,3,4,5)              0.0013         -DE/DX =    0.0                 !
 ! D14   D(2,3,4,7)           -179.9993         -DE/DX =    0.0                 !
 ! D15   D(14,3,4,5)           179.9974         -DE/DX =    0.0                 !
 ! D16   D(14,3,4,7)            -0.0032         -DE/DX =    0.0                 !
 ! D17   D(3,4,5,6)             -0.0003         -DE/DX =    0.0                 !
 ! D18   D(3,4,5,8)           -180.0017         -DE/DX =    0.0                 !
 ! D19   D(7,4,5,6)           -179.9998         -DE/DX =    0.0                 !
 ! D20   D(7,4,5,8)             -0.0013         -DE/DX =    0.0                 !
 ! D21   D(3,4,7,9)           -180.0007         -DE/DX =    0.0                 !
 ! D22   D(3,4,7,10)            -0.0032         -DE/DX =    0.0                 !
 ! D23   D(5,4,7,9)             -0.0013         -DE/DX =    0.0                 !
 ! D24   D(5,4,7,10)           179.9963         -DE/DX =    0.0                 !
 ! D25   D(4,5,6,1)             -0.001          -DE/DX =    0.0                 !
 ! D26   D(4,5,6,16)           179.9984         -DE/DX =    0.0                 !
 ! D27   D(8,5,6,1)            180.0009         -DE/DX =    0.0                 !
 ! D28   D(8,5,6,16)             0.0003         -DE/DX =    0.0                 !
 ! D29   D(4,5,8,9)              0.0032         -DE/DX =    0.0                 !
 ! D30   D(4,5,8,11)           179.9997         -DE/DX =    0.0                 !
 ! D31   D(6,5,8,9)            180.0014         -DE/DX =    0.0                 !
 ! D32   D(6,5,8,11)            -0.0021         -DE/DX =    0.0                 !
 ! D33   D(4,7,9,8)              0.0032         -DE/DX =    0.0                 !
 ! D34   D(4,7,9,12)          -179.9967         -DE/DX =    0.0                 !
 ! D35   D(10,7,9,8)          -179.9943         -DE/DX =    0.0                 !
 ! D36   D(10,7,9,12)            0.0058         -DE/DX =    0.0                 !
 ! D37   D(5,8,9,7)             -0.0039         -DE/DX =    0.0                 !
 ! D38   D(5,8,9,12)           179.9959         -DE/DX =    0.0                 !
 ! D39   D(11,8,9,7)          -180.0006         -DE/DX =    0.0                 !
 ! D40   D(11,8,9,12)           -0.0007         -DE/DX =    0.0                 !
 --------------------------------------------------------------------------------
 GradGradGradGradGradGradGradGradGradGradGradGradGradGradGradGradGradGrad

                          Input orientation:                          
 ---------------------------------------------------------------------
 Center     Atomic      Atomic             Coordinates (Angstroms)
 Number     Number       Type             X           Y           Z
 ---------------------------------------------------------------------
      1          6           0       -2.180145    0.684929   -0.000030
      2          6           0       -2.151713   -0.693225    0.000035
      3          6           0       -0.904335   -1.437158    0.000100
      4          6           0        0.245892   -0.659830    0.000068
      5          6           0        0.249103    0.749966    0.000006
      6          6           0       -0.990181    1.462815   -0.000034
      7          7           0        1.588539   -1.065473    0.000100
      8          6           0        1.596091    1.158488    0.000032
      9          6           0        2.419189   -0.008635    0.000035
     10          1           0        1.887087   -2.031719    0.000200
     11          1           0        1.973217    2.172430   -0.000005
     12          1           0        3.493439   -0.113561   -0.000007
     13          1           0       -3.083471   -1.250425    0.000048
     14          1           0       -0.889293   -2.520742    0.000107
     15          1           0       -3.139737    1.193162   -0.000064
     16          1           0       -1.016781    2.546423   -0.000056
 ---------------------------------------------------------------------
                    Distance matrix (angstroms):
                    1          2          3          4          5
     1  C    0.000000
     2  C    1.378447   0.000000
     3  C    2.476074   1.452373   0.000000
     4  C    2.773812   2.397838   1.388259   0.000000
     5  C    2.430118   2.801200   2.472636   1.409800   0.000000
     6  C    1.421661   2.449013   2.901243   2.456318   1.429678
     7  N    4.155344   3.758730   2.520430   1.402585   2.256083
     8  C    3.805813   4.180296   3.604096   2.264799   1.407575
     9  C    4.651333   4.621884   3.617526   2.268761   2.298858
    10  H    4.891068   4.254817   2.854039   2.139065   3.228121
    11  H    4.411697   5.022651   4.616214   3.317431   2.235167
    12  H    5.729497   5.674835   4.592638   3.293170   3.357290
    13  H    2.135788   1.085654   2.187122   3.381341   3.886851
    14  H    3.455810   2.221153   1.083688   2.179825   3.463160
    15  H    1.085872   2.129472   3.451899   3.859542   3.417698
    16  H    2.195125   3.432694   3.985167   3.445925   2.197662
                    6          7          8          9         10
     6  C    0.000000
     7  N    3.611376   0.000000
     8  C    2.604116   2.223974   0.000000
     9  C    3.713350   1.344205   1.428169   0.000000
    10  H    4.526636   1.011317   3.203451   2.091890   0.000000
    11  H    3.047176   3.260674   1.081805   2.226193   4.205031
    12  H    4.752664   2.129503   2.284302   1.079362   2.501939
    13  H    3.426883   4.675669   5.263189   5.641038   5.031587
    14  H    3.984834   2.873579   4.440030   4.154123   2.819119
    15  H    2.166403   5.240040   4.735955   5.687352   5.972338
    16  H    1.083935   4.453480   2.958626   4.281847   5.421423
                   11         12         13         14         15
    11  H    0.000000
    12  H    2.745329   0.000000
    13  H    6.106229   6.674445   0.000000
    14  H    5.497256   5.000286   2.535375   0.000000
    15  H    5.205888   6.760662   2.444234   4.342531   0.000000
    16  H    3.013297   5.236182   4.322876   5.068768   2.517589
                   16
    16  H    0.000000
 Stoichiometry    C8H7N
 Framework group  C1[X(C8H7N)]
 Deg. of freedom    42
 Full point group                 C1      NOp   1
 Largest Abelian subgroup         C1      NOp   1
 Largest concise Abelian subgroup C1      NOp   1
                         Standard orientation:                         
 ---------------------------------------------------------------------
 Center     Atomic      Atomic             Coordinates (Angstroms)
 Number     Number       Type             X           Y           Z
 ---------------------------------------------------------------------
      1          6           0       -2.193064    0.643571   -0.000065
      2          6           0       -2.139404   -0.733832   -0.000000
      3          6           0       -0.878614   -1.454801    0.000064
      4          6           0        0.257188   -0.656543    0.000033
      5          6           0        0.234585    0.753076   -0.000029
      6          6           0       -1.017543    1.443114   -0.000069
      7          7           0        1.607036   -1.037535    0.000064
      8          6           0        1.573868    1.186191   -0.000003
      9          6           0        2.418198    0.034335   -0.000001
     10          1           0        1.923226   -1.998153    0.000164
     11          1           0        1.932366    2.206868   -0.000040
     12          1           0        3.494189   -0.050905   -0.000042
     13          1           0       -3.060804   -1.307998    0.000013
     14          1           0       -0.843735   -2.537928    0.000071
     15          1           0       -3.161801    1.134149   -0.000100
     16          1           0       -1.063979    2.526053   -0.000091
 ---------------------------------------------------------------------
 Rotational constants (GHZ):           3.8682162           1.6145867           1.1391200

 **********************************************************************

            Population analysis using the CI Density.

 **********************************************************************

 Orbital symmetries:
       Occupied  (A) (A) (A) (A) (A) (A) (A) (A) (A) (A) (A) (A)
                 (A) (A) (A) (A) (A) (A) (A) (A) (A) (A) (A) (A)
                 (A) (A) (A) (A) (A) (A) (A)
       Virtual   (A) (A) (A) (A) (A) (A) (A) (A) (A) (A) (A) (A)
                 (A) (A) (A) (A) (A) (A) (A) (A) (A) (A) (A) (A)
                 (A) (A) (A) (A) (A) (A) (A) (A) (A) (A) (A) (A)
                 (A) (A) (A) (A) (A) (A) (A) (A) (A) (A) (A) (A)
                 (A) (A) (A) (A) (A) (A) (A) (A) (A) (A) (A) (A)
                 (A) (A) (A) (A) (A) (A) (A) (A) (A) (A) (A) (A)
                 (A) (A) (A) (A) (A) (A) (A) (A) (A) (A) (A) (A)
                 (A) (A) (A) (A) (A) (A) (A) (A) (A) (A) (A) (A)
                 (A) (A) (A) (A) (A) (A) (A) (A) (A) (A) (A) (A)
                 (A) (A) (A) (A) (A) (A) (A) (A) (A) (A) (A) (A)
                 (A) (A) (A) (A) (A) (A) (A) (A) (A) (A) (A) (A)
                 (A) (A) (A) (A) (A) (A) (A) (A) (A) (A) (A) (A)
                 (A) (A) (A) (A) (A) (A) (A) (A) (A) (A)
 The electronic state is 1-A.
 Alpha  occ. eigenvalues --  -14.46148 -10.30485 -10.29784 -10.27400 -10.26750
 Alpha  occ. eigenvalues --  -10.26483 -10.26302 -10.25988 -10.25162  -1.07141
 Alpha  occ. eigenvalues --   -0.92234  -0.86094  -0.82342  -0.78857  -0.70654
 Alpha  occ. eigenvalues --   -0.67329  -0.65350  -0.61451  -0.55577  -0.54410
 Alpha  occ. eigenvalues --   -0.50853  -0.50159  -0.49718  -0.47161  -0.46068
 Alpha  occ. eigenvalues --   -0.41405  -0.41073  -0.40241  -0.33616  -0.28752
 Alpha  occ. eigenvalues --   -0.24616
 Alpha virt. eigenvalues --    0.01254   0.02324   0.04254   0.04804   0.06153
 Alpha virt. eigenvalues --    0.06309   0.06356   0.08024   0.08516   0.08998
 Alpha virt. eigenvalues --    0.09011   0.09353   0.11338   0.11780   0.12995
 Alpha virt. eigenvalues --    0.13092   0.14021   0.15515   0.16507   0.16665
 Alpha virt. eigenvalues --    0.18044   0.18343   0.19300   0.19837   0.20442
 Alpha virt. eigenvalues --    0.21395   0.21902   0.21960   0.22789   0.23440
 Alpha virt. eigenvalues --    0.23956   0.24683   0.24973   0.25661   0.26491
 Alpha virt. eigenvalues --    0.26786   0.26868   0.27788   0.28787   0.29652
 Alpha virt. eigenvalues --    0.30494   0.30870   0.32191   0.33491   0.34235
 Alpha virt. eigenvalues --    0.35477   0.36036   0.37665   0.39607   0.40532
 Alpha virt. eigenvalues --    0.42465   0.44157   0.48202   0.50641   0.56776
 Alpha virt. eigenvalues --    0.63628   0.66642   0.72508   0.72854   0.75353
 Alpha virt. eigenvalues --    0.77240   0.77865   0.78482   0.78936   0.79434
 Alpha virt. eigenvalues --    0.81161   0.81873   0.83139   0.84540   0.84856
 Alpha virt. eigenvalues --    0.86802   0.90934   0.94338   0.94934   0.96240
 Alpha virt. eigenvalues --    0.99785   1.00310   1.01137   1.01796   1.04192
 Alpha virt. eigenvalues --    1.05652   1.08590   1.10437   1.11667   1.14766
 Alpha virt. eigenvalues --    1.17215   1.18539   1.23256   1.23670   1.27083
 Alpha virt. eigenvalues --    1.28217   1.30767   1.31142   1.37946   1.39401
 Alpha virt. eigenvalues --    1.42051   1.42325   1.47073   1.47927   1.50145
 Alpha virt. eigenvalues --    1.54398   1.54755   1.56657   1.57512   1.60355
 Alpha virt. eigenvalues --    1.64737   1.69954   1.85618   1.88727   1.95308
 Alpha virt. eigenvalues --    1.97411   1.97430   2.00841   2.06378   2.07070
 Alpha virt. eigenvalues --    2.07997   2.10485   2.13901   2.19675   2.23173
 Alpha virt. eigenvalues --    2.23333   2.26846   2.29559   2.32054   2.34839
 Alpha virt. eigenvalues --    2.35309   2.38218   2.44503   2.47778   2.52935
 Alpha virt. eigenvalues --    2.59665   2.63163   2.68638   2.72294   2.72694
 Alpha virt. eigenvalues --    2.73958   2.79991   2.86798   2.90247   2.91858
 Alpha virt. eigenvalues --    3.02023   3.04892   3.16086   3.30856   3.48016
 Alpha virt. eigenvalues --    4.21659   4.30862   4.34345   4.37777   4.42274
 Alpha virt. eigenvalues --    4.46783   4.54121   4.58170   4.84244
          Condensed to atoms (all electrons):
               1          2          3          4          5          6
     1  C    5.446106   0.515256   0.278036  -0.396348  -0.189649  -0.074692
     2  C    0.515256   5.770026  -0.434883   0.323650  -0.369621   0.520993
     3  C    0.278036  -0.434883  14.034499  -2.352388  -4.326063  -2.699126
     4  C   -0.396348   0.323650  -2.352388  13.421139  -3.479629  -1.536981
     5  C   -0.189649  -0.369621  -4.326063  -3.479629  15.757768   0.088322
     6  C   -0.074692   0.520993  -2.699126  -1.536981   0.088322  12.690460
     7  N   -0.011946   0.009481  -0.478067  -0.272124   0.783643   0.076899
     8  C    0.194291  -0.331360   3.358410   1.687242  -5.657303  -3.466858
     9  C   -0.081538   0.038311  -1.113738  -0.636456   1.925107   0.914057
    10  H   -0.004093  -0.004809  -0.143076  -0.082960   0.193506   0.027385
    11  H    0.000514   0.000387   0.009421   0.071684  -0.092342  -0.028815
    12  H    0.000698   0.000072   0.020266   0.068233  -0.048292  -0.017217
    13  H   -0.016282   0.319245  -0.046159   0.025133  -0.003528   0.025452
    14  H    0.024996   0.001399   0.313320  -0.040662   0.020089  -0.020809
    15  H    0.318821  -0.016070   0.024541  -0.018323   0.033958  -0.040947
    16  H   -0.020995   0.023827  -0.045042   0.049174   0.039957   0.310847
               7          8          9         10         11         12
     1  C   -0.011946   0.194291  -0.081538  -0.004093   0.000514   0.000698
     2  C    0.009481  -0.331360   0.038311  -0.004809   0.000387   0.000072
     3  C   -0.478067   3.358410  -1.113738  -0.143076   0.009421   0.020266
     4  C   -0.272124   1.687242  -0.636456  -0.082960   0.071684   0.068233
     5  C    0.783643  -5.657303   1.925107   0.193506  -0.092342  -0.048292
     6  C    0.076899  -3.466858   0.914057   0.027385  -0.028815  -0.017217
     7  N    7.179169  -0.590214   0.508133   0.273218   0.007590  -0.051181
     8  C   -0.590214  12.544488  -2.159333  -0.012400   0.401308  -0.025862
     9  C    0.508133  -2.159333   6.601104  -0.017460  -0.070050   0.368409
    10  H    0.273218  -0.012400  -0.017460   0.332332  -0.000079  -0.002427
    11  H    0.007590   0.401308  -0.070050  -0.000079   0.480171  -0.000562
    12  H   -0.051181  -0.025862   0.368409  -0.002427  -0.000562   0.463263
    13  H   -0.000389  -0.001828   0.001431  -0.000001   0.000000  -0.000000
    14  H   -0.003837  -0.008547   0.008652   0.001951   0.000002   0.000002
    15  H    0.000212   0.000978   0.000119  -0.000000  -0.000002  -0.000000
    16  H   -0.000782  -0.067904   0.004664   0.000003   0.001451  -0.000001
              13         14         15         16
     1  C   -0.016282   0.024996   0.318821  -0.020995
     2  C    0.319245   0.001399  -0.016070   0.023827
     3  C   -0.046159   0.313320   0.024541  -0.045042
     4  C    0.025133  -0.040662  -0.018323   0.049174
     5  C   -0.003528   0.020089   0.033958   0.039957
     6  C    0.025452  -0.020809  -0.040947   0.310847
     7  N   -0.000389  -0.003837   0.000212  -0.000782
     8  C   -0.001828  -0.008547   0.000978  -0.067904
     9  C    0.001431   0.008652   0.000119   0.004664
    10  H   -0.000001   0.001951  -0.000000   0.000003
    11  H    0.000000   0.000002  -0.000002   0.001451
    12  H   -0.000000   0.000002  -0.000000  -0.000001
    13  H    0.525412  -0.003341  -0.004869  -0.000135
    14  H   -0.003341   0.523359  -0.000126   0.000013
    15  H   -0.004869  -0.000126   0.528001  -0.003494
    16  H   -0.000135   0.000013  -0.003494   0.521214
 Mulliken charges:
               1
     1  C    0.016825
     2  C   -0.365903
     3  C   -0.399951
     4  C   -0.830385
     5  C    1.324076
     6  C   -0.768970
     7  N   -0.429808
     8  C    0.134893
     9  C   -0.291410
    10  H    0.438909
    11  H    0.219323
    12  H    0.224599
    13  H    0.179860
    14  H    0.183540
    15  H    0.177198
    16  H    0.187203
 Sum of Mulliken charges =  -0.00000
 Mulliken charges with hydrogens summed into heavy atoms:
               1
     1  C    0.194023
     2  C   -0.186043
     3  C   -0.216411
     4  C   -0.830385
     5  C    1.324076
     6  C   -0.581767
     7  N    0.009101
     8  C    0.354216
     9  C   -0.066811
 Electronic spatial extent (au):  <R**2>=           1022.4053
 Charge=             -0.0000 electrons
 Dipole moment (field-independent basis, Debye):
    X=              4.0999    Y=             -1.4031    Z=              0.0001  Tot=              4.3333
 Quadrupole moment (field-independent basis, Debye-Ang):
   XX=            -45.3593   YY=            -47.0207   ZZ=            -61.1555
   XY=             -2.3796   XZ=              0.0002   YZ=             -0.0005
 Traceless Quadrupole moment (field-independent basis, Debye-Ang):
   XX=              5.8192   YY=              4.1578   ZZ=             -9.9770
   XY=             -2.3796   XZ=              0.0002   YZ=             -0.0005
 Octapole moment (field-independent basis, Debye-Ang**2):
  XXX=             26.8272  YYY=             -9.7979  ZZZ=              0.0003  XYY=             15.1621
  XXY=             -7.3459  XXZ=             -0.0003  XZZ=              4.6126  YZZ=             -1.6257
  YYZ=              0.0008  XYZ=             -0.0010
 Hexadecapole moment (field-independent basis, Debye-Ang**3):
 XXXX=           -858.4711 YYYY=           -405.7025 ZZZZ=            -91.5254 XXXY=            -18.7092
 XXXZ=             -0.0059 YYYX=            -15.2716 YYYZ=              0.0046 ZZZX=             -0.0058
 ZZZY=              0.0100 XXYY=           -201.4693 XXZZ=           -205.2323 YYZZ=           -107.3876
 XXYZ=             -0.0007 YYXZ=              0.0006 ZZXY=             -1.8091
 N-N= 3.984497549383D+02 E-N=-1.638731816262D+03  KE= 3.601206420921D+02
 Unable to Open any file for archive entry.
 1\1\GINC-EXP-2-15\FOpt\RCAM-B3LYP TD-FC\6-31+G(d)\C8H7N1\SCAPARAS\11-J
 un-2021\0\\# td= (nstates=6, root=1) CAM-B3LYP/6-31+G* Opt density=cur
 rent\\FuncsCAM-B3LYPII1st\\0,1\C,-2.1801446621,0.6849286143,-0.0000299
 027\C,-2.1517128071,-0.6932254619,0.0000354657\C,-0.9043348948,-1.4371
 576861,0.0000997207\C,0.2458924616,-0.6598297224,0.0000680221\C,0.2491
 030244,0.7499664488,0.0000063659\C,-0.990181278,1.4628145198,-0.000033
 6372\N,1.5885388412,-1.0654729789,0.0000999412\C,1.5960912321,1.158487
 9515,0.0000322197\C,2.4191893135,-0.0086345714,0.0000349051\H,1.887087
 3375,-2.0317188148,0.0001997471\H,1.9732170668,2.1724300544,-0.0000048
 977\H,3.4934392971,-0.1135606866,-0.0000068033\H,-3.0834710896,-1.2504
 245307,0.0000481462\H,-0.8892926653,-2.5207416998,0.0001066061\H,-3.13
 97369866,1.1931619161,-0.000064145\H,-1.0167811906,2.5464226478,-0.000
 0557541\\Version=AS64L-G16RevC.01\State=1-A\HF=-363.613419\RMSD=8.113e
 -09\RMSF=3.419e-05\Dipole=1.6130146,-0.5520046,0.0000359\Quadrupole=4.
 3264428,3.091212,-7.4176548,-1.7691838,0.0001552,-0.0003732\PG=C01 [X(
 C8H7N1)]\\@
 The archive entry for this job was punched.


 Any fool can criticize, condemn, and complain -- and most do.
 -- Dale Carnegie
 Job cpu time:       0 days  3 hours 46 minutes 37.1 seconds.
 Elapsed time:       0 days  0 hours 57 minutes 30.1 seconds.
 File lengths (MBytes):  RWF=    239 Int=      0 D2E=      0 Chk=     11 Scr=      1
 Normal termination of Gaussian 16 at Fri Jun 11 08:33:33 2021.
