 Entering Gaussian System, Link 0=/opt/gaussian/16.C.01/g16/g16
 Initial command:
 /opt/gaussian/16.C.01/g16/l1.exe "/scratch/scaparas/38762240/Gau-31221.inp" -scrdir="/scratch/scaparas/38762240/"
 Entering Link 1 = /opt/gaussian/16.C.01/g16/l1.exe PID=     31222.
  
 Copyright (c) 1988-2019, Gaussian, Inc.  All Rights Reserved.
  
 This is part of the Gaussian(R) 16 program.  It is based on
 the Gaussian(R) 09 system (copyright 2009, Gaussian, Inc.),
 the Gaussian(R) 03 system (copyright 2003, Gaussian, Inc.),
 the Gaussian(R) 98 system (copyright 1998, Gaussian, Inc.),
 the Gaussian(R) 94 system (copyright 1995, Gaussian, Inc.),
 the Gaussian 92(TM) system (copyright 1992, Gaussian, Inc.),
 the Gaussian 90(TM) system (copyright 1990, Gaussian, Inc.),
 the Gaussian 88(TM) system (copyright 1988, Gaussian, Inc.),
 the Gaussian 86(TM) system (copyright 1986, Carnegie Mellon
 University), and the Gaussian 82(TM) system (copyright 1983,
 Carnegie Mellon University). Gaussian is a federally registered
 trademark of Gaussian, Inc.
  
 This software contains proprietary and confidential information,
 including trade secrets, belonging to Gaussian, Inc.
  
 This software is provided under written license and may be
 used, copied, transmitted, or stored only in accord with that
 written license.
  
 The following legend is applicable only to US Government
 contracts under FAR:
  
                    RESTRICTED RIGHTS LEGEND
  
 Use, reproduction and disclosure by the US Government is
 subject to restrictions as set forth in subparagraphs (a)
 and (c) of the Commercial Computer Software - Restricted
 Rights clause in FAR 52.227-19.
  
 Gaussian, Inc.
 340 Quinnipiac St., Bldg. 40, Wallingford CT 06492
  
  
 ---------------------------------------------------------------
 Warning -- This program may not be used in any manner that
 competes with the business of Gaussian, Inc. or will provide
 assistance to any competitor of Gaussian, Inc.  The licensee
 of this program is prohibited from giving any competitor of
 Gaussian, Inc. access to this program.  By using this program,
 the user acknowledges that Gaussian, Inc. is engaged in the
 business of creating and licensing software in the field of
 computational chemistry and represents and warrants to the
 licensee that it is not a competitor of Gaussian, Inc. and that
 it will not use this program in any manner prohibited above.
 ---------------------------------------------------------------
  

 Cite this work as:
 Gaussian 16, Revision C.01,
 M. J. Frisch, G. W. Trucks, H. B. Schlegel, G. E. Scuseria, 
 M. A. Robb, J. R. Cheeseman, G. Scalmani, V. Barone, 
 G. A. Petersson, H. Nakatsuji, X. Li, M. Caricato, A. V. Marenich, 
 J. Bloino, B. G. Janesko, R. Gomperts, B. Mennucci, H. P. Hratchian, 
 J. V. Ortiz, A. F. Izmaylov, J. L. Sonnenberg, D. Williams-Young, 
 F. Ding, F. Lipparini, F. Egidi, J. Goings, B. Peng, A. Petrone, 
 T. Henderson, D. Ranasinghe, V. G. Zakrzewski, J. Gao, N. Rega, 
 G. Zheng, W. Liang, M. Hada, M. Ehara, K. Toyota, R. Fukuda, 
 J. Hasegawa, M. Ishida, T. Nakajima, Y. Honda, O. Kitao, H. Nakai, 
 T. Vreven, K. Throssell, J. A. Montgomery, Jr., J. E. Peralta, 
 F. Ogliaro, M. J. Bearpark, J. J. Heyd, E. N. Brothers, K. N. Kudin, 
 V. N. Staroverov, T. A. Keith, R. Kobayashi, J. Normand, 
 K. Raghavachari, A. P. Rendell, J. C. Burant, S. S. Iyengar, 
 J. Tomasi, M. Cossi, J. M. Millam, M. Klene, C. Adamo, R. Cammi, 
 J. W. Ochterski, R. L. Martin, K. Morokuma, O. Farkas, 
 J. B. Foresman, and D. J. Fox, Gaussian, Inc., Wallingford CT, 2019.
 
 ******************************************
 Gaussian 16:  ES64L-G16RevC.01  3-Jul-2019
                 4-Mar-2021 
 ******************************************
 %NProcShared=2
 Will use up to    2 processors via shared memory.
 %Chk=FuncsN12SX2nd.chk
 ------------------------------------------------------------
 # td= (nstates=6, root=2) N12SX/6-31G(d) Opt density=current
 ------------------------------------------------------------
 1/18=20,19=15,26=3,38=1/1,3;
 2/9=110,12=2,17=6,18=5,40=1/2;
 3/5=1,6=6,7=1,11=9,25=1,30=1,71=1,74=-69/1,2,3,8;
 4//1;
 5/5=2,38=5/2;
 8/6=1,10=2,107=2,108=6/1;
 9/8=2,15=2,41=6,42=1,70=2/14;
 10/5=4,28=2/2;
 6/7=2,8=2,9=2,10=2,22=-1/1;
 7/12=6,13=5,14=2/1,2,3,16;
 1/18=20,19=15,26=3/3(2);
 2/9=110/2;
 99//99;
 2/9=110/2;
 3/5=1,6=6,7=1,11=9,25=1,30=1,71=1,74=-69/1,2,3,8;
 4/5=5,16=3,69=1/1;
 5/5=2,38=5/2;
 8/6=1,10=2,107=2,108=6/1;
 9/8=2,15=2,41=6,42=1,49=4,70=2/14;
 10/5=4,28=2/2;
 7/12=6,13=5,14=2/1,2,3,16;
 1/18=20,19=15,26=3/3(-8);
 2/9=110/2;
 6/7=2,8=2,9=2,10=2,22=-1/1;
 99/9=10/99;
 -------------
 FuncsN12SX2nd
 -------------
 Symbolic Z-matrix:
 Charge =  0 Multiplicity = 1
 C                    -2.15886   0.68918   0.02974 
 C                    -2.1332   -0.71621  -0.0157 
 C                    -0.93572  -1.41751  -0.00819 
 C                     0.2487   -0.67115   0.00319 
 C                     0.25025   0.7522   -0.00266 
 C                    -0.98322   1.4256   -0.0173 
 N                     1.5657   -1.08029   0.00974 
 C                     1.62609   1.16684  -0.00626 
 C                     2.39038   0.03059   0.00688 
 H                     1.87967  -2.03756   0.01447 
 H                     1.9972    2.18233  -0.0192 
 H                     3.46481  -0.08787   0.00753 
 H                    -3.075    -1.264    -0.03434 
 H                    -0.91687  -2.50699  -0.02386 
 H                    -3.12254   1.20382   0.09559 
 H                    -1.01374   2.5151   -0.04664 
 

 GradGradGradGradGradGradGradGradGradGradGradGradGradGradGradGradGradGrad
 Berny optimization.
 Initialization pass.
                           ----------------------------
                           !    Initial Parameters    !
                           ! (Angstroms and Degrees)  !
 --------------------------                            --------------------------
 ! Name  Definition              Value          Derivative Info.                !
 --------------------------------------------------------------------------------
 ! R1    R(1,2)                  1.4064         estimate D2E/DX2                !
 ! R2    R(1,6)                  1.388          estimate D2E/DX2                !
 ! R3    R(1,15)                 1.0945         estimate D2E/DX2                !
 ! R4    R(2,3)                  1.3877         estimate D2E/DX2                !
 ! R5    R(2,13)                 1.0897         estimate D2E/DX2                !
 ! R6    R(3,4)                  1.4            estimate D2E/DX2                !
 ! R7    R(3,14)                 1.0898         estimate D2E/DX2                !
 ! R8    R(4,5)                  1.4234         estimate D2E/DX2                !
 ! R9    R(4,7)                  1.3791         estimate D2E/DX2                !
 ! R10   R(5,6)                  1.4054         estimate D2E/DX2                !
 ! R11   R(5,8)                  1.437          estimate D2E/DX2                !
 ! R12   R(6,16)                 1.0903         estimate D2E/DX2                !
 ! R13   R(7,9)                  1.3835         estimate D2E/DX2                !
 ! R14   R(7,10)                 1.0075         estimate D2E/DX2                !
 ! R15   R(8,9)                  1.3694         estimate D2E/DX2                !
 ! R16   R(8,11)                 1.0813         estimate D2E/DX2                !
 ! R17   R(9,12)                 1.0809         estimate D2E/DX2                !
 ! A1    A(2,1,6)              120.9061         estimate D2E/DX2                !
 ! A2    A(2,1,15)             119.2028         estimate D2E/DX2                !
 ! A3    A(6,1,15)             119.8895         estimate D2E/DX2                !
 ! A4    A(1,2,3)              121.3707         estimate D2E/DX2                !
 ! A5    A(1,2,13)             119.153          estimate D2E/DX2                !
 ! A6    A(3,2,13)             119.4616         estimate D2E/DX2                !
 ! A7    A(2,3,4)              117.4292         estimate D2E/DX2                !
 ! A8    A(2,3,14)             121.3371         estimate D2E/DX2                !
 ! A9    A(4,3,14)             121.2289         estimate D2E/DX2                !
 ! A10   A(3,4,5)              122.2756         estimate D2E/DX2                !
 ! A11   A(3,4,7)              130.5258         estimate D2E/DX2                !
 ! A12   A(5,4,7)              107.1964         estimate D2E/DX2                !
 ! A13   A(4,5,6)              118.5703         estimate D2E/DX2                !
 ! A14   A(4,5,8)              106.8342         estimate D2E/DX2                !
 ! A15   A(6,5,8)              134.5914         estimate D2E/DX2                !
 ! A16   A(1,6,5)              119.2617         estimate D2E/DX2                !
 ! A17   A(1,6,16)             120.4875         estimate D2E/DX2                !
 ! A18   A(5,6,16)             120.2412         estimate D2E/DX2                !
 ! A19   A(4,7,9)              109.3301         estimate D2E/DX2                !
 ! A20   A(4,7,10)             125.4173         estimate D2E/DX2                !
 ! A21   A(9,7,10)             125.2525         estimate D2E/DX2                !
 ! A22   A(5,8,9)              107.1528         estimate D2E/DX2                !
 ! A23   A(5,8,11)             126.8451         estimate D2E/DX2                !
 ! A24   A(9,8,11)             126.002          estimate D2E/DX2                !
 ! A25   A(7,9,8)              109.4848         estimate D2E/DX2                !
 ! A26   A(7,9,12)             120.2971         estimate D2E/DX2                !
 ! A27   A(8,9,12)             130.2163         estimate D2E/DX2                !
 ! D1    D(6,1,2,3)              4.8678         estimate D2E/DX2                !
 ! D2    D(6,1,2,13)          -176.5353         estimate D2E/DX2                !
 ! D3    D(15,1,2,3)          -175.5899         estimate D2E/DX2                !
 ! D4    D(15,1,2,13)            3.0069         estimate D2E/DX2                !
 ! D5    D(2,1,6,5)             -5.0972         estimate D2E/DX2                !
 ! D6    D(2,1,6,16)           176.0299         estimate D2E/DX2                !
 ! D7    D(15,1,6,5)           175.3637         estimate D2E/DX2                !
 ! D8    D(15,1,6,16)           -3.5093         estimate D2E/DX2                !
 ! D9    D(1,2,3,4)             -1.9941         estimate D2E/DX2                !
 ! D10   D(1,2,3,14)           178.7955         estimate D2E/DX2                !
 ! D11   D(13,2,3,4)           179.4132         estimate D2E/DX2                !
 ! D12   D(13,2,3,14)            0.2029         estimate D2E/DX2                !
 ! D13   D(2,3,4,5)             -0.4651         estimate D2E/DX2                !
 ! D14   D(2,3,4,7)           -179.8522         estimate D2E/DX2                !
 ! D15   D(14,3,4,5)           178.7462         estimate D2E/DX2                !
 ! D16   D(14,3,4,7)            -0.641          estimate D2E/DX2                !
 ! D17   D(3,4,5,6)              0.1482         estimate D2E/DX2                !
 ! D18   D(3,4,5,8)           -179.2217         estimate D2E/DX2                !
 ! D19   D(7,4,5,6)            179.6606         estimate D2E/DX2                !
 ! D20   D(7,4,5,8)              0.2907         estimate D2E/DX2                !
 ! D21   D(3,4,7,9)            179.3989         estimate D2E/DX2                !
 ! D22   D(3,4,7,10)            -0.5167         estimate D2E/DX2                !
 ! D23   D(5,4,7,9)             -0.0587         estimate D2E/DX2                !
 ! D24   D(5,4,7,10)          -179.9743         estimate D2E/DX2                !
 ! D25   D(4,5,6,1)              2.618          estimate D2E/DX2                !
 ! D26   D(4,5,6,16)          -178.5062         estimate D2E/DX2                !
 ! D27   D(8,5,6,1)           -178.2289         estimate D2E/DX2                !
 ! D28   D(8,5,6,16)             0.6469         estimate D2E/DX2                !
 ! D29   D(4,5,8,9)             -0.4171         estimate D2E/DX2                !
 ! D30   D(4,5,8,11)           179.4533         estimate D2E/DX2                !
 ! D31   D(6,5,8,9)           -179.64           estimate D2E/DX2                !
 ! D32   D(6,5,8,11)             0.2304         estimate D2E/DX2                !
 ! D33   D(4,7,9,8)             -0.2113         estimate D2E/DX2                !
 ! D34   D(4,7,9,12)          -179.7792         estimate D2E/DX2                !
 ! D35   D(10,7,9,8)           179.7044         estimate D2E/DX2                !
 ! D36   D(10,7,9,12)            0.1366         estimate D2E/DX2                !
 ! D37   D(5,8,9,7)              0.3888         estimate D2E/DX2                !
 ! D38   D(5,8,9,12)           179.9002         estimate D2E/DX2                !
 ! D39   D(11,8,9,7)          -179.483          estimate D2E/DX2                !
 ! D40   D(11,8,9,12)            0.0284         estimate D2E/DX2                !
 --------------------------------------------------------------------------------
 Trust Radius=3.00D-01 FncErr=1.00D-07 GrdErr=1.00D-06 EigMax=2.50D+02 EigMin=1.00D-04
 Number of steps in this run=     94 maximum allowed number of steps=    100.
 GradGradGradGradGradGradGradGradGradGradGradGradGradGradGradGradGradGrad

                          Input orientation:                          
 ---------------------------------------------------------------------
 Center     Atomic      Atomic             Coordinates (Angstroms)
 Number     Number       Type             X           Y           Z
 ---------------------------------------------------------------------
      1          6           0       -2.158860    0.689180    0.029740
      2          6           0       -2.133200   -0.716210   -0.015700
      3          6           0       -0.935720   -1.417510   -0.008190
      4          6           0        0.248700   -0.671150    0.003190
      5          6           0        0.250250    0.752200   -0.002660
      6          6           0       -0.983220    1.425600   -0.017300
      7          7           0        1.565700   -1.080290    0.009740
      8          6           0        1.626090    1.166840   -0.006260
      9          6           0        2.390380    0.030590    0.006880
     10          1           0        1.879670   -2.037560    0.014470
     11          1           0        1.997200    2.182330   -0.019200
     12          1           0        3.464810   -0.087870    0.007530
     13          1           0       -3.075000   -1.264000   -0.034340
     14          1           0       -0.916870   -2.506990   -0.023860
     15          1           0       -3.122540    1.203820    0.095590
     16          1           0       -1.013740    2.515100   -0.046640
 ---------------------------------------------------------------------
                    Distance matrix (angstroms):
                    1          2          3          4          5
     1  C    0.000000
     2  C    1.406359   0.000000
     3  C    2.436320   1.387745   0.000000
     4  C    2.765420   2.382401   1.400012   0.000000
     5  C    2.410152   2.799506   2.472690   1.423363   0.000000
     6  C    1.388041   2.431009   2.843521   2.431955   1.405393
     7  N    4.123563   3.716862   2.524112   1.379104   2.255789
     8  C    3.815141   4.204548   3.638920   2.296846   1.436967
     9  C    4.596721   4.584866   3.627694   2.253718   2.258532
    10  H    4.872891   4.224926   2.882949   2.127737   3.230799
    11  H    4.416416   5.045964   4.643381   3.346655   2.257738
    12  H    5.677144   5.633211   4.597048   3.268577   3.322532
    13  H    2.158317   1.089683   2.144940   3.376368   3.888876
    14  H    3.429419   2.164814   1.089756   2.174763   3.461927
    15  H    1.094472   2.162798   3.415307   3.858667   3.404310
    16  H    2.156645   3.419870   3.933572   3.427598   2.169659
                    6          7          8          9         10
     6  C    0.000000
     7  N    3.574522   0.000000
     8  C    2.622132   2.247998   0.000000
     9  C    3.650728   1.383532   1.369444   0.000000
    10  H    4.493398   1.007455   3.214485   2.130288   0.000000
    11  H    3.074987   3.291158   1.081254   2.187523   4.221661
    12  H    4.698529   2.142784   2.226068   1.080941   2.512769
    13  H    3.407313   4.644544   5.292449   5.616764   5.014931
    14  H    3.933155   2.863522   4.468107   4.168712   2.835925
    15  H    2.153746   5.215757   4.749866   5.637076   5.961143
    16  H    1.090322   4.425327   2.964479   4.214699   5.394652
                   11         12         13         14         15
    11  H    0.000000
    12  H    2.703406   0.000000
    13  H    6.132262   6.644859   0.000000
    14  H    5.521010   5.005222   2.490514   0.000000
    15  H    5.213674   6.713375   2.471695   4.318490   0.000000
    16  H    3.029397   5.180328   4.304711   5.023076   2.487312
                   16
    16  H    0.000000
 Stoichiometry    C8H7N
 Framework group  C1[X(C8H7N)]
 Deg. of freedom    42
 Full point group                 C1      NOp   1
 Largest Abelian subgroup         C1      NOp   1
 Largest concise Abelian subgroup C1      NOp   1
                         Standard orientation:                         
 ---------------------------------------------------------------------
 Center     Atomic      Atomic             Coordinates (Angstroms)
 Number     Number       Type             X           Y           Z
 ---------------------------------------------------------------------
      1          6           0       -2.158858    0.689183    0.029741
      2          6           0       -2.133200   -0.716207   -0.015699
      3          6           0       -0.935722   -1.417509   -0.008189
      4          6           0        0.248700   -0.671151    0.003191
      5          6           0        0.250252    0.752199   -0.002659
      6          6           0       -0.983217    1.425601   -0.017299
      7          7           0        1.565699   -1.080293    0.009741
      8          6           0        1.626093    1.166837   -0.006259
      9          6           0        2.390381    0.030585    0.006881
     10          1           0        1.879667   -2.037564    0.014471
     11          1           0        1.997205    2.182326   -0.019199
     12          1           0        3.464811   -0.087877    0.007531
     13          1           0       -3.075001   -1.263995   -0.034339
     14          1           0       -0.916873   -2.506989   -0.023859
     15          1           0       -3.122537    1.203825    0.095591
     16          1           0       -1.013735    2.515101   -0.046639
 ---------------------------------------------------------------------
 Rotational constants (GHZ):           3.8861076           1.6317910           1.1494058
 Standard basis: 6-31G(d) (6D, 7F)
 There are   149 symmetry adapted cartesian basis functions of A   symmetry.
 There are   149 symmetry adapted basis functions of A   symmetry.
   149 basis functions,   280 primitive gaussians,   149 cartesian basis functions
    31 alpha electrons       31 beta electrons
       nuclear repulsion energy       400.0099183022 Hartrees.
 NAtoms=   16 NActive=   16 NUniq=   16 SFac= 1.00D+00 NAtFMM=   60 NAOKFM=F Big=F
 Integral buffers will be    131072 words long.
 Regular integral format.
 Two-electron integral symmetry is turned on.
 One-electron integrals computed using PRISM.
 NBasis=   149 RedAO= T EigKep=  4.13D-04  NBF=   149
 NBsUse=   149 1.00D-06 EigRej= -1.00D+00 NBFU=   149
 ExpMin= 1.61D-01 ExpMax= 4.17D+03 ExpMxC= 6.27D+02 IAcc=3 IRadAn=         5 AccDes= 0.00D+00
 Harris functional with IExCor= 5547 and IRadAn=       5 diagonalized for initial guess.
 HarFok:  IExCor= 5547 AccDes= 0.00D+00 IRadAn=         5 IDoV= 1 UseB2=F ITyADJ=14
 ICtDFT=  3500011 ScaDFX=  1.000000  1.000000  1.000000  1.000000
 FoFCou: FMM=F IPFlag=           0 FMFlag=      100000 FMFlg1=           0
         NFxFlg=           0 DoJE=T BraDBF=F KetDBF=T FulRan=T
         wScrn=  0.000000 ICntrl=       500 IOpCl=  0 I1Cent=   200000004 NGrid=           0
         NMat0=    1 NMatS0=      1 NMatT0=    0 NMatD0=    1 NMtDS0=    0 NMtDT0=    0
 Petite list used in FoFCou.
 Requested convergence on RMS density matrix=1.00D-08 within 128 cycles.
 Requested convergence on MAX density matrix=1.00D-06.
 Requested convergence on             energy=1.00D-06.
 No special actions if energy rises.
 Integral accuracy reduced to 1.0D-05 until final iterations.
 Initial convergence to 1.0D-05 achieved.  Increase integral accuracy.
 SCF Done:  E(RN12SX) =  -363.651854015     A.U. after   15 cycles
            NFock= 15  Conv=0.43D-08     -V/T= 2.0112
 DoSCS=F DFT=T ScalE2(SS,OS)=  1.000000  1.000000
 ExpMin= 1.61D-01 ExpMax= 4.17D+03 ExpMxC= 6.27D+02 IAcc=3 IRadAn=         5 AccDes= 0.00D+00
 HarFok:  IExCor=  205 AccDes= 0.00D+00 IRadAn=         5 IDoV=-2 UseB2=F ITyADJ=14
 ICtDFT= 12500011 ScaDFX=  1.000000  1.000000  1.000000  1.000000
 Range of M.O.s used for correlation:    10   149
 NBasis=   149 NAE=    31 NBE=    31 NFC=     9 NFV=     0
 NROrb=    140 NOA=    22 NOB=    22 NVA=   118 NVB=   118
 Orbital symmetries:
       Occupied  (A) (A) (A) (A) (A) (A) (A) (A) (A) (A) (A) (A)
                 (A) (A) (A) (A) (A) (A) (A) (A) (A) (A) (A) (A)
                 (A) (A) (A) (A) (A) (A) (A)
       Virtual   (A) (A) (A) (A) (A) (A) (A) (A) (A) (A) (A) (A)
                 (A) (A) (A) (A) (A) (A) (A) (A) (A) (A) (A) (A)
                 (A) (A) (A) (A) (A) (A) (A) (A) (A) (A) (A) (A)
                 (A) (A) (A) (A) (A) (A) (A) (A) (A) (A) (A) (A)
                 (A) (A) (A) (A) (A) (A) (A) (A) (A) (A) (A) (A)
                 (A) (A) (A) (A) (A) (A) (A) (A) (A) (A) (A) (A)
                 (A) (A) (A) (A) (A) (A) (A) (A) (A) (A) (A) (A)
                 (A) (A) (A) (A) (A) (A) (A) (A) (A) (A) (A) (A)
                 (A) (A) (A) (A) (A) (A) (A) (A) (A) (A) (A) (A)
                 (A) (A) (A) (A) (A) (A) (A) (A) (A) (A)
    24 initial guesses have been made.
 Convergence on wavefunction:    0.000001000000000
 Iteration     1 Dimension    24 NMult     0 NNew     24
 CISAX will form    24 AO SS matrices at one time.
 New state      1 was old state      2
 New state      2 was old state      1
 New state      3 was old state      5
 New state      4 was old state      7
 New state      5 was old state     10
 New state      6 was old state      9
 Iteration     2 Dimension    36 NMult    24 NNew     12
 New state      4 was old state      5
 New state      5 was old state      4
 New state      6 was old state      7
 Iteration     3 Dimension    48 NMult    36 NNew     12
 New state      5 was old state      6
 New state      6 was old state      5
 Iteration     4 Dimension    60 NMult    48 NNew     12
 Iteration     5 Dimension    72 NMult    60 NNew     12
 Iteration     6 Dimension    84 NMult    72 NNew     12
 Iteration     7 Dimension    96 NMult    84 NNew     12
 Iteration     8 Dimension   108 NMult    96 NNew     12
 Iteration     9 Dimension   120 NMult   108 NNew     12
 Iteration    10 Dimension   128 NMult   120 NNew      8
 Iteration    11 Dimension   132 NMult   128 NNew      4
 Iteration    12 Dimension   134 NMult   132 NNew      2
 ***********************************************************************
 Excited states from <AA,BB:AA,BB> singles matrix:
 ***********************************************************************
 
 Ground to excited state transition densities written to RWF  633
 Ground to excited state transition electric dipole moments (Au):
       state          X           Y           Z        Dip. S.      Osc.
         1        -0.4005      0.6364     -0.0136      0.5657      0.0686
         2        -0.5845      0.0041     -0.0059      0.3417      0.0424
         3        -1.3984     -0.5422     -0.0091      2.2496      0.3472
         4         1.5298      0.1086     -0.0106      2.3522      0.3811
         5         0.6457     -0.9296     -0.0086      1.2812      0.2158
         6         0.0754      0.0106      0.0233      0.0063      0.0011
 Ground to excited state transition velocity dipole moments (Au):
       state          X           Y           Z        Dip. S.      Osc.
         1         0.0662     -0.1263      0.0035      0.0204      0.0746
         2         0.1036     -0.0020      0.0013      0.0107      0.0385
         3         0.3201      0.1296      0.0023      0.1193      0.3435
         4        -0.3632     -0.0251      0.0050      0.1326      0.3636
         5        -0.1646      0.2370      0.0030      0.0833      0.2197
         6        -0.0187     -0.0023     -0.0196      0.0007      0.0019
 Ground to excited state transition magnetic dipole moments (Au):
       state          X           Y           Z
         1         0.0025      0.0049      0.0623
         2         0.0040     -0.0022     -0.0348
         3        -0.0010      0.0006     -0.4744
         4        -0.0043      0.0032      0.2486
         5         0.0027      0.0098      0.0124
         6         0.1854      0.0231      0.0313
 Ground to excited state transition velocity quadrupole moments (Au):
       state          XX          YY          ZZ          XY          XZ          YZ
         1         0.1612     -0.0857     -0.0085     -0.0265     -0.0088      0.0039
         2         0.1082     -0.1565      0.0062      0.0009      0.0006      0.0061
         3         0.1686     -0.0890     -0.0034     -0.3317     -0.0067     -0.0029
         4         0.2635     -0.0206      0.0344      0.0690     -0.0140      0.0060
         5         0.3283      0.0455      0.0229     -0.1830     -0.0118      0.0002
         6        -0.0004     -0.0022     -0.0002      0.0195     -0.0636      0.1205
 <0|del|b> * <b|rxdel|0> + <0|del|b> * <b|delr+rdel|0>
 Rotatory Strengths (R) in cgs (10**-40 erg-esu-cm/Gauss)
       state          XX          YY          ZZ    R(velocity)    E-M Angle
         1        -3.1308      1.4315      0.7766     -0.3076       91.52
         2        -0.0722      1.9166     -0.4126      0.4773       84.06
         3        -1.4218     -2.4155     -0.2672     -1.3682       90.47
         4         1.6736      0.3646      5.8498      2.6294       88.28
         5         6.4183      0.1645     -1.2374      1.7818       65.65
         6        -1.6511     -8.2393     -1.5552     -3.8152      143.35
 1/2[<0|r|b>*<b|rxdel|0> + (<0|rxdel|b>*<b|r|0>)*]
 Rotatory Strengths (R) in cgs (10**-40 erg-esu-cm/Gauss)
       state          XX          YY          ZZ     R(length)
         1         0.6949     -2.2059      0.6006     -0.3035
         2         1.6620      0.0064     -0.1457      0.5076
         3        -0.9704      0.2183     -3.0450     -1.2657
         4         4.6269     -0.2447      1.8569      2.0797
         5        -1.2329      6.4260      0.0754      1.7562
         6        -9.8877     -0.1727     -0.5165     -3.5256
  1/2[<0|del|b>*<b|r|0> + (<0|r|b>*<b|del|0>)*] (Au)
       state          X           Y           Z        Dip. S.   Osc.(frdel)
         1        -0.0265     -0.0804     -0.0000      0.1070      0.0713
         2        -0.0606     -0.0000     -0.0000      0.0606      0.0404
         3        -0.4477     -0.0702     -0.0000      0.5180      0.3453
         4        -0.5556     -0.0027     -0.0001      0.5584      0.3723
         5        -0.1063     -0.2203     -0.0000      0.3266      0.2177
         6        -0.0014     -0.0000     -0.0005      0.0019      0.0013

 Excitation energies and oscillator strengths:
 
 Excited State   1:      Singlet-A      4.9483 eV  250.56 nm  f=0.0686  <S**2>=0.000
      30 -> 32        -0.23523
      30 -> 33         0.16407
      31 -> 32         0.62786
 
 Excited State   2:      Singlet-A      5.0591 eV  245.07 nm  f=0.0424  <S**2>=0.000
      30 -> 32         0.52506
      31 -> 32         0.22978
      31 -> 33        -0.40239
 This state for optimization and/or second-order correction.
 Total Energy, E(TD-HF/TD-DFT) =  -363.465937048    
 Copying the excited state density for this state as the 1-particle RhoCI density.
 
 Excited State   3:      Singlet-A      6.2992 eV  196.83 nm  f=0.3472  <S**2>=0.000
      29 -> 32        -0.25178
      30 -> 32         0.31543
      30 -> 33         0.27052
      31 -> 33         0.48069
      31 -> 34        -0.13947
 
 Excited State   4:      Singlet-A      6.6136 eV  187.47 nm  f=0.3811  <S**2>=0.000
      29 -> 32        -0.37663
      29 -> 33        -0.10378
      30 -> 32        -0.22077
      30 -> 33         0.39565
      31 -> 33        -0.30247
      31 -> 34        -0.18681
 
 Excited State   5:      Singlet-A      6.8754 eV  180.33 nm  f=0.2158  <S**2>=0.000
      29 -> 32         0.34275
      29 -> 34        -0.11806
      30 -> 33         0.45592
      31 -> 32        -0.16940
      31 -> 34         0.34159
 
 Excited State   6:      Singlet-A      6.9376 eV  178.71 nm  f=0.0011  <S**2>=0.000
      31 -> 35         0.70130
 SavETr:  write IOETrn=   770 NScale= 10 NData=  16 NLR=1 NState=    6 LETran=     118.
          IDoAtm=1111111111111111
          Differentiating once with respect to electric field.
                with respect to dipole field.
          Differentiating once with respect to nuclear coordinates.
          There are     1 degrees of freedom in the 1st order CPHF.  IDoFFX=0 NUNeed=     1.
 LinEq1:  Iter=  0 NonCon=     1 RMS=8.35D-03 Max=2.68D-01 NDo=     1
 AX will form     1 AO Fock derivatives at one time.
 LinEq1:  Iter=  1 NonCon=     1 RMS=3.84D-03 Max=9.14D-02 NDo=     1
 LinEq1:  Iter=  2 NonCon=     1 RMS=3.47D-03 Max=1.02D-01 NDo=     1
 LinEq1:  Iter=  3 NonCon=     1 RMS=1.21D-03 Max=2.45D-02 NDo=     1
 LinEq1:  Iter=  4 NonCon=     1 RMS=9.37D-04 Max=3.02D-02 NDo=     1
 LinEq1:  Iter=  5 NonCon=     1 RMS=3.60D-04 Max=7.76D-03 NDo=     1
 LinEq1:  Iter=  6 NonCon=     1 RMS=2.69D-04 Max=6.27D-03 NDo=     1
 LinEq1:  Iter=  7 NonCon=     1 RMS=1.08D-04 Max=2.37D-03 NDo=     1
 LinEq1:  Iter=  8 NonCon=     1 RMS=5.70D-05 Max=9.60D-04 NDo=     1
 LinEq1:  Iter=  9 NonCon=     1 RMS=2.04D-05 Max=4.47D-04 NDo=     1
 LinEq1:  Iter= 10 NonCon=     1 RMS=1.17D-05 Max=3.08D-04 NDo=     1
 LinEq1:  Iter= 11 NonCon=     1 RMS=6.20D-06 Max=1.68D-04 NDo=     1
 LinEq1:  Iter= 12 NonCon=     1 RMS=3.91D-06 Max=6.93D-05 NDo=     1
 LinEq1:  Iter= 13 NonCon=     1 RMS=1.55D-06 Max=2.38D-05 NDo=     1
 LinEq1:  Iter= 14 NonCon=     1 RMS=8.28D-07 Max=1.34D-05 NDo=     1
 LinEq1:  Iter= 15 NonCon=     1 RMS=2.11D-07 Max=2.71D-06 NDo=     1
 LinEq1:  Iter= 16 NonCon=     1 RMS=5.30D-08 Max=1.11D-06 NDo=     1
 LinEq1:  Iter= 17 NonCon=     1 RMS=2.95D-08 Max=4.08D-07 NDo=     1
 LinEq1:  Iter= 18 NonCon=     1 RMS=6.83D-09 Max=8.08D-08 NDo=     1
 LinEq1:  Iter= 19 NonCon=     1 RMS=1.91D-09 Max=2.77D-08 NDo=     1
 LinEq1:  Iter= 20 NonCon=     1 RMS=5.24D-10 Max=7.24D-09 NDo=     1
 LinEq1:  Iter= 21 NonCon=     1 RMS=9.51D-11 Max=1.03D-09 NDo=     1
 LinEq1:  Iter= 22 NonCon=     0 RMS=1.81D-11 Max=1.96D-10 NDo=     1
 Linear equations converged to 1.000D-10 1.000D-09 after    22 iterations.
 End of Minotr F.D. properties file   721 does not exist.
 End of Minotr F.D. properties file   722 does not exist.
 End of Minotr F.D. properties file   788 does not exist.

 **********************************************************************

            Population analysis using the CI Density.

 **********************************************************************

 Orbital symmetries:
       Occupied  (A) (A) (A) (A) (A) (A) (A) (A) (A) (A) (A) (A)
                 (A) (A) (A) (A) (A) (A) (A) (A) (A) (A) (A) (A)
                 (A) (A) (A) (A) (A) (A) (A)
       Virtual   (A) (A) (A) (A) (A) (A) (A) (A) (A) (A) (A) (A)
                 (A) (A) (A) (A) (A) (A) (A) (A) (A) (A) (A) (A)
                 (A) (A) (A) (A) (A) (A) (A) (A) (A) (A) (A) (A)
                 (A) (A) (A) (A) (A) (A) (A) (A) (A) (A) (A) (A)
                 (A) (A) (A) (A) (A) (A) (A) (A) (A) (A) (A) (A)
                 (A) (A) (A) (A) (A) (A) (A) (A) (A) (A) (A) (A)
                 (A) (A) (A) (A) (A) (A) (A) (A) (A) (A) (A) (A)
                 (A) (A) (A) (A) (A) (A) (A) (A) (A) (A) (A) (A)
                 (A) (A) (A) (A) (A) (A) (A) (A) (A) (A) (A) (A)
                 (A) (A) (A) (A) (A) (A) (A) (A) (A) (A)
 The electronic state is 1-A.
 Alpha  occ. eigenvalues --  -14.42790 -10.26632 -10.26366 -10.23378 -10.22939
 Alpha  occ. eigenvalues --  -10.22863 -10.22835 -10.22405 -10.22096  -0.96971
 Alpha  occ. eigenvalues --   -0.82960  -0.77257  -0.72472  -0.70691  -0.61413
 Alpha  occ. eigenvalues --   -0.58445  -0.57035  -0.52897  -0.47136  -0.45983
 Alpha  occ. eigenvalues --   -0.42533  -0.41717  -0.40939  -0.39948  -0.37987
 Alpha  occ. eigenvalues --   -0.34347  -0.32279  -0.31953  -0.26420  -0.20763
 Alpha  occ. eigenvalues --   -0.19121
 Alpha virt. eigenvalues --   -0.00936   0.02814   0.07139   0.08310   0.10824
 Alpha virt. eigenvalues --    0.13832   0.14959   0.17083   0.18316   0.18602
 Alpha virt. eigenvalues --    0.19380   0.22643   0.25571   0.27414   0.30786
 Alpha virt. eigenvalues --    0.33958   0.35446   0.39333   0.43266   0.50880
 Alpha virt. eigenvalues --    0.52636   0.53467   0.53594   0.56766   0.56879
 Alpha virt. eigenvalues --    0.57811   0.59867   0.60105   0.61205   0.62482
 Alpha virt. eigenvalues --    0.62987   0.63256   0.63548   0.65400   0.66142
 Alpha virt. eigenvalues --    0.70549   0.72062   0.77951   0.81712   0.82128
 Alpha virt. eigenvalues --    0.82777   0.84602   0.85472   0.85614   0.86839
 Alpha virt. eigenvalues --    0.89663   0.91817   0.94869   0.97657   0.98736
 Alpha virt. eigenvalues --    0.99484   1.05864   1.07653   1.13502   1.14109
 Alpha virt. eigenvalues --    1.21086   1.24651   1.26302   1.30799   1.33546
 Alpha virt. eigenvalues --    1.34962   1.38428   1.42301   1.44343   1.46827
 Alpha virt. eigenvalues --    1.47587   1.49644   1.51704   1.52046   1.56383
 Alpha virt. eigenvalues --    1.61616   1.75912   1.81391   1.83373   1.89524
 Alpha virt. eigenvalues --    1.90320   1.91705   1.96004   1.96688   2.01069
 Alpha virt. eigenvalues --    2.01565   2.06284   2.10804   2.14157   2.15399
 Alpha virt. eigenvalues --    2.17897   2.23364   2.25712   2.26504   2.27359
 Alpha virt. eigenvalues --    2.29648   2.38933   2.39604   2.41752   2.49706
 Alpha virt. eigenvalues --    2.57277   2.59642   2.62967   2.67850   2.68150
 Alpha virt. eigenvalues --    2.73144   2.78262   2.80501   2.85052   2.91138
 Alpha virt. eigenvalues --    2.96942   3.09354   3.23685   3.44930   4.00499
 Alpha virt. eigenvalues --    4.12044   4.13156   4.17761   4.22673   4.34257
 Alpha virt. eigenvalues --    4.42093   4.47434   4.77761
          Condensed to atoms (all electrons):
               1          2          3          4          5          6
     1  C    5.063959   0.477141  -0.046127  -0.029126  -0.003799   0.419609
     2  C    0.477141   4.993018   0.465925   0.001899  -0.026143  -0.032716
     3  C   -0.046127   0.465925   5.217788   0.429050  -0.069044  -0.043640
     4  C   -0.029126   0.001899   0.429050   4.846681   0.438197  -0.061307
     5  C   -0.003799  -0.026143  -0.069044   0.438197   4.744171   0.469715
     6  C    0.419609  -0.032716  -0.043640  -0.061307   0.469715   5.255193
     7  N   -0.000291   0.005828  -0.089129   0.231997  -0.032055   0.011823
     8  C    0.008433  -0.000283   0.014086  -0.024994   0.448779  -0.100851
     9  C   -0.000493  -0.000197   0.005492  -0.104007  -0.019966   0.012128
    10  H   -0.000003  -0.000052  -0.003749  -0.025882   0.006168  -0.000126
    11  H   -0.000012   0.000004  -0.000141   0.006435  -0.029382  -0.005076
    12  H    0.000004   0.000001  -0.000111   0.005602   0.001769  -0.000156
    13  H   -0.037091   0.359301  -0.038177   0.002505   0.001065   0.004032
    14  H    0.004126  -0.037851   0.354503  -0.039665   0.004058   0.000503
    15  H    0.361576  -0.039615   0.004265   0.000951   0.002243  -0.035626
    16  H   -0.044633   0.004579   0.000506   0.004998  -0.039746   0.360680
               7          8          9         10         11         12
     1  C   -0.000291   0.008433  -0.000493  -0.000003  -0.000012   0.000004
     2  C    0.005828  -0.000283  -0.000197  -0.000052   0.000004   0.000001
     3  C   -0.089129   0.014086   0.005492  -0.003749  -0.000141  -0.000111
     4  C    0.231997  -0.024994  -0.104007  -0.025882   0.006435   0.005602
     5  C   -0.032055   0.448779  -0.019966   0.006168  -0.029382   0.001769
     6  C    0.011823  -0.100851   0.012128  -0.000126  -0.005076  -0.000156
     7  N    7.034020  -0.076241   0.332444   0.323393   0.003903  -0.045290
     8  C   -0.076241   5.162978   0.475047   0.004831   0.367948  -0.029890
     9  C    0.332444   0.475047   4.965541  -0.031730  -0.049981   0.366698
    10  H    0.323393   0.004831  -0.031730   0.383848  -0.000083  -0.002010
    11  H    0.003903   0.367948  -0.049981  -0.000083   0.537512  -0.000851
    12  H   -0.045290  -0.029890   0.366698  -0.002010  -0.000851   0.521547
    13  H   -0.000103   0.000011   0.000002  -0.000002  -0.000000  -0.000000
    14  H   -0.005872  -0.000270  -0.000010   0.002570   0.000002   0.000002
    15  H    0.000003  -0.000157   0.000004  -0.000000  -0.000002  -0.000000
    16  H   -0.000116  -0.006562  -0.000042   0.000004   0.002111  -0.000001
              13         14         15         16
     1  C   -0.037091   0.004126   0.361576  -0.044633
     2  C    0.359301  -0.037851  -0.039615   0.004579
     3  C   -0.038177   0.354503   0.004265   0.000506
     4  C    0.002505  -0.039665   0.000951   0.004998
     5  C    0.001065   0.004058   0.002243  -0.039746
     6  C    0.004032   0.000503  -0.035626   0.360680
     7  N   -0.000103  -0.005872   0.000003  -0.000116
     8  C    0.000011  -0.000270  -0.000157  -0.006562
     9  C    0.000002  -0.000010   0.000004  -0.000042
    10  H   -0.000002   0.002570  -0.000000   0.000004
    11  H   -0.000000   0.000002  -0.000002   0.002111
    12  H   -0.000000   0.000002  -0.000000  -0.000001
    13  H    0.568424  -0.005111  -0.004926  -0.000173
    14  H   -0.005111   0.583560  -0.000161   0.000017
    15  H   -0.004926  -0.000161   0.571173  -0.005021
    16  H   -0.000173   0.000017  -0.005021   0.584391
 Mulliken charges:
               1
     1  C   -0.173273
     2  C   -0.170840
     3  C   -0.201496
     4  C    0.316668
     5  C    0.103969
     6  C   -0.254185
     7  N   -0.694314
     8  C   -0.242866
     9  C    0.049069
    10  H    0.342824
    11  H    0.167615
    12  H    0.182685
    13  H    0.150242
    14  H    0.139599
    15  H    0.145295
    16  H    0.139007
 Sum of Mulliken charges =  -0.00000
 Mulliken charges with hydrogens summed into heavy atoms:
               1
     1  C   -0.027979
     2  C   -0.020597
     3  C   -0.061897
     4  C    0.316668
     5  C    0.103969
     6  C   -0.115177
     7  N   -0.351490
     8  C   -0.075251
     9  C    0.231755
 Electronic spatial extent (au):  <R**2>=           1006.7493
 Charge=              0.0000 electrons
 Dipole moment (field-independent basis, Debye):
    X=              2.4561    Y=             -1.5970    Z=              0.0114  Tot=              2.9297
 Quadrupole moment (field-independent basis, Debye-Ang):
   XX=            -42.4423   YY=            -43.9951   ZZ=            -56.3072
   XY=             -2.5069   XZ=             -0.0617   YZ=             -0.0006
 Traceless Quadrupole moment (field-independent basis, Debye-Ang):
   XX=              5.1392   YY=              3.5864   ZZ=             -8.7257
   XY=             -2.5069   XZ=             -0.0617   YZ=             -0.0006
 Octapole moment (field-independent basis, Debye-Ang**2):
  XXX=             19.1826  YYY=            -10.4656  ZZZ=              0.0466  XYY=             10.6209
  XXY=             -7.7038  XXZ=              0.3950  XZZ=              2.7329  YZZ=             -1.7949
  YYZ=             -0.1848  XYZ=             -0.4105
 Hexadecapole moment (field-independent basis, Debye-Ang**3):
 XXXX=           -774.8786 YYYY=           -358.6618 ZZZZ=            -57.6819 XXXY=            -17.3773
 XXXZ=             -1.0093 YYYX=            -17.4534 YYYZ=             -0.4757 ZZZX=             -0.0032
 ZZZY=             -0.0289 XXYY=           -186.6979 XXZZ=           -175.4086 YYZZ=            -87.0474
 XXYZ=              0.6417 YYXZ=              0.0740 ZZXY=             -2.6790
 N-N= 4.000099183022D+02 E-N=-1.642955248731D+03  KE= 3.598652002505D+02
 Calling FoFJK, ICntrl=  10005127 FMM=F ISym2X=0 I1Cent= 0 IOpClX= 0 NMat=1 NMatS=1 NMatT=0.
 ***** Axes restored to original set *****
 -------------------------------------------------------------------
 Center     Atomic                   Forces (Hartrees/Bohr)
 Number     Number              X              Y              Z
 -------------------------------------------------------------------
      1        6          -0.026608849    0.004385829   -0.000676619
      2        6          -0.017635648   -0.007241992    0.002389614
      3        6           0.006767845   -0.028390127   -0.001153355
      4        6           0.009683904   -0.009728162    0.000807853
      5        6           0.017553152    0.020342967   -0.002270828
      6        6           0.014314258    0.032626912    0.000771777
      7        7           0.003538172   -0.000538391    0.000290025
      8        6          -0.029552812    0.010203447    0.000404396
      9        6           0.014011722   -0.021717559   -0.000385442
     10        1          -0.001498650    0.005043411    0.000028795
     11        1          -0.001273320   -0.003244067    0.000323222
     12        1          -0.003256170    0.000677979   -0.000061857
     13        1           0.005281306    0.002401395    0.000348547
     14        1          -0.000194460    0.006261468   -0.000145708
     15        1           0.008234091   -0.004438554   -0.001567868
     16        1           0.000635459   -0.006644557    0.000897451
 -------------------------------------------------------------------
 Cartesian Forces:  Max     0.032626912 RMS     0.011230762

 GradGradGradGradGradGradGradGradGradGradGradGradGradGradGradGradGradGrad
 Berny optimization.
 FormGI is forming the generalized inverse of G from B-inverse, IUseBI=4.
 Internal  Forces:  Max     0.024306407 RMS     0.006022342
 Search for a local minimum.
 Step number   1 out of a maximum of   94
 All quantities printed in internal units (Hartrees-Bohrs-Radians)
 Mixed Optimization -- RFO/linear search
 Second derivative matrix not updated -- first step.
 ITU=  0
     Eigenvalues ---    0.01796   0.01876   0.01936   0.01957   0.02014
     Eigenvalues ---    0.02077   0.02091   0.02104   0.02135   0.02150
     Eigenvalues ---    0.02171   0.02192   0.02277   0.15995   0.15997
     Eigenvalues ---    0.15999   0.15999   0.16000   0.16000   0.16000
     Eigenvalues ---    0.21967   0.22184   0.22640   0.24007   0.24641
     Eigenvalues ---    0.34301   0.34775   0.34841   0.34849   0.35843
     Eigenvalues ---    0.35881   0.36568   0.37979   0.41971   0.43107
     Eigenvalues ---    0.45016   0.46141   0.46401   0.46720   0.46776
     Eigenvalues ---    0.47290   0.50149
 RFO step:  Lambda=-7.40431799D-03 EMin= 1.79641872D-02
 Linear search not attempted -- first point.
 Iteration  1 RMS(Cart)=  0.01903662 RMS(Int)=  0.00025224
 Iteration  2 RMS(Cart)=  0.00026879 RMS(Int)=  0.00012473
 Iteration  3 RMS(Cart)=  0.00000009 RMS(Int)=  0.00012473
 Variable       Old X    -DE/DX   Delta X   Delta X   Delta X     New X
                                 (Linear)    (Quad)   (Total)
    R1        2.65763   0.01707   0.00000   0.03832   0.03825   2.69589
    R2        2.62302   0.02431   0.00000   0.05081   0.05077   2.67379
    R3        2.06825  -0.00943   0.00000  -0.02692  -0.02692   2.04134
    R4        2.62246   0.01722   0.00000   0.03558   0.03555   2.65801
    R5        2.05920  -0.00578   0.00000  -0.01623  -0.01623   2.04297
    R6        2.64564   0.01049   0.00000   0.02200   0.02204   2.66768
    R7        2.05934  -0.00626   0.00000  -0.01760  -0.01760   2.04174
    R8        2.68977   0.02106   0.00000   0.04863   0.04863   2.73840
    R9        2.60613  -0.00048   0.00000  -0.00101  -0.00105   2.60508
   R10        2.65581   0.00685   0.00000   0.01505   0.01507   2.67088
   R11        2.71547  -0.01868   0.00000  -0.04576  -0.04577   2.66971
   R12        2.06041  -0.00668   0.00000  -0.01881  -0.01881   2.04160
   R13        2.61450  -0.00660   0.00000  -0.01346  -0.01342   2.60108
   R14        1.90381  -0.00526   0.00000  -0.01116  -0.01116   1.89266
   R15        2.58787   0.02017   0.00000   0.03893   0.03899   2.62686
   R16        2.04327  -0.00349   0.00000  -0.00953  -0.00953   2.03374
   R17        2.04268  -0.00331   0.00000  -0.00904  -0.00904   2.03364
    A1        2.11021   0.00175   0.00000   0.01128   0.01102   2.12123
    A2        2.08048  -0.00091   0.00000  -0.00580  -0.00574   2.07475
    A3        2.09247  -0.00084   0.00000  -0.00536  -0.00530   2.08717
    A4        2.11832   0.00225   0.00000   0.01237   0.01211   2.13042
    A5        2.07961  -0.00053   0.00000  -0.00243  -0.00241   2.07720
    A6        2.08500  -0.00171   0.00000  -0.00946  -0.00944   2.07556
    A7        2.04953  -0.00475   0.00000  -0.02109  -0.02120   2.02833
    A8        2.11773   0.00228   0.00000   0.01001   0.01006   2.12779
    A9        2.11584   0.00247   0.00000   0.01111   0.01116   2.12700
   A10        2.13411   0.00257   0.00000   0.00883   0.00887   2.14298
   A11        2.27810  -0.00352   0.00000  -0.01277  -0.01271   2.26539
   A12        1.87093   0.00095   0.00000   0.00395   0.00385   1.87478
   A13        2.06944   0.00509   0.00000   0.01957   0.01956   2.08900
   A14        1.86461  -0.00340   0.00000  -0.01326  -0.01335   1.85126
   A15        2.34906  -0.00168   0.00000  -0.00617  -0.00614   2.34293
   A16        2.08151  -0.00682   0.00000  -0.02779  -0.02797   2.05354
   A17        2.10290   0.00386   0.00000   0.01667   0.01672   2.11962
   A18        2.09860   0.00297   0.00000   0.01135   0.01140   2.11000
   A19        1.90817   0.00013   0.00000  -0.00008  -0.00009   1.90808
   A20        2.18895   0.00008   0.00000   0.00088   0.00089   2.18984
   A21        2.18607  -0.00020   0.00000  -0.00080  -0.00080   2.18527
   A22        1.87017   0.00390   0.00000   0.01690   0.01693   1.88710
   A23        2.21386  -0.00204   0.00000  -0.00895  -0.00897   2.20489
   A24        2.19915  -0.00187   0.00000  -0.00795  -0.00797   2.19118
   A25        1.91087  -0.00157   0.00000  -0.00739  -0.00733   1.90354
   A26        2.09958   0.00111   0.00000   0.00567   0.00563   2.10521
   A27        2.27270   0.00046   0.00000   0.00178   0.00174   2.27444
    D1        0.08496  -0.00110   0.00000  -0.04243  -0.04282   0.04214
    D2       -3.08112  -0.00049   0.00000  -0.01977  -0.01999  -3.10111
    D3       -3.06462  -0.00059   0.00000  -0.02421  -0.02451  -3.08914
    D4        0.05248   0.00001   0.00000  -0.00154  -0.00168   0.05080
    D5       -0.08896   0.00134   0.00000   0.04303   0.04280  -0.04617
    D6        3.07230   0.00089   0.00000   0.03010   0.03008   3.10238
    D7        3.06067   0.00083   0.00000   0.02468   0.02436   3.08504
    D8       -0.06125   0.00038   0.00000   0.01176   0.01164  -0.04961
    D9       -0.03480   0.00067   0.00000   0.02146   0.02125  -0.01356
   D10        3.12057   0.00053   0.00000   0.01950   0.01952   3.14009
   D11        3.13135   0.00005   0.00000  -0.00137  -0.00166   3.12969
   D12        0.00354  -0.00009   0.00000  -0.00333  -0.00339   0.00015
   D13       -0.00812  -0.00011   0.00000  -0.00045  -0.00024  -0.00836
   D14       -3.13901  -0.00017   0.00000  -0.00174  -0.00152  -3.14053
   D15        3.11971   0.00003   0.00000   0.00150   0.00147   3.12118
   D16       -0.01119  -0.00003   0.00000   0.00021   0.00020  -0.01099
   D17        0.00259  -0.00005   0.00000   0.00005   0.00021   0.00279
   D18       -3.12801  -0.00030   0.00000  -0.01075  -0.01072  -3.13872
   D19        3.13567  -0.00003   0.00000   0.00098   0.00113   3.13680
   D20        0.00507  -0.00028   0.00000  -0.00983  -0.00979  -0.00472
   D21        3.13110   0.00014   0.00000   0.00288   0.00277   3.13387
   D22       -0.00902   0.00013   0.00000   0.00269   0.00255  -0.00646
   D23       -0.00102   0.00007   0.00000   0.00170   0.00160   0.00057
   D24       -3.14114   0.00006   0.00000   0.00150   0.00139  -3.13976
   D25        0.04569  -0.00067   0.00000  -0.02160  -0.02149   0.02420
   D26       -3.11552  -0.00021   0.00000  -0.00864  -0.00878  -3.12430
   D27       -3.11068  -0.00032   0.00000  -0.00705  -0.00681  -3.11749
   D28        0.01129   0.00014   0.00000   0.00591   0.00590   0.01719
   D29       -0.00728   0.00044   0.00000   0.01446   0.01435   0.00707
   D30        3.13205   0.00031   0.00000   0.01030   0.01017  -3.14097
   D31       -3.13531   0.00007   0.00000   0.00091   0.00088  -3.13443
   D32        0.00402  -0.00006   0.00000  -0.00325  -0.00330   0.00072
   D33       -0.00369   0.00024   0.00000   0.00776   0.00762   0.00393
   D34       -3.13774   0.00001   0.00000  -0.00074  -0.00088  -3.13862
   D35        3.13643   0.00025   0.00000   0.00795   0.00783  -3.13892
   D36        0.00238   0.00002   0.00000  -0.00054  -0.00067   0.00171
   D37        0.00679  -0.00037   0.00000  -0.01360  -0.01372  -0.00693
   D38        3.13985  -0.00010   0.00000  -0.00398  -0.00411   3.13574
   D39       -3.13257  -0.00024   0.00000  -0.00949  -0.00958   3.14104
   D40        0.00050   0.00003   0.00000   0.00014   0.00003   0.00053
         Item               Value     Threshold  Converged?
 Maximum Force            0.024306     0.000450     NO 
 RMS     Force            0.006022     0.000300     NO 
 Maximum Displacement     0.079068     0.001800     NO 
 RMS     Displacement     0.019040     0.001200     NO 
 Predicted change in Energy=-3.800649D-03
 GradGradGradGradGradGradGradGradGradGradGradGradGradGradGradGradGradGrad

                          Input orientation:                          
 ---------------------------------------------------------------------
 Center     Atomic      Atomic             Coordinates (Angstroms)
 Number     Number       Type             X           Y           Z
 ---------------------------------------------------------------------
      1          6           0       -2.167535    0.701270    0.015534
      2          6           0       -2.136995   -0.724869   -0.004161
      3          6           0       -0.929349   -1.445973   -0.002526
      4          6           0        0.255336   -0.678295    0.002585
      5          6           0        0.251351    0.770780   -0.004165
      6          6           0       -0.978363    1.467441   -0.012969
      7          7           0        1.571811   -1.087306    0.004144
      8          6           0        1.607807    1.165582    0.000039
      9          6           0        2.392167    0.017936   -0.000477
     10          1           0        1.884779   -2.038698    0.006998
     11          1           0        1.977725    2.176216   -0.002467
     12          1           0        3.462494   -0.093902   -0.002869
     13          1           0       -3.070930   -1.269199   -0.019310
     14          1           0       -0.909078   -2.526142   -0.016094
     15          1           0       -3.123559    1.201942    0.062861
     16          1           0       -1.004013    2.547296   -0.034133
 ---------------------------------------------------------------------
                    Distance matrix (angstroms):
                    1          2          3          4          5
     1  C    0.000000
     2  C    1.426602   0.000000
     3  C    2.478726   1.406557   0.000000
     4  C    2.788130   2.392793   1.411677   0.000000
     5  C    2.419964   2.818006   2.511583   1.449097   0.000000
     6  C    1.414906   2.479663   2.913845   2.475165   1.413368
     7  N    4.145098   3.726482   2.526754   1.378550   2.279510
     8  C    3.803818   4.194921   3.641069   2.286716   1.412749
     9  C    4.610649   4.589671   3.629807   2.247398   2.269336
    10  H    4.891702   4.230950   2.875888   2.122687   3.249828
    11  H    4.399883   5.034602   4.644494   3.333899   2.226122
    12  H    5.685935   5.634926   4.595256   3.259971   3.325526
    13  H    2.167968   1.081092   2.148930   3.378415   3.898627
    14  H    3.464231   2.180024   1.080444   2.184203   3.495201
    15  H    1.080229   2.165734   3.439518   3.867280   3.403000
    16  H    2.182673   3.462890   3.994092   3.462910   2.175510
                    6          7          8          9         10
     6  C    0.000000
     7  N    3.609766   0.000000
     8  C    2.603760   2.253179   0.000000
     9  C    3.669019   1.376432   1.390077   0.000000
    10  H    4.526698   1.001551   3.216235   2.118311   0.000000
    11  H    3.039890   3.288675   1.076209   2.197713   4.215949
    12  H    4.707346   2.135786   2.241912   1.076156   2.504299
    13  H    3.445007   4.646362   5.274383   5.612709   5.015164
    14  H    3.994185   2.868008   4.468086   4.167828   2.836154
    15  H    2.162892   5.224041   4.731923   5.641730   5.965595
    16  H    1.080367   4.454959   2.954980   4.234718   5.420161
                   11         12         13         14         15
    11  H    0.000000
    12  H    2.712559   0.000000
    13  H    6.112290   6.638315   0.000000
    14  H    5.517788   5.002660   2.500704   0.000000
    15  H    5.193898   6.712647   2.473068   4.336908   0.000000
    16  H    3.004906   5.189084   4.340277   5.074358   2.512342
                   16
    16  H    0.000000
 Stoichiometry    C8H7N
 Framework group  C1[X(C8H7N)]
 Deg. of freedom    42
 Full point group                 C1      NOp   1
 Largest Abelian subgroup         C1      NOp   1
 Largest concise Abelian subgroup C1      NOp   1
                         Standard orientation:                         
 ---------------------------------------------------------------------
 Center     Atomic      Atomic             Coordinates (Angstroms)
 Number     Number       Type             X           Y           Z
 ---------------------------------------------------------------------
      1          6           0       -2.172372    0.684992    0.014675
      2          6           0       -2.131439   -0.740878   -0.005649
      3          6           0       -0.918578   -1.453173   -0.003569
      4          6           0        0.260484   -0.676896    0.002647
      5          6           0        0.245955    0.772115   -0.003448
      6          6           0       -0.988791    1.459811   -0.012721
      7          7           0        1.579900   -1.076314    0.004861
      8          6           0        1.599500    1.176777    0.001803
      9          6           0        2.392193    0.034871    0.001266
     10          1           0        1.899783   -2.025405    0.007483
     11          1           0        1.962053    2.190078   -0.000007
     12          1           0        3.463306   -0.069172   -0.000492
     13          1           0       -3.061378   -1.291984   -0.021641
     14          1           0       -0.890437   -2.533160   -0.017616
     15          1           0       -3.132045    1.178671    0.061618
     16          1           0       -1.022286    2.539460   -0.033410
 ---------------------------------------------------------------------
 Rotational constants (GHZ):           3.7807906           1.6320153           1.1400051
 Standard basis: 6-31G(d) (6D, 7F)
 There are   149 symmetry adapted cartesian basis functions of A   symmetry.
 There are   149 symmetry adapted basis functions of A   symmetry.
   149 basis functions,   280 primitive gaussians,   149 cartesian basis functions
    31 alpha electrons       31 beta electrons
       nuclear repulsion energy       398.0354275799 Hartrees.
 NAtoms=   16 NActive=   16 NUniq=   16 SFac= 1.00D+00 NAtFMM=   60 NAOKFM=F Big=F
 Integral buffers will be    131072 words long.
 Regular integral format.
 Two-electron integral symmetry is turned on.
 One-electron integrals computed using PRISM.
 NBasis=   149 RedAO= T EigKep=  4.59D-04  NBF=   149
 NBsUse=   149 1.00D-06 EigRej= -1.00D+00 NBFU=   149
 Initial guess from the checkpoint file:  "FuncsN12SX2nd.chk"
 B after Tr=    -0.000000   -0.000000    0.000000
         Rot=    0.999994   -0.000033    0.000008   -0.003378 Ang=  -0.39 deg.
 ExpMin= 1.61D-01 ExpMax= 4.17D+03 ExpMxC= 6.27D+02 IAcc=3 IRadAn=         5 AccDes= 0.00D+00
 Harris functional with IExCor= 5547 and IRadAn=       5 diagonalized for initial guess.
 HarFok:  IExCor= 5547 AccDes= 0.00D+00 IRadAn=         5 IDoV= 1 UseB2=F ITyADJ=14
 ICtDFT=  3500011 ScaDFX=  1.000000  1.000000  1.000000  1.000000
 FoFCou: FMM=F IPFlag=           0 FMFlag=      100000 FMFlg1=           0
         NFxFlg=           0 DoJE=T BraDBF=F KetDBF=T FulRan=T
         wScrn=  0.000000 ICntrl=       500 IOpCl=  0 I1Cent=   200000004 NGrid=           0
         NMat0=    1 NMatS0=      1 NMatT0=    0 NMatD0=    1 NMtDS0=    0 NMtDT0=    0
 Petite list used in FoFCou.
 Requested convergence on RMS density matrix=1.00D-08 within 128 cycles.
 Requested convergence on MAX density matrix=1.00D-06.
 Requested convergence on             energy=1.00D-06.
 No special actions if energy rises.
 Integral accuracy reduced to 1.0D-05 until final iterations.
 Initial convergence to 1.0D-05 achieved.  Increase integral accuracy.
 SCF Done:  E(RN12SX) =  -363.648587289     A.U. after   12 cycles
            NFock= 12  Conv=0.83D-08     -V/T= 2.0116
 DoSCS=F DFT=T ScalE2(SS,OS)=  1.000000  1.000000
 ExpMin= 1.61D-01 ExpMax= 4.17D+03 ExpMxC= 6.27D+02 IAcc=3 IRadAn=         5 AccDes= 0.00D+00
 HarFok:  IExCor=  205 AccDes= 0.00D+00 IRadAn=         5 IDoV=-2 UseB2=F ITyADJ=14
 ICtDFT= 12500011 ScaDFX=  1.000000  1.000000  1.000000  1.000000
 Range of M.O.s used for correlation:    10   149
 NBasis=   149 NAE=    31 NBE=    31 NFC=     9 NFV=     0
 NROrb=    140 NOA=    22 NOB=    22 NVA=   118 NVB=   118

 **** Warning!!: The largest alpha MO coefficient is  0.10209256D+02

 Orbital symmetries:
       Occupied  (A) (A) (A) (A) (A) (A) (A) (A) (A) (A) (A) (A)
                 (A) (A) (A) (A) (A) (A) (A) (A) (A) (A) (A) (A)
                 (A) (A) (A) (A) (A) (A) (A)
       Virtual   (A) (A) (A) (A) (A) (A) (A) (A) (A) (A) (A) (A)
                 (A) (A) (A) (A) (A) (A) (A) (A) (A) (A) (A) (A)
                 (A) (A) (A) (A) (A) (A) (A) (A) (A) (A) (A) (A)
                 (A) (A) (A) (A) (A) (A) (A) (A) (A) (A) (A) (A)
                 (A) (A) (A) (A) (A) (A) (A) (A) (A) (A) (A) (A)
                 (A) (A) (A) (A) (A) (A) (A) (A) (A) (A) (A) (A)
                 (A) (A) (A) (A) (A) (A) (A) (A) (A) (A) (A) (A)
                 (A) (A) (A) (A) (A) (A) (A) (A) (A) (A) (A) (A)
                 (A) (A) (A) (A) (A) (A) (A) (A) (A) (A) (A) (A)
                 (A) (A) (A) (A) (A) (A) (A) (A) (A) (A)
 Generating guess from densities on rwf.
 Convergence on wavefunction:    0.000001000000000
 Iteration     1 Dimension    12 NMult     0 NNew     12
 CISAX will form    12 AO SS matrices at one time.
 Iteration     2 Dimension    24 NMult    12 NNew     12
 Iteration     3 Dimension    36 NMult    24 NNew     12
 Iteration     4 Dimension    48 NMult    36 NNew     12
 Iteration     5 Dimension    60 NMult    48 NNew     12
 Iteration     6 Dimension    72 NMult    60 NNew     12
 Iteration     7 Dimension    84 NMult    72 NNew     12
 Iteration     8 Dimension    96 NMult    84 NNew     12
 Iteration     9 Dimension   104 NMult    96 NNew      8
 Iteration    10 Dimension   110 NMult   104 NNew      6
 Iteration    11 Dimension   112 NMult   110 NNew      2
 ***********************************************************************
 Excited states from <AA,BB:AA,BB> singles matrix:
 ***********************************************************************
 
 Ground to excited state transition densities written to RWF  633
 Ground to excited state transition electric dipole moments (Au):
       state          X           Y           Z        Dip. S.      Osc.
         1        -0.6855      0.5823     -0.0053      0.8090      0.0952
         2        -0.3281     -0.2744      0.0014      0.1829      0.0219
         3        -1.3957     -0.6243     -0.0009      2.3378      0.3513
         4         1.5562      0.0786     -0.0045      2.4279      0.3867
         5         0.6410     -0.9031     -0.0017      1.2265      0.2025
         6         0.0104      0.0418      0.0182      0.0022      0.0004
 Ground to excited state transition velocity dipole moments (Au):
       state          X           Y           Z        Dip. S.      Osc.
         1         0.1128     -0.1124      0.0015      0.0253      0.0957
         2         0.0576      0.0524     -0.0005      0.0061      0.0225
         3         0.3103      0.1448      0.0002      0.1173      0.3468
         4        -0.3636     -0.0169      0.0023      0.1325      0.3697
         5        -0.1601      0.2250      0.0006      0.0763      0.2053
         6        -0.0022     -0.0103     -0.0158      0.0004      0.0010
 Ground to excited state transition magnetic dipole moments (Au):
       state          X           Y           Z
         1         0.0009      0.0022      0.0652
         2         0.0001     -0.0016     -0.0225
         3        -0.0027     -0.0016     -0.4948
         4        -0.0042      0.0005      0.2616
         5         0.0092     -0.0021      0.0448
         6         0.1811     -0.0085      0.0307
 Ground to excited state transition velocity quadrupole moments (Au):
       state          XX          YY          ZZ          XY          XZ          YZ
         1         0.1980     -0.1552     -0.0043     -0.0116     -0.0040      0.0029
         2         0.0007     -0.0907      0.0081      0.0216      0.0025      0.0019
         3         0.2073     -0.0907     -0.0023     -0.3502     -0.0021     -0.0020
         4         0.3109     -0.0130      0.0323      0.0599     -0.0069      0.0024
         5         0.2667      0.0578      0.0195     -0.1611     -0.0038      0.0041
         6        -0.0276      0.0026     -0.0009      0.0259     -0.0479      0.1074
 <0|del|b> * <b|rxdel|0> + <0|del|b> * <b|delr+rdel|0>
 Rotatory Strengths (R) in cgs (10**-40 erg-esu-cm/Gauss)
       state          XX          YY          ZZ    R(velocity)    E-M Angle
         1        -1.2312      1.0797     -0.0475     -0.0663       90.00
         2        -0.4248      0.2705     -0.1269     -0.0938       90.00
         3        -0.1384     -2.3288     -1.1514     -1.2062       90.39
         4         0.8968      1.6733      3.7177      2.0959       88.72
         5         0.4589     -2.8711     -3.0597     -1.8240       98.72
         6        -1.8228     -0.9806      0.5888     -0.7382      103.08
 1/2[<0|r|b>*<b|rxdel|0> + (<0|rxdel|b>*<b|r|0>)*]
 Rotatory Strengths (R) in cgs (10**-40 erg-esu-cm/Gauss)
       state          XX          YY          ZZ     R(length)
         1         0.4345     -0.9072      0.2454     -0.0758
         2         0.0153     -0.3197      0.0221     -0.0941
         3        -2.6303     -0.7148     -0.2999     -1.2150
         4         4.6540     -0.0288      0.8401      1.8218
         5        -4.1571     -1.3463      0.0550     -1.8161
         6        -1.3294      0.2506     -0.3947     -0.4912
  1/2[<0|del|b>*<b|r|0> + (<0|r|b>*<b|del|0>)*] (Au)
       state          X           Y           Z        Dip. S.   Osc.(frdel)
         1        -0.0773     -0.0654     -0.0000      0.1427      0.0952
         2        -0.0189     -0.0144     -0.0000      0.0333      0.0222
         3        -0.4331     -0.0904     -0.0000      0.5235      0.3490
         4        -0.5658     -0.0013     -0.0000      0.5671      0.3781
         5        -0.1026     -0.2032     -0.0000      0.3058      0.2039
         6        -0.0000     -0.0004     -0.0003      0.0007      0.0005

 Excitation energies and oscillator strengths:
 
 Excited State   1:      Singlet-A      4.8035 eV  258.11 nm  f=0.0952  <S**2>=0.000
      30 -> 33         0.17607
      31 -> 32         0.66754
 
 Excited State   2:      Singlet-A      4.8807 eV  254.03 nm  f=0.0219  <S**2>=0.000
      30 -> 32         0.57508
      31 -> 33        -0.40166
 This state for optimization and/or second-order correction.
 Total Energy, E(TD-HF/TD-DFT) =  -363.469223122    
 Copying the excited state density for this state as the 1-particle RhoCI density.
 
 Excited State   3:      Singlet-A      6.1336 eV  202.14 nm  f=0.3513  <S**2>=0.000
      29 -> 32        -0.22559
      30 -> 32         0.32175
      30 -> 33         0.24371
      31 -> 33         0.50617
      31 -> 34        -0.12549
 
 Excited State   4:      Singlet-A      6.5006 eV  190.73 nm  f=0.3867  <S**2>=0.000
      29 -> 32        -0.35384
      30 -> 32        -0.21283
      30 -> 33         0.45428
      31 -> 32        -0.10662
      31 -> 33        -0.25828
      31 -> 34        -0.17455
 
 Excited State   5:      Singlet-A      6.7385 eV  183.99 nm  f=0.2025  <S**2>=0.000
      29 -> 32         0.36729
      29 -> 34        -0.10282
      30 -> 33         0.41771
      31 -> 32        -0.16178
      31 -> 34         0.36696
 
 Excited State   6:      Singlet-A      6.8620 eV  180.68 nm  f=0.0004  <S**2>=0.000
      31 -> 35         0.70188
 SavETr:  write IOETrn=   770 NScale= 10 NData=  16 NLR=1 NState=    6 LETran=     118.
          IDoAtm=1111111111111111
          Differentiating once with respect to electric field.
                with respect to dipole field.
          Differentiating once with respect to nuclear coordinates.
          There are     1 degrees of freedom in the 1st order CPHF.  IDoFFX=0 NUNeed=     1.
 LinEq1:  Iter=  0 NonCon=     1 RMS=4.96D-03 Max=1.22D-01 NDo=     1
 AX will form     1 AO Fock derivatives at one time.
 LinEq1:  Iter=  1 NonCon=     1 RMS=1.95D-03 Max=4.00D-02 NDo=     1
 LinEq1:  Iter=  2 NonCon=     1 RMS=1.79D-03 Max=5.07D-02 NDo=     1
 LinEq1:  Iter=  3 NonCon=     1 RMS=7.71D-04 Max=1.99D-02 NDo=     1
 LinEq1:  Iter=  4 NonCon=     1 RMS=4.69D-04 Max=1.44D-02 NDo=     1
 LinEq1:  Iter=  5 NonCon=     1 RMS=2.53D-04 Max=5.78D-03 NDo=     1
 LinEq1:  Iter=  6 NonCon=     1 RMS=1.71D-04 Max=4.22D-03 NDo=     1
 LinEq1:  Iter=  7 NonCon=     1 RMS=8.67D-05 Max=1.58D-03 NDo=     1
 LinEq1:  Iter=  8 NonCon=     1 RMS=4.59D-05 Max=8.54D-04 NDo=     1
 LinEq1:  Iter=  9 NonCon=     1 RMS=2.54D-05 Max=5.92D-04 NDo=     1
 LinEq1:  Iter= 10 NonCon=     1 RMS=1.39D-05 Max=3.16D-04 NDo=     1
 LinEq1:  Iter= 11 NonCon=     1 RMS=6.20D-06 Max=1.42D-04 NDo=     1
 LinEq1:  Iter= 12 NonCon=     1 RMS=3.04D-06 Max=4.40D-05 NDo=     1
 LinEq1:  Iter= 13 NonCon=     1 RMS=9.63D-07 Max=1.19D-05 NDo=     1
 LinEq1:  Iter= 14 NonCon=     1 RMS=2.93D-07 Max=7.25D-06 NDo=     1
 LinEq1:  Iter= 15 NonCon=     1 RMS=1.51D-07 Max=1.87D-06 NDo=     1
 LinEq1:  Iter= 16 NonCon=     1 RMS=3.93D-08 Max=5.73D-07 NDo=     1
 LinEq1:  Iter= 17 NonCon=     1 RMS=2.13D-08 Max=4.81D-07 NDo=     1
 LinEq1:  Iter= 18 NonCon=     1 RMS=6.96D-09 Max=6.27D-08 NDo=     1
 LinEq1:  Iter= 19 NonCon=     1 RMS=2.24D-09 Max=2.70D-08 NDo=     1
 LinEq1:  Iter= 20 NonCon=     1 RMS=5.61D-10 Max=6.23D-09 NDo=     1
 LinEq1:  Iter= 21 NonCon=     1 RMS=9.38D-11 Max=1.40D-09 NDo=     1
 LinEq1:  Iter= 22 NonCon=     0 RMS=1.89D-11 Max=2.72D-10 NDo=     1
 Linear equations converged to 1.000D-10 1.000D-09 after    22 iterations.
 End of Minotr F.D. properties file   721 does not exist.
 End of Minotr F.D. properties file   722 does not exist.
 End of Minotr F.D. properties file   788 does not exist.
 Calling FoFJK, ICntrl=  10005127 FMM=F ISym2X=0 I1Cent= 0 IOpClX= 0 NMat=1 NMatS=1 NMatT=0.
 ***** Axes restored to original set *****
 -------------------------------------------------------------------
 Center     Atomic                   Forces (Hartrees/Bohr)
 Number     Number              X              Y              Z
 -------------------------------------------------------------------
      1        6           0.000648617   -0.005469156   -0.000480104
      2        6          -0.005337858   -0.001999253    0.000513793
      3        6           0.003952532    0.004573658   -0.000522620
      4        6          -0.000246738   -0.015064059   -0.000020810
      5        6          -0.002600017    0.004943006   -0.000033717
      6        6           0.008637261   -0.002483603    0.000499150
      7        7          -0.022127444    0.001967273   -0.000139499
      8        6           0.008373812   -0.005599709   -0.000575477
      9        6           0.010203624    0.017738025    0.000298699
     10        1          -0.000808237   -0.000751812   -0.000052817
     11        1           0.000909495    0.000306576   -0.000013736
     12        1          -0.000492381    0.000857734    0.000081592
     13        1          -0.000065548    0.000927525    0.000499557
     14        1          -0.000399691    0.000306959    0.000138263
     15        1          -0.000348651    0.000239883   -0.000767353
     16        1          -0.000298775   -0.000493047    0.000575077
 -------------------------------------------------------------------
 Cartesian Forces:  Max     0.022127444 RMS     0.005514074

 GradGradGradGradGradGradGradGradGradGradGradGradGradGradGradGradGradGrad
 Berny optimization.
 Using GEDIIS/GDIIS optimizer.
 FormGI is forming the generalized inverse of G from B-inverse, IUseBI=4.
 Internal  Forces:  Max     0.015840602 RMS     0.003202797
 Search for a local minimum.
 Step number   2 out of a maximum of   94
 All quantities printed in internal units (Hartrees-Bohrs-Radians)
 Mixed Optimization -- RFO/linear search
 Update second derivatives using D2CorX and points    1    2
 DE= -3.29D-03 DEPred=-3.80D-03 R= 8.65D-01
 TightC=F SS=  1.41D+00  RLast= 1.63D-01 DXNew= 5.0454D-01 4.8868D-01
 Trust test= 8.65D-01 RLast= 1.63D-01 DXMaxT set to 4.89D-01
 ITU=  1  0
 Use linear search instead of GDIIS.
     Eigenvalues ---    0.01797   0.01879   0.01936   0.01955   0.02015
     Eigenvalues ---    0.02059   0.02090   0.02102   0.02128   0.02143
     Eigenvalues ---    0.02166   0.02190   0.02277   0.15942   0.15999
     Eigenvalues ---    0.15999   0.16000   0.16000   0.16000   0.16020
     Eigenvalues ---    0.19768   0.22077   0.22963   0.24636   0.25167
     Eigenvalues ---    0.33292   0.34490   0.34804   0.34846   0.35763
     Eigenvalues ---    0.35864   0.36500   0.37542   0.39518   0.42209
     Eigenvalues ---    0.44157   0.45441   0.46375   0.46602   0.46794
     Eigenvalues ---    0.47809   0.73985
 RFO step:  Lambda=-1.80880051D-03 EMin= 1.79664852D-02
 Quartic linear search produced a step of -0.11161.
 Iteration  1 RMS(Cart)=  0.01369817 RMS(Int)=  0.00011478
 Iteration  2 RMS(Cart)=  0.00012739 RMS(Int)=  0.00006027
 Iteration  3 RMS(Cart)=  0.00000001 RMS(Int)=  0.00006027
 Variable       Old X    -DE/DX   Delta X   Delta X   Delta X     New X
                                 (Linear)    (Quad)   (Total)
    R1        2.69589  -0.00248  -0.00427   0.00887   0.00458   2.70047
    R2        2.67379   0.00449  -0.00567   0.02628   0.02060   2.69439
    R3        2.04134   0.00039   0.00300  -0.00854  -0.00554   2.03580
    R4        2.65801  -0.00043  -0.00397   0.01197   0.00800   2.66601
    R5        2.04297  -0.00042   0.00181  -0.00681  -0.00499   2.03797
    R6        2.66768  -0.00243  -0.00246   0.00302   0.00057   2.66825
    R7        2.04174  -0.00032   0.00196  -0.00703  -0.00507   2.03668
    R8        2.73840   0.00323  -0.00543   0.02310   0.01765   2.75604
    R9        2.60508  -0.01142   0.00012  -0.02130  -0.02117   2.58391
   R10        2.67088  -0.00705  -0.00168  -0.00882  -0.01050   2.66038
   R11        2.66971   0.00575   0.00511  -0.00328   0.00179   2.67150
   R12        2.04160  -0.00050   0.00210  -0.00792  -0.00582   2.03577
   R13        2.60108   0.01584   0.00150   0.02432   0.02587   2.62695
   R14        1.89266   0.00046   0.00125  -0.00306  -0.00181   1.89084
   R15        2.62686  -0.01031  -0.00435  -0.00350  -0.00783   2.61903
   R16        2.03374   0.00060   0.00106  -0.00190  -0.00083   2.03291
   R17        2.03364  -0.00058   0.00101  -0.00462  -0.00361   2.03003
    A1        2.12123   0.00279  -0.00123   0.01544   0.01412   2.13535
    A2        2.07475  -0.00134   0.00064  -0.00756  -0.00688   2.06787
    A3        2.08717  -0.00145   0.00059  -0.00798  -0.00735   2.07982
    A4        2.13042  -0.00462  -0.00135  -0.01343  -0.01486   2.11557
    A5        2.07720   0.00145   0.00027   0.00331   0.00361   2.08081
    A6        2.07556   0.00316   0.00105   0.01014   0.01122   2.08678
    A7        2.02833   0.00124   0.00237  -0.00255  -0.00024   2.02809
    A8        2.12779  -0.00102  -0.00112  -0.00109  -0.00220   2.12559
    A9        2.12700  -0.00022  -0.00125   0.00371   0.00248   2.12948
   A10        2.14298   0.00363  -0.00099   0.01615   0.01513   2.15812
   A11        2.26539   0.00245   0.00142   0.00561   0.00706   2.27245
   A12        1.87478  -0.00608  -0.00043  -0.02172  -0.02217   1.85261
   A13        2.08900  -0.00479  -0.00218  -0.01060  -0.01280   2.07620
   A14        1.85126   0.00469   0.00149   0.01137   0.01281   1.86407
   A15        2.34293   0.00010   0.00068  -0.00077  -0.00002   2.34291
   A16        2.05354   0.00176   0.00312  -0.00362  -0.00059   2.05296
   A17        2.11962  -0.00120  -0.00187   0.00103  -0.00080   2.11882
   A18        2.11000  -0.00056  -0.00127   0.00265   0.00141   2.11141
   A19        1.90808   0.00643   0.00001   0.02469   0.02475   1.93282
   A20        2.18984  -0.00416  -0.00010  -0.01723  -0.01735   2.17248
   A21        2.18527  -0.00227   0.00009  -0.00746  -0.00739   2.17788
   A22        1.88710  -0.00110  -0.00189   0.00284   0.00092   1.88802
   A23        2.20489   0.00131   0.00100   0.00258   0.00359   2.20848
   A24        2.19118  -0.00021   0.00089  -0.00539  -0.00449   2.18669
   A25        1.90354  -0.00394   0.00082  -0.01717  -0.01630   1.88724
   A26        2.10521   0.00279  -0.00063   0.01376   0.01310   2.11831
   A27        2.27444   0.00115  -0.00019   0.00341   0.00319   2.27763
    D1        0.04214  -0.00050   0.00478  -0.03657  -0.03171   0.01043
    D2       -3.10111  -0.00042   0.00223  -0.02502  -0.02283  -3.12394
    D3       -3.08914  -0.00045   0.00274  -0.02565  -0.02274  -3.11188
    D4        0.05080  -0.00037   0.00019  -0.01410  -0.01387   0.03693
    D5       -0.04617   0.00039  -0.00478   0.03616   0.03157  -0.01459
    D6        3.10238   0.00031  -0.00336   0.02705   0.02387   3.12624
    D7        3.08504   0.00033  -0.00272   0.02516   0.02256   3.10759
    D8       -0.04961   0.00026  -0.00130   0.01605   0.01485  -0.03476
    D9       -0.01356   0.00019  -0.00237   0.01599   0.01355  -0.00001
   D10        3.14009   0.00006  -0.00218   0.01006   0.00779  -3.13530
   D11        3.12969   0.00010   0.00019   0.00446   0.00465   3.13434
   D12        0.00015  -0.00002   0.00038  -0.00148  -0.00110  -0.00095
   D13       -0.00836   0.00008   0.00003   0.00260   0.00254  -0.00582
   D14       -3.14053  -0.00003   0.00017  -0.00249  -0.00239   3.14026
   D15        3.12118   0.00019  -0.00016   0.00849   0.00827   3.12946
   D16       -0.01099   0.00009  -0.00002   0.00340   0.00334  -0.00765
   D17        0.00279  -0.00004  -0.00002  -0.00132  -0.00134   0.00145
   D18       -3.13872  -0.00004   0.00120  -0.00535  -0.00408   3.14038
   D19        3.13680   0.00008  -0.00013   0.00287   0.00268   3.13948
   D20       -0.00472   0.00007   0.00109  -0.00116  -0.00006  -0.00477
   D21        3.13387   0.00017  -0.00031   0.00675   0.00638   3.14025
   D22       -0.00646   0.00009  -0.00029   0.00370   0.00337  -0.00310
   D23        0.00057   0.00004  -0.00018   0.00213   0.00197   0.00254
   D24       -3.13976  -0.00004  -0.00015  -0.00093  -0.00105  -3.14080
   D25        0.02420  -0.00029   0.00240  -0.01816  -0.01560   0.00860
   D26       -3.12430  -0.00021   0.00098  -0.00911  -0.00794  -3.13224
   D27       -3.11749  -0.00028   0.00076  -0.01275  -0.01194  -3.12944
   D28        0.01719  -0.00020  -0.00066  -0.00370  -0.00428   0.01291
   D29        0.00707  -0.00012  -0.00160  -0.00016  -0.00179   0.00528
   D30       -3.14097   0.00001  -0.00113   0.00366   0.00251  -3.13846
   D31       -3.13443  -0.00013  -0.00010  -0.00505  -0.00513  -3.13956
   D32        0.00072   0.00000   0.00037  -0.00123  -0.00084  -0.00012
   D33        0.00393  -0.00013  -0.00085  -0.00234  -0.00321   0.00072
   D34       -3.13862  -0.00006   0.00010  -0.00303  -0.00294  -3.14156
   D35       -3.13892  -0.00005  -0.00087   0.00069  -0.00019  -3.13911
   D36        0.00171   0.00002   0.00007   0.00001   0.00008   0.00179
   D37       -0.00693   0.00020   0.00153   0.00160   0.00313  -0.00380
   D38        3.13574   0.00012   0.00046   0.00237   0.00282   3.13856
   D39        3.14104   0.00006   0.00107  -0.00221  -0.00114   3.13990
   D40        0.00053  -0.00002  -0.00000  -0.00145  -0.00145  -0.00092
         Item               Value     Threshold  Converged?
 Maximum Force            0.015841     0.000450     NO 
 RMS     Force            0.003203     0.000300     NO 
 Maximum Displacement     0.051201     0.001800     NO 
 RMS     Displacement     0.013702     0.001200     NO 
 Predicted change in Energy=-9.552341D-04
 GradGradGradGradGradGradGradGradGradGradGradGradGradGradGradGradGradGrad

                          Input orientation:                          
 ---------------------------------------------------------------------
 Center     Atomic      Atomic             Coordinates (Angstroms)
 Number     Number       Type             X           Y           Z
 ---------------------------------------------------------------------
      1          6           0       -2.162867    0.692166    0.005418
      2          6           0       -2.148818   -0.736788    0.001939
      3          6           0       -0.935116   -1.455988   -0.001073
      4          6           0        0.247064   -0.683890   -0.000446
      5          6           0        0.259843    0.774484   -0.003998
      6          6           0       -0.965939    1.466861   -0.006523
      7          7           0        1.557088   -1.075648   -0.001372
      8          6           0        1.616702    1.171298   -0.000440
      9          6           0        2.401252    0.028808   -0.001953
     10          1           0        1.863380   -2.028206   -0.000153
     11          1           0        1.988774    2.180673    0.001023
     12          1           0        3.469568   -0.083879   -0.002736
     13          1           0       -3.084780   -1.272490   -0.005178
     14          1           0       -0.913713   -2.533505   -0.009474
     15          1           0       -3.114351    1.196475    0.035767
     16          1           0       -0.994437    2.543709   -0.017811
 ---------------------------------------------------------------------
                    Distance matrix (angstroms):
                    1          2          3          4          5
     1  C    0.000000
     2  C    1.429027   0.000000
     3  C    2.474264   1.410790   0.000000
     4  C    2.775127   2.396466   1.411979   0.000000
     5  C    2.424127   2.843524   2.530404   1.458435   0.000000
     6  C    1.425810   2.501068   2.923017   2.469239   1.407812
     7  N    4.118650   3.721367   2.521060   1.367348   2.259611
     8  C    3.809822   4.221366   3.662568   2.305999   1.413697
     9  C    4.612080   4.614031   3.651845   2.269023   2.267525
[...]
 ! A26   A(7,9,12)             122.9899         -DE/DX =    0.0                 !
 ! A27   A(8,9,12)             130.8503         -DE/DX =    0.0                 !
 ! D1    D(6,1,2,3)             -0.009          -DE/DX =    0.0                 !
 ! D2    D(6,1,2,13)           179.9681         -DE/DX =    0.0                 !
 ! D3    D(15,1,2,3)          -179.9933         -DE/DX =    0.0                 !
 ! D4    D(15,1,2,13)           -0.0162         -DE/DX =    0.0                 !
 ! D5    D(2,1,6,5)              0.0103         -DE/DX =    0.0                 !
 ! D6    D(2,1,6,16)           180.0001         -DE/DX =    0.0                 !
 ! D7    D(15,1,6,5)           179.9946         -DE/DX =    0.0                 !
 ! D8    D(15,1,6,16)           -0.0156         -DE/DX =    0.0                 !
 ! D9    D(1,2,3,4)             -0.0032         -DE/DX =    0.0                 !
 ! D10   D(1,2,3,14)          -179.8835         -DE/DX =    0.0                 !
 ! D11   D(13,2,3,4)          -179.9805         -DE/DX =    0.0                 !
 ! D12   D(13,2,3,14)            0.1391         -DE/DX =    0.0                 !
 ! D13   D(2,3,4,5)              0.0143         -DE/DX =    0.0                 !
 ! D14   D(2,3,4,7)            179.9932         -DE/DX =    0.0                 !
 ! D15   D(14,3,4,5)           179.8932         -DE/DX =    0.0                 !
 ! D16   D(14,3,4,7)            -0.128          -DE/DX =    0.0                 !
 ! D17   D(3,4,5,6)             -0.0132         -DE/DX =    0.0                 !
 ! D18   D(3,4,5,8)            179.9861         -DE/DX =    0.0                 !
 ! D19   D(7,4,5,6)           -179.996          -DE/DX =    0.0                 !
 ! D20   D(7,4,5,8)              0.0033         -DE/DX =    0.0                 !
 ! D21   D(3,4,7,9)           -179.9961         -DE/DX =    0.0                 !
 ! D22   D(3,4,7,10)            -0.0066         -DE/DX =    0.0                 !
 ! D23   D(5,4,7,9)             -0.0143         -DE/DX =    0.0                 !
 ! D24   D(5,4,7,10)           179.9751         -DE/DX =    0.0                 !
 ! D25   D(4,5,6,1)              0.0004         -DE/DX =    0.0                 !
 ! D26   D(4,5,6,16)          -179.9896         -DE/DX =    0.0                 !
 ! D27   D(8,5,6,1)           -179.9988         -DE/DX =    0.0                 !
 ! D28   D(8,5,6,16)             0.0113         -DE/DX =    0.0                 !
 ! D29   D(4,5,8,9)              0.0077         -DE/DX =    0.0                 !
 ! D30   D(4,5,8,11)           179.978          -DE/DX =    0.0                 !
 ! D31   D(6,5,8,9)            180.007          -DE/DX =    0.0                 !
 ! D32   D(6,5,8,11)            -0.0227         -DE/DX =    0.0                 !
 ! D33   D(4,7,9,8)              0.0188         -DE/DX =    0.0                 !
 ! D34   D(4,7,9,12)          -179.9737         -DE/DX =    0.0                 !
 ! D35   D(10,7,9,8)          -179.9705         -DE/DX =    0.0                 !
 ! D36   D(10,7,9,12)            0.037          -DE/DX =    0.0                 !
 ! D37   D(5,8,9,7)             -0.0162         -DE/DX =    0.0                 !
 ! D38   D(5,8,9,12)           179.9755         -DE/DX =    0.0                 !
 ! D39   D(11,8,9,7)          -179.9874         -DE/DX =    0.0                 !
 ! D40   D(11,8,9,12)            0.0043         -DE/DX =    0.0                 !
 --------------------------------------------------------------------------------
 GradGradGradGradGradGradGradGradGradGradGradGradGradGradGradGradGradGrad

                          Input orientation:                          
 ---------------------------------------------------------------------
 Center     Atomic      Atomic             Coordinates (Angstroms)
 Number     Number       Type             X           Y           Z
 ---------------------------------------------------------------------
      1          6           0       -2.177048    0.680092    0.003099
      2          6           0       -2.146094   -0.696908    0.002321
      3          6           0       -0.914460   -1.441576    0.000091
      4          6           0        0.239583   -0.648896   -0.001276
      5          6           0        0.235958    0.746586   -0.000307
      6          6           0       -0.989452    1.463692    0.001937
      7          7           0        1.586596   -1.054749   -0.003385
      8          6           0        1.602050    1.155060   -0.001960
      9          6           0        2.422872   -0.009583   -0.004109
     10          1           0        1.876445   -2.017709   -0.004080
     11          1           0        1.975905    2.165894   -0.002122
     12          1           0        3.492071   -0.115825   -0.006099
     13          1           0       -3.077554   -1.247797    0.003792
     14          1           0       -0.893370   -2.519855   -0.002367
     15          1           0       -3.135020    1.183309    0.004904
     16          1           0       -1.014832    2.542345    0.002551
 ---------------------------------------------------------------------
                    Distance matrix (angstroms):
                    1          2          3          4          5
     1  C    0.000000
     2  C    1.377348   0.000000
     3  C    2.468929   1.439256   0.000000
     4  C    2.757958   2.386163   1.400056   0.000000
     5  C    2.413925   2.785293   2.472148   1.395487   0.000000
     6  C    1.422819   2.450717   2.906236   2.444088   1.419816
     7  N    4.144241   3.749808   2.530797   1.406829   2.251454
     8  C    3.808833   4.180717   3.615985   2.260659   1.425855
     9  C    4.651341   4.620380   3.631585   2.274968   2.313958
    10  H    4.869188   4.233837   2.849754   2.133770   3.214427
    11  H    4.410743   5.018618   4.622559   3.307243   2.245407
    12  H    5.724725   5.668036   4.601649   3.295886   3.368391
    13  H    2.127831   1.082173   2.171759   3.370772   3.867420
    14  H    3.447828   2.211894   1.078488   2.187252   3.456157
    15  H    1.082100   2.124428   3.438157   3.839916   3.399153
    16  H    2.195162   3.431110   3.985186   3.428935   2.188432
                    6          7          8          9         10
     6  C    0.000000
     7  N    3.602583   0.000000
     8  C    2.609819   2.209864   0.000000
     9  C    3.716791   1.338555   1.424832   0.000000
    10  H    4.509275   1.005636   3.184614   2.081142   0.000000
    11  H    3.047367   3.244088   1.077753   2.220920   4.184786
    12  H    4.751735   2.124246   2.277574   1.074466   2.495479
    13  H    3.422330   4.668149   5.260461   5.638078   5.013475
    14  H    3.984708   2.880412   4.442086   4.159198   2.814965
    15  H    2.163812   5.225192   4.737159   5.684473   5.946543
    16  H    1.078952   4.439207   2.961867   4.281377   5.399410
                   11         12         13         14         15
    11  H    0.000000
    12  H    2.739529   0.000000
    13  H    6.098423   6.666440   0.000000
    14  H    5.494450   5.001147   2.527613   0.000000
    15  H    5.204524   6.753236   2.431785   4.328795   0.000000
    16  H    3.014339   5.232411   4.315090   5.063659   2.518369
                   16
    16  H    0.000000
 Stoichiometry    C8H7N
 Framework group  C1[X(C8H7N)]
 Deg. of freedom    42
 Full point group                 C1      NOp   1
 Largest Abelian subgroup         C1      NOp   1
 Largest concise Abelian subgroup C1      NOp   1
                         Standard orientation:                         
 ---------------------------------------------------------------------
 Center     Atomic      Atomic             Coordinates (Angstroms)
 Number     Number       Type             X           Y           Z
 ---------------------------------------------------------------------
      1          6           0       -2.186076    0.647236   -0.000096
      2          6           0       -2.135381   -0.729178    0.000067
      3          6           0       -0.893195   -1.456111    0.000139
      4          6           0        0.249365   -0.646967   -0.000042
      5          6           0        0.225731    0.748320    0.000014
      6          6           0       -1.009836    1.447783   -0.000015
      7          7           0        1.602061   -1.033466    0.000100
      8          6           0        1.585828    1.176339    0.000111
      9          6           0        2.423265    0.023583   -0.000070
     10          1           0        1.905686   -1.992171    0.000459
     11          1           0        1.945150    2.192429   -0.000156
     12          1           0        3.493879   -0.067318   -0.000414
     13          1           0       -3.058848   -1.293365    0.000522
     14          1           0       -0.856644   -2.533978   -0.001588
     15          1           0       -3.151165    1.136667   -0.000031
     16          1           0       -1.050680    2.525962   -0.000141
 ---------------------------------------------------------------------
 Rotational constants (GHZ):           3.8859673           1.6152521           1.1409865

 **********************************************************************

            Population analysis using the CI Density.

 **********************************************************************

 Orbital symmetries:
       Occupied  (A) (A) (A) (A) (A) (A) (A) (A) (A) (A) (A) (A)
                 (A) (A) (A) (A) (A) (A) (A) (A) (A) (A) (A) (A)
                 (A) (A) (A) (A) (A) (A) (A)
       Virtual   (A) (A) (A) (A) (A) (A) (A) (A) (A) (A) (A) (A)
                 (A) (A) (A) (A) (A) (A) (A) (A) (A) (A) (A) (A)
                 (A) (A) (A) (A) (A) (A) (A) (A) (A) (A) (A) (A)
                 (A) (A) (A) (A) (A) (A) (A) (A) (A) (A) (A) (A)
                 (A) (A) (A) (A) (A) (A) (A) (A) (A) (A) (A) (A)
                 (A) (A) (A) (A) (A) (A) (A) (A) (A) (A) (A) (A)
                 (A) (A) (A) (A) (A) (A) (A) (A) (A) (A) (A) (A)
                 (A) (A) (A) (A) (A) (A) (A) (A) (A) (A) (A) (A)
                 (A) (A) (A) (A) (A) (A) (A) (A) (A) (A) (A) (A)
                 (A) (A) (A) (A) (A) (A) (A) (A) (A) (A)
 The electronic state is 1-A.
 Alpha  occ. eigenvalues --  -14.42832 -10.26889 -10.26424 -10.24029 -10.23332
 Alpha  occ. eigenvalues --  -10.23018 -10.22898 -10.22618 -10.21783  -0.97401
 Alpha  occ. eigenvalues --   -0.82934  -0.76562  -0.73044  -0.69856  -0.61949
 Alpha  occ. eigenvalues --   -0.58472  -0.56646  -0.53172  -0.47268  -0.46241
 Alpha  occ. eigenvalues --   -0.42630  -0.42140  -0.41048  -0.39063  -0.38039
 Alpha  occ. eigenvalues --   -0.33786  -0.33099  -0.32124  -0.25722  -0.21706
 Alpha  occ. eigenvalues --   -0.17892
 Alpha virt. eigenvalues --   -0.01930   0.03131   0.06703   0.08367   0.11035
 Alpha virt. eigenvalues --    0.14017   0.15160   0.17239   0.18136   0.18222
 Alpha virt. eigenvalues --    0.19431   0.22914   0.25274   0.27591   0.29374
 Alpha virt. eigenvalues --    0.33094   0.34727   0.38375   0.44174   0.51455
 Alpha virt. eigenvalues --    0.52259   0.53555   0.54329   0.55102   0.57034
 Alpha virt. eigenvalues --    0.58146   0.59423   0.60062   0.60434   0.62574
 Alpha virt. eigenvalues --    0.62629   0.62794   0.63779   0.64463   0.66439
 Alpha virt. eigenvalues --    0.70121   0.72103   0.77912   0.81414   0.82087
 Alpha virt. eigenvalues --    0.82181   0.85045   0.85842   0.86502   0.87608
 Alpha virt. eigenvalues --    0.90128   0.92068   0.94743   0.96640   0.97658
 Alpha virt. eigenvalues --    0.99662   1.05697   1.07415   1.13279   1.13774
 Alpha virt. eigenvalues --    1.20668   1.24365   1.26673   1.30470   1.32904
 Alpha virt. eigenvalues --    1.35735   1.37712   1.41489   1.42354   1.47519
 Alpha virt. eigenvalues --    1.48956   1.50125   1.50506   1.50998   1.54367
 Alpha virt. eigenvalues --    1.60896   1.76853   1.80099   1.83211   1.89944
 Alpha virt. eigenvalues --    1.90573   1.92902   1.96201   1.97470   2.00690
 Alpha virt. eigenvalues --    2.00928   2.03359   2.11207   2.13186   2.15780
 Alpha virt. eigenvalues --    2.16812   2.22882   2.23645   2.25248   2.28529
 Alpha virt. eigenvalues --    2.28588   2.37910   2.40658   2.41024   2.47686
 Alpha virt. eigenvalues --    2.56986   2.59507   2.61773   2.65100   2.66650
 Alpha virt. eigenvalues --    2.73043   2.75878   2.79829   2.83907   2.91244
 Alpha virt. eigenvalues --    2.97424   3.07553   3.23298   3.43023   4.00955
 Alpha virt. eigenvalues --    4.10712   4.12288   4.16293   4.22635   4.34359
 Alpha virt. eigenvalues --    4.42020   4.47489   4.77467
          Condensed to atoms (all electrons):
               1          2          3          4          5          6
     1  C    4.937277   0.588465  -0.045649  -0.038086   0.002149   0.424023
     2  C    0.588465   4.948525   0.403438   0.012571  -0.032632  -0.040272
     3  C   -0.045649   0.403438   5.300457   0.459381  -0.074131  -0.032427
     4  C   -0.038086   0.012571   0.459381   4.771938   0.526663  -0.061335
     5  C    0.002149  -0.032632  -0.074131   0.526663   4.705059   0.465501
     6  C    0.424023  -0.040272  -0.032427  -0.061335   0.465501   5.279996
     7  N   -0.000041   0.005231  -0.087090   0.213708  -0.024199   0.009282
     8  C    0.008317  -0.000099   0.013279  -0.018917   0.406305  -0.096859
     9  C   -0.000394  -0.000208   0.006689  -0.112772  -0.047157   0.011298
    10  H   -0.000000  -0.000061  -0.003325  -0.020844   0.005628  -0.000112
    11  H   -0.000011   0.000007  -0.000153   0.006500  -0.024372  -0.004504
    12  H    0.000003   0.000001  -0.000113   0.004052   0.001623  -0.000094
    13  H   -0.037960   0.358669  -0.041238   0.002500   0.001164   0.004230
    14  H    0.003903  -0.034828   0.356076  -0.041327   0.004242   0.000550
    15  H    0.360208  -0.040303   0.004451   0.001047   0.002402  -0.039590
    16  H   -0.041060   0.004385   0.000544   0.005021  -0.041564   0.360314
               7          8          9         10         11         12
     1  C   -0.000041   0.008317  -0.000394  -0.000000  -0.000011   0.000003
     2  C    0.005231  -0.000099  -0.000208  -0.000061   0.000007   0.000001
     3  C   -0.087090   0.013279   0.006689  -0.003325  -0.000153  -0.000113
     4  C    0.213708  -0.018917  -0.112772  -0.020844   0.006500   0.004052
     5  C   -0.024199   0.406305  -0.047157   0.005628  -0.024372   0.001623
     6  C    0.009282  -0.096859   0.011298  -0.000112  -0.004504  -0.000094
     7  N    6.938571  -0.073998   0.372331   0.315505   0.004196  -0.041855
     8  C   -0.073998   5.267326   0.403015   0.005985   0.361285  -0.028580
     9  C    0.372331   0.403015   5.021089  -0.034698  -0.048611   0.371870
    10  H    0.315505   0.005985  -0.034698   0.371766  -0.000087  -0.002401
    11  H    0.004196   0.361285  -0.048611  -0.000087   0.514429  -0.000469
    12  H   -0.041855  -0.028580   0.371870  -0.002401  -0.000469   0.497731
    13  H   -0.000110   0.000010   0.000003  -0.000001  -0.000000  -0.000000
    14  H   -0.005844  -0.000288  -0.000025   0.002667   0.000003   0.000002
    15  H    0.000003  -0.000181   0.000004  -0.000000  -0.000002  -0.000000
    16  H   -0.000116  -0.006694  -0.000075   0.000004   0.002170  -0.000001
              13         14         15         16
     1  C   -0.037960   0.003903   0.360208  -0.041060
     2  C    0.358669  -0.034828  -0.040303   0.004385
     3  C   -0.041238   0.356076   0.004451   0.000544
     4  C    0.002500  -0.041327   0.001047   0.005021
     5  C    0.001164   0.004242   0.002402  -0.041564
     6  C    0.004230   0.000550  -0.039590   0.360314
     7  N   -0.000110  -0.005844   0.000003  -0.000116
     8  C    0.000010  -0.000288  -0.000181  -0.006694
     9  C    0.000003  -0.000025   0.000004  -0.000075
    10  H   -0.000001   0.002667  -0.000000   0.000004
    11  H   -0.000000   0.000003  -0.000002   0.002170
    12  H   -0.000000   0.000002  -0.000000  -0.000001
    13  H    0.588415  -0.004336  -0.006287  -0.000174
    14  H   -0.004336   0.593577  -0.000158   0.000014
    15  H   -0.006287  -0.000158   0.590592  -0.004357
    16  H   -0.000174   0.000014  -0.004357   0.593628
 Mulliken charges:
               1
     1  C   -0.161144
     2  C   -0.172889
     3  C   -0.260191
     4  C    0.289900
     5  C    0.123318
     6  C   -0.280002
     7  N   -0.625576
     8  C   -0.239905
     9  C    0.057642
    10  H    0.359976
    11  H    0.189620
    12  H    0.198231
    13  H    0.135116
    14  H    0.125774
    15  H    0.132169
    16  H    0.127961
 Sum of Mulliken charges =  -0.00000
 Mulliken charges with hydrogens summed into heavy atoms:
               1
     1  C   -0.028975
     2  C   -0.037773
     3  C   -0.134417
     4  C    0.289900
     5  C    0.123318
     6  C   -0.152041
     7  N   -0.265600
     8  C   -0.050285
     9  C    0.255873
 Electronic spatial extent (au):  <R**2>=           1012.0752
 Charge=              0.0000 electrons
 Dipole moment (field-independent basis, Debye):
    X=              4.6680    Y=             -1.2591    Z=             -0.0012  Tot=              4.8348
 Quadrupole moment (field-independent basis, Debye-Ang):
   XX=            -41.5592   YY=            -43.8911   ZZ=            -56.5139
   XY=             -2.4391   XZ=              0.0001   YZ=              0.0019
 Traceless Quadrupole moment (field-independent basis, Debye-Ang):
   XX=              5.7622   YY=              3.4303   ZZ=             -9.1925
   XY=             -2.4391   XZ=              0.0001   YZ=              0.0019
 Octapole moment (field-independent basis, Debye-Ang**2):
  XXX=             30.2110  YYY=             -8.8236  ZZZ=             -0.0012  XYY=             14.8501
  XXY=             -6.9683  XXZ=             -0.0008  XZZ=              4.7217  YZZ=             -1.3479
  YYZ=             -0.0087  XYZ=             -0.0055
 Hexadecapole moment (field-independent basis, Debye-Ang**3):
 XXXX=           -778.2821 YYYY=           -362.0236 ZZZZ=            -58.0117 XXXY=            -17.5705
 XXXZ=             -0.0241 YYYX=            -16.4418 YYYZ=              0.0157 ZZZX=              0.0008
 ZZZY=              0.0019 XXYY=           -185.6509 XXZZ=           -176.3667 YYZZ=            -87.3320
 XXYZ=             -0.0083 YYXZ=              0.0130 ZZXY=             -2.4250
 N-N= 3.989486813005D+02 E-N=-1.640701856095D+03  KE= 3.597249106661D+02
 Unable to Open any file for archive entry.
 1\1\GINC-COMET-06-06\FOpt\RN12SX TD-FC\6-31G(d)\C8H7N1\SCAPARAS\04-Mar
 -2021\0\\# td= (nstates=6, root=2) N12SX/6-31G(d) Opt density=current\
 \FuncsN12SX2nd\\0,1\C,-2.1770481411,0.6800918986,0.0030992851\C,-2.146
 0941785,-0.6969080408,0.0023207577\C,-0.9144602691,-1.4415755228,0.000
 0913504\C,0.2395829651,-0.6488963714,-0.0012759082\C,0.2359580539,0.74
 65860321,-0.00030729\C,-0.9894521384,1.4636920644,0.0019369397\N,1.586
 5964933,-1.0547494212,-0.003385249\C,1.6020503597,1.155060263,-0.00195
 98274\C,2.4228721543,-0.0095830842,-0.0041088931\H,1.8764448638,-2.017
 7092495,-0.0040800423\H,1.9759045464,2.1658940198,-0.0021215148\H,3.49
 20710567,-0.1158253204,-0.0060989523\H,-3.077553738,-1.2477968899,0.00
 37915781\H,-0.893370435,-2.5198547078,-0.002367099\H,-3.1350195731,1.1
 833090458,0.0049043232\H,-1.0148320199,2.5423452843,0.0025505418\\Vers
 ion=ES64L-G16RevC.01\State=1-A\HF=-363.6416273\RMSD=5.767e-09\RMSF=3.2
 21e-05\Dipole=1.8365301,-0.4953546,-0.0004721\Quadrupole=4.2840638,2.5
 503537,-6.8344175,-1.8134393,0.0000391,0.0013799\PG=C01 [X(C8H7N1)]\\@
 The archive entry for this job was punched.


 VIRTUE IS LEARNED AT YOUR MOTHER'S KNEE,
 VICES ARE PICKED UP AT SOME OTHER JOINT.
 Job cpu time:       0 days  3 hours 21 minutes 15.8 seconds.
 Elapsed time:       0 days  1 hours 40 minutes 40.5 seconds.
 File lengths (MBytes):  RWF=    205 Int=      0 D2E=      0 Chk=      8 Scr=      1
 Normal termination of Gaussian 16 at Thu Mar  4 06:09:33 2021.
