 Entering Gaussian System, Link 0=/opt/gaussian/16.C.01/g16/g16
 Initial command:
 /opt/gaussian/16.C.01/g16/l1.exe "/scratch/scaparas/38459022/Gau-13973.inp" -scrdir="/scratch/scaparas/38459022/"
 Entering Link 1 = /opt/gaussian/16.C.01/g16/l1.exe PID=     13974.
  
 Copyright (c) 1988-2019, Gaussian, Inc.  All Rights Reserved.
  
 This is part of the Gaussian(R) 16 program.  It is based on
 the Gaussian(R) 09 system (copyright 2009, Gaussian, Inc.),
 the Gaussian(R) 03 system (copyright 2003, Gaussian, Inc.),
 the Gaussian(R) 98 system (copyright 1998, Gaussian, Inc.),
 the Gaussian(R) 94 system (copyright 1995, Gaussian, Inc.),
 the Gaussian 92(TM) system (copyright 1992, Gaussian, Inc.),
 the Gaussian 90(TM) system (copyright 1990, Gaussian, Inc.),
 the Gaussian 88(TM) system (copyright 1988, Gaussian, Inc.),
 the Gaussian 86(TM) system (copyright 1986, Carnegie Mellon
 University), and the Gaussian 82(TM) system (copyright 1983,
 Carnegie Mellon University). Gaussian is a federally registered
 trademark of Gaussian, Inc.
  
 This software contains proprietary and confidential information,
 including trade secrets, belonging to Gaussian, Inc.
  
 This software is provided under written license and may be
 used, copied, transmitted, or stored only in accord with that
 written license.
  
 The following legend is applicable only to US Government
 contracts under FAR:
  
                    RESTRICTED RIGHTS LEGEND
  
 Use, reproduction and disclosure by the US Government is
 subject to restrictions as set forth in subparagraphs (a)
 and (c) of the Commercial Computer Software - Restricted
 Rights clause in FAR 52.227-19.
  
 Gaussian, Inc.
 340 Quinnipiac St., Bldg. 40, Wallingford CT 06492
  
  
 ---------------------------------------------------------------
 Warning -- This program may not be used in any manner that
 competes with the business of Gaussian, Inc. or will provide
 assistance to any competitor of Gaussian, Inc.  The licensee
 of this program is prohibited from giving any competitor of
 Gaussian, Inc. access to this program.  By using this program,
 the user acknowledges that Gaussian, Inc. is engaged in the
 business of creating and licensing software in the field of
 computational chemistry and represents and warrants to the
 licensee that it is not a competitor of Gaussian, Inc. and that
 it will not use this program in any manner prohibited above.
 ---------------------------------------------------------------
  

 Cite this work as:
 Gaussian 16, Revision C.01,
 M. J. Frisch, G. W. Trucks, H. B. Schlegel, G. E. Scuseria, 
 M. A. Robb, J. R. Cheeseman, G. Scalmani, V. Barone, 
 G. A. Petersson, H. Nakatsuji, X. Li, M. Caricato, A. V. Marenich, 
 J. Bloino, B. G. Janesko, R. Gomperts, B. Mennucci, H. P. Hratchian, 
 J. V. Ortiz, A. F. Izmaylov, J. L. Sonnenberg, D. Williams-Young, 
 F. Ding, F. Lipparini, F. Egidi, J. Goings, B. Peng, A. Petrone, 
 T. Henderson, D. Ranasinghe, V. G. Zakrzewski, J. Gao, N. Rega, 
 G. Zheng, W. Liang, M. Hada, M. Ehara, K. Toyota, R. Fukuda, 
 J. Hasegawa, M. Ishida, T. Nakajima, Y. Honda, O. Kitao, H. Nakai, 
 T. Vreven, K. Throssell, J. A. Montgomery, Jr., J. E. Peralta, 
 F. Ogliaro, M. J. Bearpark, J. J. Heyd, E. N. Brothers, K. N. Kudin, 
 V. N. Staroverov, T. A. Keith, R. Kobayashi, J. Normand, 
 K. Raghavachari, A. P. Rendell, J. C. Burant, S. S. Iyengar, 
 J. Tomasi, M. Cossi, J. M. Millam, M. Klene, C. Adamo, R. Cammi, 
 J. W. Ochterski, R. L. Martin, K. Morokuma, O. Farkas, 
 J. B. Foresman, and D. J. Fox, Gaussian, Inc., Wallingford CT, 2019.
 
 ******************************************
 Gaussian 16:  ES64L-G16RevC.01  3-Jul-2019
                14-Feb-2021 
 ******************************************
 %NProcShared=2
 Will use up to    2 processors via shared memory.
 %Chk=FuncsMN152nd.chk
 -----------------------------------------------------------
 # td= (nstates=6, root=2) MN15/6-31G(d) Opt density=current
 -----------------------------------------------------------
 1/18=20,19=15,26=3,38=1/1,3;
 2/9=110,12=2,17=6,18=5,40=1/2;
 3/5=1,6=6,7=1,11=9,25=1,30=1,71=1,74=-73/1,2,3,8;
 4//1;
 5/5=2,38=5/2;
 8/6=1,10=2,107=2,108=6/1;
 9/8=2,15=2,41=6,42=1,70=2/14;
 10/5=4,28=2/2;
 6/7=2,8=2,9=2,10=2,22=-1/1;
 7/12=6,13=5,14=2/1,2,3,16;
 1/18=20,19=15,26=3/3(2);
 2/9=110/2;
 99//99;
 2/9=110/2;
 3/5=1,6=6,7=1,11=9,25=1,30=1,71=1,74=-73/1,2,3,8;
 4/5=5,16=3,69=1/1;
 5/5=2,38=5/2;
 8/6=1,10=2,107=2,108=6/1;
 9/8=2,15=2,41=6,42=1,49=4,70=2/14;
 10/5=4,28=2/2;
 7/12=6,13=5,14=2/1,2,3,16;
 1/18=20,19=15,26=3/3(-8);
 2/9=110/2;
 6/7=2,8=2,9=2,10=2,22=-1/1;
 99/9=10/99;
 ------------
 FuncsMN152nd
 ------------
 Symbolic Z-matrix:
 Charge =  0 Multiplicity = 1
 C                    -2.15936   0.69162   0.00011 
 C                    -2.13588  -0.71874  -0.00002 
 C                    -0.93512  -1.41882  -0.00005 
 C                     0.24791  -0.67197  -0.00001 
 C                     0.24999   0.75191  -0.00006 
 C                    -0.98269   1.42884  -0.00006 
 N                     1.56678  -1.08097  -0.00025 
 C                     1.62599   1.16698  -0.0001 
 C                     2.39038   0.03047   0.00027 
 H                     1.88117  -2.03854   0.00076 
 H                     1.99815   2.18234  -0.00037 
 H                     3.46533  -0.08657   0.0004 
 H                    -3.07324  -1.26832   0.00023 
 H                    -0.91789  -2.50582  -0.00015 
 H                    -3.11663   1.20635   0.00023 
 H                    -1.01169   2.51556   0.00019 
 

 GradGradGradGradGradGradGradGradGradGradGradGradGradGradGradGradGradGrad
 Berny optimization.
 Initialization pass.
                           ----------------------------
                           !    Initial Parameters    !
                           ! (Angstroms and Degrees)  !
 --------------------------                            --------------------------
 ! Name  Definition              Value          Derivative Info.                !
 --------------------------------------------------------------------------------
 ! R1    R(1,2)                  1.4106         estimate D2E/DX2                !
 ! R2    R(1,6)                  1.3885         estimate D2E/DX2                !
 ! R3    R(1,15)                 1.0869         estimate D2E/DX2                !
 ! R4    R(2,3)                  1.3899         estimate D2E/DX2                !
 ! R5    R(2,13)                 1.0866         estimate D2E/DX2                !
 ! R6    R(3,4)                  1.3991         estimate D2E/DX2                !
 ! R7    R(3,14)                 1.0871         estimate D2E/DX2                !
 ! R8    R(4,5)                  1.4239         estimate D2E/DX2                !
 ! R9    R(4,7)                  1.3808         estimate D2E/DX2                !
 ! R10   R(5,6)                  1.4063         estimate D2E/DX2                !
 ! R11   R(5,8)                  1.4372         estimate D2E/DX2                !
 ! R12   R(6,16)                 1.0871         estimate D2E/DX2                !
 ! R13   R(7,9)                  1.3833         estimate D2E/DX2                !
 ! R14   R(7,10)                 1.0079         estimate D2E/DX2                !
 ! R15   R(8,9)                  1.3697         estimate D2E/DX2                !
 ! R16   R(8,11)                 1.0814         estimate D2E/DX2                !
 ! R17   R(9,12)                 1.0813         estimate D2E/DX2                !
 ! A1    A(2,1,6)              121.1146         estimate D2E/DX2                !
 ! A2    A(2,1,15)             119.221          estimate D2E/DX2                !
 ! A3    A(6,1,15)             119.6644         estimate D2E/DX2                !
 ! A4    A(1,2,3)              121.1973         estimate D2E/DX2                !
 ! A5    A(1,2,13)             119.4296         estimate D2E/DX2                !
 ! A6    A(3,2,13)             119.3731         estimate D2E/DX2                !
 ! A7    A(2,3,4)              117.4922         estimate D2E/DX2                !
 ! A8    A(2,3,14)             121.1516         estimate D2E/DX2                !
 ! A9    A(4,3,14)             121.3562         estimate D2E/DX2                !
 ! A10   A(3,4,5)              122.348          estimate D2E/DX2                !
 ! A11   A(3,4,7)              130.5063         estimate D2E/DX2                !
 ! A12   A(5,4,7)              107.1457         estimate D2E/DX2                !
 ! A13   A(4,5,6)              118.6898         estimate D2E/DX2                !
 ! A14   A(4,5,8)              106.8696         estimate D2E/DX2                !
 ! A15   A(6,5,8)              134.4406         estimate D2E/DX2                !
 ! A16   A(1,6,5)              119.1581         estimate D2E/DX2                !
 ! A17   A(1,6,16)             120.5398         estimate D2E/DX2                !
 ! A18   A(5,6,16)             120.3021         estimate D2E/DX2                !
 ! A19   A(4,7,9)              109.3098         estimate D2E/DX2                !
 ! A20   A(4,7,10)             125.4054         estimate D2E/DX2                !
 ! A21   A(9,7,10)             125.2847         estimate D2E/DX2                !
 ! A22   A(5,8,9)              107.1379         estimate D2E/DX2                !
 ! A23   A(5,8,11)             126.9153         estimate D2E/DX2                !
 ! A24   A(9,8,11)             125.9467         estimate D2E/DX2                !
 ! A25   A(7,9,8)              109.5369         estimate D2E/DX2                !
 ! A26   A(7,9,12)             120.3254         estimate D2E/DX2                !
 ! A27   A(8,9,12)             130.1377         estimate D2E/DX2                !
 ! D1    D(6,1,2,3)              0.0131         estimate D2E/DX2                !
 ! D2    D(6,1,2,13)           179.9933         estimate D2E/DX2                !
 ! D3    D(15,1,2,3)          -179.994          estimate D2E/DX2                !
 ! D4    D(15,1,2,13)           -0.0138         estimate D2E/DX2                !
 ! D5    D(2,1,6,5)             -0.0143         estimate D2E/DX2                !
 ! D6    D(2,1,6,16)          -179.991          estimate D2E/DX2                !
 ! D7    D(15,1,6,5)           179.9928         estimate D2E/DX2                !
 ! D8    D(15,1,6,16)            0.0162         estimate D2E/DX2                !
 ! D9    D(1,2,3,4)             -0.0029         estimate D2E/DX2                !
 ! D10   D(1,2,3,14)           180.0            estimate D2E/DX2                !
 ! D11   D(13,2,3,4)          -179.9831         estimate D2E/DX2                !
 ! D12   D(13,2,3,14)            0.0198         estimate D2E/DX2                !
 ! D13   D(2,3,4,5)             -0.0057         estimate D2E/DX2                !
 ! D14   D(2,3,4,7)           -179.9877         estimate D2E/DX2                !
 ! D15   D(14,3,4,5)           179.9914         estimate D2E/DX2                !
 ! D16   D(14,3,4,7)             0.0093         estimate D2E/DX2                !
 ! D17   D(3,4,5,6)              0.0043         estimate D2E/DX2                !
 ! D18   D(3,4,5,8)           -179.9957         estimate D2E/DX2                !
 ! D19   D(7,4,5,6)            179.9901         estimate D2E/DX2                !
 ! D20   D(7,4,5,8)             -0.01           estimate D2E/DX2                !
 ! D21   D(3,4,7,9)           -179.9844         estimate D2E/DX2                !
 ! D22   D(3,4,7,10)            -0.0882         estimate D2E/DX2                !
 ! D23   D(5,4,7,9)              0.0315         estimate D2E/DX2                !
 ! D24   D(5,4,7,10)           179.9277         estimate D2E/DX2                !
 ! D25   D(4,5,6,1)              0.0057         estimate D2E/DX2                !
 ! D26   D(4,5,6,16)           179.9824         estimate D2E/DX2                !
 ! D27   D(8,5,6,1)           -179.9942         estimate D2E/DX2                !
 ! D28   D(8,5,6,16)            -0.0175         estimate D2E/DX2                !
 ! D29   D(4,5,8,9)             -0.0151         estimate D2E/DX2                !
 ! D30   D(4,5,8,11)           179.9849         estimate D2E/DX2                !
 ! D31   D(6,5,8,9)            179.9849         estimate D2E/DX2                !
 ! D32   D(6,5,8,11)            -0.0151         estimate D2E/DX2                !
 ! D33   D(4,7,9,8)             -0.0422         estimate D2E/DX2                !
 ! D34   D(4,7,9,12)           179.9865         estimate D2E/DX2                !
 ! D35   D(10,7,9,8)          -179.9385         estimate D2E/DX2                !
 ! D36   D(10,7,9,12)            0.0902         estimate D2E/DX2                !
 ! D37   D(5,8,9,7)              0.0348         estimate D2E/DX2                !
 ! D38   D(5,8,9,12)          -179.9976         estimate D2E/DX2                !
 ! D39   D(11,8,9,7)          -179.9652         estimate D2E/DX2                !
 ! D40   D(11,8,9,12)            0.0024         estimate D2E/DX2                !
 --------------------------------------------------------------------------------
 Trust Radius=3.00D-01 FncErr=1.00D-07 GrdErr=1.00D-06 EigMax=2.50D+02 EigMin=1.00D-04
 Number of steps in this run=     94 maximum allowed number of steps=    100.
 GradGradGradGradGradGradGradGradGradGradGradGradGradGradGradGradGradGrad

                          Input orientation:                          
 ---------------------------------------------------------------------
 Center     Atomic      Atomic             Coordinates (Angstroms)
 Number     Number       Type             X           Y           Z
 ---------------------------------------------------------------------
      1          6           0       -2.159360    0.691620    0.000110
      2          6           0       -2.135880   -0.718740   -0.000020
      3          6           0       -0.935120   -1.418820   -0.000050
      4          6           0        0.247910   -0.671970   -0.000010
      5          6           0        0.249990    0.751910   -0.000060
      6          6           0       -0.982690    1.428840   -0.000060
      7          7           0        1.566780   -1.080970   -0.000250
      8          6           0        1.625990    1.166980   -0.000100
      9          6           0        2.390380    0.030470    0.000270
     10          1           0        1.881170   -2.038540    0.000760
     11          1           0        1.998150    2.182340   -0.000370
     12          1           0        3.465330   -0.086570    0.000400
     13          1           0       -3.073240   -1.268320    0.000230
     14          1           0       -0.917890   -2.505820   -0.000150
     15          1           0       -3.116630    1.206350    0.000230
     16          1           0       -1.011690    2.515560    0.000190
 ---------------------------------------------------------------------
                    Distance matrix (angstroms):
                    1          2          3          4          5
     1  C    0.000000
     2  C    1.410555   0.000000
     3  C    2.439820   1.389941   0.000000
     4  C    2.766645   2.384249   1.399051   0.000000
     5  C    2.410104   2.802711   2.473167   1.423882   0.000000
     6  C    1.388541   2.437611   2.848057   2.434703   1.406319
     7  N    4.126281   3.720336   2.524608   1.380833   2.256853
     8  C    3.815081   4.208041   3.639457   2.298008   1.437240
     9  C    4.597527   4.587848   3.627588   2.254684   2.258704
    10  H    4.876439   4.228305   2.883668   2.129566   3.232238
    11  H    4.416688   5.050393   4.644613   3.348197   2.258804
    12  H    5.678267   5.636771   4.597701   3.270242   3.322869
    13  H    2.162531   1.086592   2.143410   3.374266   3.889111
    14  H    3.429996   2.162673   1.087137   2.173038   3.460744
    15  H    1.086882   2.160519   3.413283   3.853338   3.397153
    16  H    2.154972   3.424106   3.935125   3.427381   2.168478
                    6          7          8          9         10
     6  C    0.000000
     7  N    3.577561   0.000000
     8  C    2.621790   2.248730   0.000000
     9  C    3.651444   1.383335   1.369652   0.000000
    10  H    4.497157   1.007860   3.215661   2.130750   0.000000
    11  H    3.074601   3.291697   1.081415   2.187325   4.222501
    12  H    4.699080   2.143204   2.225884   1.081303   2.513911
    13  H    3.412488   4.643801   5.292773   5.615870   5.013922
    14  H    3.935194   2.864225   4.467749   4.168623   2.837796
    15  H    2.145507   5.212117   4.742783   5.631150   5.958802
    16  H    1.087107   4.425329   2.962435   4.213046   5.395226
                   11         12         13         14         15
    11  H    0.000000
    12  H    2.701957   0.000000
    13  H    6.134008   6.644504   0.000000
    14  H    5.521063   5.006535   2.485345   0.000000
    15  H    5.207066   6.707745   2.475050   4.314471   0.000000
    16  H    3.028229   5.178300   4.309030   5.022256   2.478871
                   16
    16  H    0.000000
 Stoichiometry    C8H7N
 Framework group  C1[X(C8H7N)]
 Deg. of freedom    42
 Full point group                 C1      NOp   1
 Largest Abelian subgroup         C1      NOp   1
 Largest concise Abelian subgroup C1      NOp   1
                         Standard orientation:                         
 ---------------------------------------------------------------------
 Center     Atomic      Atomic             Coordinates (Angstroms)
 Number     Number       Type             X           Y           Z
 ---------------------------------------------------------------------
      1          6           0       -2.159361    0.691618    0.000110
      2          6           0       -2.135879   -0.718742   -0.000020
      3          6           0       -0.935118   -1.418820   -0.000050
      4          6           0        0.247911   -0.671969   -0.000010
      5          6           0        0.249989    0.751911   -0.000060
      6          6           0       -0.982691    1.428840   -0.000060
      7          7           0        1.566782   -1.080967   -0.000250
      8          6           0        1.625989    1.166983   -0.000100
      9          6           0        2.390380    0.030474    0.000270
     10          1           0        1.881173   -2.038537    0.000760
     11          1           0        1.998148    2.182343   -0.000370
     12          1           0        3.465330   -0.086565    0.000400
     13          1           0       -3.073238   -1.268323    0.000230
     14          1           0       -0.917887   -2.505820   -0.000150
     15          1           0       -3.116631    1.206347    0.000230
     16          1           0       -1.011693    2.515560    0.000190
 ---------------------------------------------------------------------
 Rotational constants (GHZ):           3.8785006           1.6312482           1.1482914
 Standard basis: 6-31G(d) (6D, 7F)
 There are   149 symmetry adapted cartesian basis functions of A   symmetry.
 There are   149 symmetry adapted basis functions of A   symmetry.
   149 basis functions,   280 primitive gaussians,   149 cartesian basis functions
    31 alpha electrons       31 beta electrons
       nuclear repulsion energy       399.8542490966 Hartrees.
 NAtoms=   16 NActive=   16 NUniq=   16 SFac= 1.00D+00 NAtFMM=   60 NAOKFM=F Big=F
 Integral buffers will be    131072 words long.
 Regular integral format.
 Two-electron integral symmetry is turned on.
 One-electron integrals computed using PRISM.
 NBasis=   149 RedAO= T EigKep=  4.06D-04  NBF=   149
 NBsUse=   149 1.00D-06 EigRej= -1.00D+00 NBFU=   149
 ExpMin= 1.61D-01 ExpMax= 4.17D+03 ExpMxC= 6.27D+02 IAcc=3 IRadAn=         5 AccDes= 0.00D+00
 Harris functional with IExCor= 1009 and IRadAn=       5 diagonalized for initial guess.
 HarFok:  IExCor= 1009 AccDes= 0.00D+00 IRadAn=         5 IDoV= 1 UseB2=F ITyADJ=14
 ICtDFT=  3500011 ScaDFX=  1.000000  1.000000  1.000000  1.000000
 FoFCou: FMM=F IPFlag=           0 FMFlag=      100000 FMFlg1=           0
         NFxFlg=           0 DoJE=T BraDBF=F KetDBF=T FulRan=T
         wScrn=  0.000000 ICntrl=       500 IOpCl=  0 I1Cent=   200000004 NGrid=           0
         NMat0=    1 NMatS0=      1 NMatT0=    0 NMatD0=    1 NMtDS0=    0 NMtDT0=    0
 Petite list used in FoFCou.
 Keep R1 ints in memory in canonical form, NReq=64402215.
 Requested convergence on RMS density matrix=1.00D-08 within 128 cycles.
 Requested convergence on MAX density matrix=1.00D-06.
 Requested convergence on             energy=1.00D-06.
 No special actions if energy rises.
 Integral accuracy reduced to 1.0D-05 until final iterations.
 Initial convergence to 1.0D-05 achieved.  Increase integral accuracy.
 SCF Done:  E(RMN15) =  -363.374388123     A.U. after   14 cycles
            NFock= 14  Conv=0.88D-08     -V/T= 2.0153
 DoSCS=F DFT=T ScalE2(SS,OS)=  1.000000  1.000000
 ExpMin= 1.61D-01 ExpMax= 4.17D+03 ExpMxC= 6.27D+02 IAcc=3 IRadAn=         5 AccDes= 0.00D+00
 HarFok:  IExCor=  205 AccDes= 0.00D+00 IRadAn=         5 IDoV=-2 UseB2=F ITyADJ=14
 ICtDFT= 12500011 ScaDFX=  1.000000  1.000000  1.000000  1.000000
 Range of M.O.s used for correlation:    10   149
 NBasis=   149 NAE=    31 NBE=    31 NFC=     9 NFV=     0
 NROrb=    140 NOA=    22 NOB=    22 NVA=   118 NVB=   118

 **** Warning!!: The largest alpha MO coefficient is  0.10625741D+02

 Orbital symmetries:
       Occupied  (A) (A) (A) (A) (A) (A) (A) (A) (A) (A) (A) (A)
                 (A) (A) (A) (A) (A) (A) (A) (A) (A) (A) (A) (A)
                 (A) (A) (A) (A) (A) (A) (A)
       Virtual   (A) (A) (A) (A) (A) (A) (A) (A) (A) (A) (A) (A)
                 (A) (A) (A) (A) (A) (A) (A) (A) (A) (A) (A) (A)
                 (A) (A) (A) (A) (A) (A) (A) (A) (A) (A) (A) (A)
                 (A) (A) (A) (A) (A) (A) (A) (A) (A) (A) (A) (A)
                 (A) (A) (A) (A) (A) (A) (A) (A) (A) (A) (A) (A)
                 (A) (A) (A) (A) (A) (A) (A) (A) (A) (A) (A) (A)
                 (A) (A) (A) (A) (A) (A) (A) (A) (A) (A) (A) (A)
                 (A) (A) (A) (A) (A) (A) (A) (A) (A) (A) (A) (A)
                 (A) (A) (A) (A) (A) (A) (A) (A) (A) (A) (A) (A)
                 (A) (A) (A) (A) (A) (A) (A) (A) (A) (A)
    24 initial guesses have been made.
 Convergence on wavefunction:    0.000001000000000
 Iteration     1 Dimension    24 NMult     0 NNew     24
 CISAX will form    24 AO SS matrices at one time.
 New state      1 was old state      2
 New state      2 was old state      1
 New state      3 was old state      5
 New state      4 was old state      3
 New state      5 was old state      8
 New state      6 was old state     12
 Iteration     2 Dimension    36 NMult    24 NNew     12
 New state      5 was old state      7
 New state      6 was old state      5
 Iteration     3 Dimension    48 NMult    36 NNew     12
 Iteration     4 Dimension    60 NMult    48 NNew     12
 No map to state      6
 Iteration     5 Dimension    72 NMult    60 NNew     12
 Iteration     6 Dimension    84 NMult    72 NNew     12
 Iteration     7 Dimension    96 NMult    84 NNew     12
 Iteration     8 Dimension   108 NMult    96 NNew     12
 Iteration     9 Dimension   116 NMult   108 NNew      8
 Iteration    10 Dimension   122 NMult   116 NNew      6
 Iteration    11 Dimension   126 NMult   122 NNew      4
 Iteration    12 Dimension   128 NMult   126 NNew      2
 ***********************************************************************
 Excited states from <AA,BB:AA,BB> singles matrix:
 ***********************************************************************
 
 Ground to excited state transition densities written to RWF  633
 Ground to excited state transition electric dipole moments (Au):
       state          X           Y           Z        Dip. S.      Osc.
         1         0.0137     -0.5543     -0.0000      0.3074      0.0382
         2        -0.7849      0.3747     -0.0002      0.7565      0.0953
         3        -1.6632     -0.6833     -0.0001      3.2330      0.5095
         4         1.3911     -0.3988     -0.0001      2.0943      0.3453
         5         0.5245     -0.9214      0.0000      1.1240      0.1970
         6        -0.0230     -0.1458      0.0002      0.0218      0.0039
 Ground to excited state transition velocity dipole moments (Au):
       state          X           Y           Z        Dip. S.      Osc.
         1         0.0004      0.1160      0.0000      0.0135      0.0482
         2         0.1448     -0.0814      0.0000      0.0276      0.0973
         3         0.4026      0.1729      0.0000      0.1920      0.5413
         4        -0.3492      0.1054      0.0000      0.1330      0.3586
         5        -0.1456      0.2491     -0.0000      0.0833      0.2111
         6         0.0104      0.0481     -0.0001      0.0024      0.0060
 Ground to excited state transition magnetic dipole moments (Au):
       state          X           Y           Z
         1        -0.0002     -0.0002     -0.0721
         2         0.0001      0.0000     -0.0196
         3        -0.0001     -0.0001     -0.5737
         4        -0.0001      0.0000      0.1470
         5        -0.0000      0.0001     -0.5417
         6         0.0002      0.0002      1.1399
 Ground to excited state transition velocity quadrupole moments (Au):
       state          XX          YY          ZZ          XY          XZ          YZ
         1        -0.0923     -0.0126      0.0106      0.0351      0.0001     -0.0001
         2         0.1957     -0.1969     -0.0011     -0.0378      0.0001      0.0000
         3         0.0959     -0.0797     -0.0094     -0.4111      0.0001     -0.0001
         4         0.4543     -0.0383      0.0415     -0.0730     -0.0001      0.0001
         5         0.4310     -0.0302     -0.0001     -0.5492     -0.0001      0.0000
         6        -0.9955      0.4288     -0.0058      0.6470     -0.0004      0.0002
 <0|del|b> * <b|rxdel|0> + <0|del|b> * <b|delr+rdel|0>
 Rotatory Strengths (R) in cgs (10**-40 erg-esu-cm/Gauss)
       state          XX          YY          ZZ    R(velocity)    E-M Angle
         1        -0.0615     -0.0032     -0.0231     -0.0293       90.00
         2         0.0056      0.0297      0.0027      0.0127       90.00
         3        -0.1003     -0.0895     -0.0101     -0.0666       90.00
         4         0.0147      0.0056      0.0698      0.0301       90.00
         5         0.0790     -0.0038      0.0130      0.0294       90.00
         6        -0.1178     -0.0378     -0.0109     -0.0555       90.00
 1/2[<0|r|b>*<b|rxdel|0> + (<0|rxdel|b>*<b|r|0>)*]
 Rotatory Strengths (R) in cgs (10**-40 erg-esu-cm/Gauss)
       state          XX          YY          ZZ     R(length)
         1         0.0020     -0.0742     -0.0013     -0.0245
         2         0.0416     -0.0003     -0.0026      0.0129
         3        -0.0803     -0.0685     -0.0213     -0.0567
         4         0.0744      0.0031      0.0116      0.0297
         5         0.0062      0.0503      0.0170      0.0245
         6         0.0036      0.0220     -0.1346     -0.0363
  1/2[<0|del|b>*<b|r|0> + (<0|r|b>*<b|del|0>)*] (Au)
       state          X           Y           Z        Dip. S.   Osc.(frdel)
         1         0.0000     -0.0643     -0.0000      0.0643      0.0429
         2        -0.1137     -0.0305     -0.0000      0.1441      0.0961
         3        -0.6696     -0.1181     -0.0000      0.7877      0.5251
         4        -0.4858     -0.0420     -0.0000      0.5278      0.3519
         5        -0.0764     -0.2296     -0.0000      0.3059      0.2039
         6        -0.0002     -0.0070     -0.0000      0.0072      0.0048

 Excitation energies and oscillator strengths:
 
 Excited State   1:      Singlet-A      5.0678 eV  244.65 nm  f=0.0382  <S**2>=0.000
      30 -> 32         0.50044
      30 -> 33        -0.10468
      31 -> 32        -0.37592
      31 -> 33        -0.29119
 
 Excited State   2:      Singlet-A      5.1431 eV  241.07 nm  f=0.0953  <S**2>=0.000
      30 -> 32         0.30000
      30 -> 33         0.16218
      31 -> 32         0.55482
      31 -> 33        -0.25895
 This state for optimization and/or second-order correction.
 Total Energy, E(TD-HF/TD-DFT) =  -363.185381373    
 Copying the excited state density for this state as the 1-particle RhoCI density.
 
 Excited State   3:      Singlet-A      6.4326 eV  192.74 nm  f=0.5095  <S**2>=0.000
      29 -> 32        -0.12659
      30 -> 32         0.35404
      30 -> 33         0.16408
      31 -> 33         0.56018
 
 Excited State   4:      Singlet-A      6.7295 eV  184.24 nm  f=0.3453  <S**2>=0.000
      29 -> 32        -0.26727
      30 -> 32        -0.11610
      30 -> 33         0.58855
      31 -> 32        -0.15373
      31 -> 33        -0.16071
 
 Excited State   5:      Singlet-A      7.1556 eV  173.27 nm  f=0.1970  <S**2>=0.000
      29 -> 32         0.58964
      30 -> 33         0.28073
      31 -> 32        -0.15110
      31 -> 34         0.17166
 
 Excited State   6:      Singlet-A      7.3784 eV  168.04 nm  f=0.0039  <S**2>=0.000
      29 -> 32        -0.22703
      29 -> 33         0.22277
      30 -> 34         0.23591
      31 -> 34         0.57718
 SavETr:  write IOETrn=   770 NScale= 10 NData=  16 NLR=1 NState=    6 LETran=     118.
          IDoAtm=1111111111111111
          Differentiating once with respect to electric field.
                with respect to dipole field.
          Differentiating once with respect to nuclear coordinates.
 Keep R1 ints in memory in canonical form, NReq=64414501.
          There are     1 degrees of freedom in the 1st order CPHF.  IDoFFX=0 NUNeed=     1.
 LinEq1:  Iter=  0 NonCon=     1 RMS=9.54D-03 Max=2.36D-01 NDo=     1
 AX will form     1 AO Fock derivatives at one time.
 LinEq1:  Iter=  1 NonCon=     1 RMS=3.41D-03 Max=7.32D-02 NDo=     1
 LinEq1:  Iter=  2 NonCon=     1 RMS=2.12D-03 Max=5.68D-02 NDo=     1
 LinEq1:  Iter=  3 NonCon=     1 RMS=1.01D-03 Max=2.01D-02 NDo=     1
 LinEq1:  Iter=  4 NonCon=     1 RMS=4.25D-04 Max=1.15D-02 NDo=     1
 LinEq1:  Iter=  5 NonCon=     1 RMS=2.27D-04 Max=5.11D-03 NDo=     1
 LinEq1:  Iter=  6 NonCon=     1 RMS=1.05D-04 Max=2.55D-03 NDo=     1
 LinEq1:  Iter=  7 NonCon=     1 RMS=6.71D-05 Max=1.60D-03 NDo=     1
 LinEq1:  Iter=  8 NonCon=     1 RMS=2.06D-05 Max=4.65D-04 NDo=     1
 LinEq1:  Iter=  9 NonCon=     1 RMS=1.25D-05 Max=2.33D-04 NDo=     1
 LinEq1:  Iter= 10 NonCon=     1 RMS=4.35D-06 Max=6.01D-05 NDo=     1
 LinEq1:  Iter= 11 NonCon=     1 RMS=1.94D-06 Max=3.46D-05 NDo=     1
 LinEq1:  Iter= 12 NonCon=     1 RMS=9.40D-07 Max=2.24D-05 NDo=     1
 LinEq1:  Iter= 13 NonCon=     1 RMS=5.37D-07 Max=1.11D-05 NDo=     1
 LinEq1:  Iter= 14 NonCon=     1 RMS=1.97D-07 Max=4.00D-06 NDo=     1
 LinEq1:  Iter= 15 NonCon=     1 RMS=6.07D-08 Max=1.08D-06 NDo=     1
 LinEq1:  Iter= 16 NonCon=     1 RMS=3.80D-08 Max=6.74D-07 NDo=     1
 LinEq1:  Iter= 17 NonCon=     1 RMS=8.63D-09 Max=1.35D-07 NDo=     1
 LinEq1:  Iter= 18 NonCon=     1 RMS=2.26D-09 Max=4.55D-08 NDo=     1
 LinEq1:  Iter= 19 NonCon=     1 RMS=9.11D-10 Max=2.45D-08 NDo=     1
 LinEq1:  Iter= 20 NonCon=     1 RMS=3.98D-10 Max=7.66D-09 NDo=     1
 LinEq1:  Iter= 21 NonCon=     0 RMS=6.55D-11 Max=8.31D-10 NDo=     1
 Linear equations converged to 1.000D-10 1.000D-09 after    21 iterations.
 End of Minotr F.D. properties file   721 does not exist.
 End of Minotr F.D. properties file   722 does not exist.
 End of Minotr F.D. properties file   788 does not exist.

 **********************************************************************

            Population analysis using the CI Density.

 **********************************************************************

 Orbital symmetries:
       Occupied  (A) (A) (A) (A) (A) (A) (A) (A) (A) (A) (A) (A)
                 (A) (A) (A) (A) (A) (A) (A) (A) (A) (A) (A) (A)
                 (A) (A) (A) (A) (A) (A) (A)
       Virtual   (A) (A) (A) (A) (A) (A) (A) (A) (A) (A) (A) (A)
                 (A) (A) (A) (A) (A) (A) (A) (A) (A) (A) (A) (A)
                 (A) (A) (A) (A) (A) (A) (A) (A) (A) (A) (A) (A)
                 (A) (A) (A) (A) (A) (A) (A) (A) (A) (A) (A) (A)
                 (A) (A) (A) (A) (A) (A) (A) (A) (A) (A) (A) (A)
                 (A) (A) (A) (A) (A) (A) (A) (A) (A) (A) (A) (A)
                 (A) (A) (A) (A) (A) (A) (A) (A) (A) (A) (A) (A)
                 (A) (A) (A) (A) (A) (A) (A) (A) (A) (A) (A) (A)
                 (A) (A) (A) (A) (A) (A) (A) (A) (A) (A) (A) (A)
                 (A) (A) (A) (A) (A) (A) (A) (A) (A) (A)
 The electronic state is 1-A.
 Alpha  occ. eigenvalues --  -14.16246 -10.09819 -10.09461 -10.06452 -10.05966
 Alpha  occ. eigenvalues --  -10.05963 -10.05881 -10.05438 -10.05094  -1.01399
 Alpha  occ. eigenvalues --   -0.87311  -0.81509  -0.76630  -0.74811  -0.65647
 Alpha  occ. eigenvalues --   -0.62600  -0.61281  -0.57295  -0.51270  -0.50260
 Alpha  occ. eigenvalues --   -0.46706  -0.46061  -0.45962  -0.44066  -0.42071
 Alpha  occ. eigenvalues --   -0.38324  -0.36813  -0.36269  -0.30725  -0.24536
 Alpha  occ. eigenvalues --   -0.22873
 Alpha virt. eigenvalues --    0.02352   0.06223   0.10939   0.13044   0.14785
 Alpha virt. eigenvalues --    0.18154   0.19220   0.21461   0.22633   0.22681
 Alpha virt. eigenvalues --    0.23702   0.26467   0.29302   0.31053   0.34243
 Alpha virt. eigenvalues --    0.37312   0.38812   0.42596   0.46964   0.53426
 Alpha virt. eigenvalues --    0.54817   0.55453   0.55614   0.58579   0.59563
 Alpha virt. eigenvalues --    0.60365   0.61575   0.62032   0.63746   0.64504
 Alpha virt. eigenvalues --    0.65214   0.65375   0.65972   0.67332   0.68304
 Alpha virt. eigenvalues --    0.72724   0.74541   0.81127   0.84812   0.85111
 Alpha virt. eigenvalues --    0.85990   0.87733   0.88547   0.88931   0.90220
 Alpha virt. eigenvalues --    0.92294   0.94116   0.96655   1.00485   1.00864
 Alpha virt. eigenvalues --    1.01167   1.07450   1.09406   1.14348   1.15614
 Alpha virt. eigenvalues --    1.22490   1.24078   1.27626   1.31755   1.33458
 Alpha virt. eigenvalues --    1.34780   1.39321   1.42155   1.44808   1.46557
 Alpha virt. eigenvalues --    1.46760   1.49801   1.50454   1.51729   1.56339
 Alpha virt. eigenvalues --    1.61871   1.74790   1.79220   1.80565   1.87659
 Alpha virt. eigenvalues --    1.87751   1.90732   1.93036   1.93770   1.98111
 Alpha virt. eigenvalues --    1.98411   2.02625   2.07241   2.10562   2.11788
 Alpha virt. eigenvalues --    2.13826   2.19482   2.21667   2.22255   2.22627
 Alpha virt. eigenvalues --    2.24435   2.33610   2.34699   2.36667   2.45129
 Alpha virt. eigenvalues --    2.51605   2.53990   2.57197   2.61105   2.61158
 Alpha virt. eigenvalues --    2.66372   2.71368   2.74329   2.77000   2.83451
 Alpha virt. eigenvalues --    2.89584   3.00418   3.13699   3.33636   3.95101
 Alpha virt. eigenvalues --    4.03625   4.05091   4.09518   4.14416   4.25670
 Alpha virt. eigenvalues --    4.32720   4.37931   4.67024
          Condensed to atoms (all electrons):
               1          2          3          4          5          6
     1  C    4.931911   0.540246  -0.050296  -0.032141   0.007468   0.443383
     2  C    0.540246   4.916277   0.433545   0.019452  -0.030431  -0.029507
     3  C   -0.050296   0.433545   5.164521   0.459868  -0.063802  -0.039100
     4  C   -0.032141   0.019452   0.459868   4.803063   0.476264  -0.058226
     5  C    0.007468  -0.030431  -0.063802   0.476264   4.723708   0.458917
     6  C    0.443383  -0.029507  -0.039100  -0.058226   0.458917   5.184083
     7  N    0.000134   0.005662  -0.085891   0.233866  -0.041685   0.010564
     8  C    0.008303   0.000015   0.013197  -0.013681   0.451876  -0.095406
     9  C   -0.000528  -0.000268   0.005552  -0.104768  -0.014320   0.012329
    10  H   -0.000002  -0.000027  -0.004039  -0.022458   0.005959  -0.000096
    11  H    0.000002   0.000007  -0.000125   0.006559  -0.025594  -0.005546
    12  H    0.000003   0.000001  -0.000101   0.005439   0.002094  -0.000140
    13  H   -0.033760   0.357583  -0.038871   0.003351   0.000971   0.004375
    14  H    0.004347  -0.036588   0.351775  -0.037785   0.004856   0.000511
    15  H    0.360664  -0.039699   0.005145   0.000718   0.003454  -0.034635
    16  H   -0.041902   0.005103   0.000564   0.005732  -0.040003   0.357037
               7          8          9         10         11         12
     1  C    0.000134   0.008303  -0.000528  -0.000002   0.000002   0.000003
     2  C    0.005662   0.000015  -0.000268  -0.000027   0.000007   0.000001
     3  C   -0.085891   0.013197   0.005552  -0.004039  -0.000125  -0.000101
     4  C    0.233866  -0.013681  -0.104768  -0.022458   0.006559   0.005439
     5  C   -0.041685   0.451876  -0.014320   0.005959  -0.025594   0.002094
     6  C    0.010564  -0.095406   0.012329  -0.000096  -0.005546  -0.000140
     7  N    6.919926  -0.071341   0.375316   0.325962   0.003932  -0.043649
     8  C   -0.071341   5.112056   0.441240   0.004444   0.368166  -0.029195
     9  C    0.375316   0.441240   4.924599  -0.029675  -0.050225   0.369783
    10  H    0.325962   0.004444  -0.029675   0.383696  -0.000068  -0.002295
    11  H    0.003932   0.368166  -0.050225  -0.000068   0.554123  -0.001429
    12  H   -0.043649  -0.029195   0.369783  -0.002295  -0.001429   0.540336
    13  H   -0.000104   0.000007   0.000002  -0.000002  -0.000000  -0.000000
    14  H   -0.006623  -0.000317   0.000036   0.002476   0.000002   0.000003
    15  H    0.000001  -0.000154   0.000004  -0.000000  -0.000002  -0.000000
    16  H   -0.000141  -0.007868   0.000036   0.000004   0.002015  -0.000000
              13         14         15         16
     1  C   -0.033760   0.004347   0.360664  -0.041902
     2  C    0.357583  -0.036588  -0.039699   0.005103
     3  C   -0.038871   0.351775   0.005145   0.000564
     4  C    0.003351  -0.037785   0.000718   0.005732
     5  C    0.000971   0.004856   0.003454  -0.040003
     6  C    0.004375   0.000511  -0.034635   0.357037
     7  N   -0.000104  -0.006623   0.000001  -0.000141
     8  C    0.000007  -0.000317  -0.000154  -0.007868
     9  C    0.000002   0.000036   0.000004   0.000036
    10  H   -0.000002   0.002476  -0.000000   0.000004
    11  H   -0.000000   0.000002  -0.000002   0.002015
    12  H   -0.000000   0.000003  -0.000000  -0.000000
    13  H    0.605256  -0.006325  -0.006262  -0.000159
    14  H   -0.006325   0.629892  -0.000152   0.000014
    15  H   -0.006262  -0.000152   0.617772  -0.006633
    16  H   -0.000159   0.000014  -0.006633   0.636204
 Mulliken charges:
               1
     1  C   -0.137833
     2  C   -0.141370
     3  C   -0.151941
     4  C    0.254749
     5  C    0.080268
     6  C   -0.208543
     7  N   -0.625928
     8  C   -0.181340
     9  C    0.070889
    10  H    0.336122
    11  H    0.148184
    12  H    0.159151
    13  H    0.113938
    14  H    0.093877
    15  H    0.099778
    16  H    0.090000
 Sum of Mulliken charges =  -0.00000
 Mulliken charges with hydrogens summed into heavy atoms:
               1
     1  C   -0.038055
     2  C   -0.027432
     3  C   -0.058064
     4  C    0.254749
     5  C    0.080268
     6  C   -0.118544
     7  N   -0.289806
     8  C   -0.033156
     9  C    0.230039
 Electronic spatial extent (au):  <R**2>=           1008.7469
 Charge=             -0.0000 electrons
 Dipole moment (field-independent basis, Debye):
    X=              3.5515    Y=             -1.7528    Z=              0.0019  Tot=              3.9605
 Quadrupole moment (field-independent basis, Debye-Ang):
   XX=            -42.8870   YY=            -45.0871   ZZ=            -56.5947
   XY=             -1.8276   XZ=              0.0028   YZ=             -0.0034
 Traceless Quadrupole moment (field-independent basis, Debye-Ang):
   XX=              5.3027   YY=              3.1025   ZZ=             -8.4051
   XY=             -1.8276   XZ=              0.0028   YZ=             -0.0034
 Octapole moment (field-independent basis, Debye-Ang**2):
  XXX=             25.2905  YYY=            -11.0363  ZZZ=              0.0011  XYY=             12.8837
  XXY=             -8.1323  XXZ=              0.0107  XZZ=              3.6268  YZZ=             -1.8800
  YYZ=              0.0065  XYZ=             -0.0084
 Hexadecapole moment (field-independent basis, Debye-Ang**3):
 XXXX=           -792.0176 YYYY=           -371.8791 ZZZZ=            -58.1652 XXXY=            -13.2630
 XXXZ=              0.0120 YYYX=            -16.5856 YYYZ=             -0.0137 ZZZX=              0.0009
 ZZZY=             -0.0020 XXYY=           -189.6659 XXZZ=           -175.8433 YYZZ=            -87.8155
 XXYZ=             -0.0152 YYXZ=              0.0082 ZZXY=             -1.9299
 N-N= 3.998542490966D+02 E-N=-1.640208954859D+03  KE= 3.580889413716D+02
 Calling FoFJK, ICntrl=  10005127 FMM=F ISym2X=0 I1Cent= 0 IOpClX= 0 NMat=1 NMatS=1 NMatT=0.
 ***** Axes restored to original set *****
 -------------------------------------------------------------------
 Center     Atomic                   Forces (Hartrees/Bohr)
 Number     Number              X              Y              Z
 -------------------------------------------------------------------
      1        6          -0.022290030   -0.016945894   -0.000015228
      2        6          -0.025026210    0.026583009    0.000027274
      3        6           0.025431886   -0.033076914   -0.000005923
      4        6          -0.007318185    0.008650621   -0.000019299
      5        6           0.026788673    0.002675370   -0.000004635
      6        6           0.002003017    0.033774214    0.000005756
      7        7           0.025647452    0.015078684    0.000050719
      8        6          -0.048327938    0.020869859    0.000008079
      9        6           0.019841288   -0.053465232   -0.000042924
     10        1           0.001684338   -0.003153210   -0.000002471
     11        1           0.000252733    0.000321888    0.000006622
     12        1           0.000475241   -0.000186060    0.000001991
     13        1          -0.000342340   -0.000342504   -0.000008904
     14        1           0.000725363    0.000452465    0.000000441
     15        1          -0.000043416   -0.000771813    0.000001073
     16        1           0.000498128   -0.000464485   -0.000002572
 -------------------------------------------------------------------
 Cartesian Forces:  Max     0.053465232 RMS     0.016316834

 GradGradGradGradGradGradGradGradGradGradGradGradGradGradGradGradGradGrad
 Berny optimization.
 FormGI is forming the generalized inverse of G from B-inverse, IUseBI=4.
 Internal  Forces:  Max     0.043862068 RMS     0.008687933
 Search for a local minimum.
 Step number   1 out of a maximum of   94
 All quantities printed in internal units (Hartrees-Bohrs-Radians)
 Mixed Optimization -- RFO/linear search
 Second derivative matrix not updated -- first step.
 ITU=  0
     Eigenvalues ---    0.01790   0.01867   0.01928   0.01947   0.02010
     Eigenvalues ---    0.02041   0.02076   0.02089   0.02098   0.02135
     Eigenvalues ---    0.02159   0.02173   0.02275   0.16000   0.16000
     Eigenvalues ---    0.16000   0.16000   0.16000   0.16000   0.16000
     Eigenvalues ---    0.22000   0.22188   0.22662   0.24010   0.24651
     Eigenvalues ---    0.35146   0.35149   0.35175   0.35209   0.35824
     Eigenvalues ---    0.35837   0.36510   0.37931   0.41898   0.42676
     Eigenvalues ---    0.44901   0.45975   0.46333   0.46561   0.46716
     Eigenvalues ---    0.47115   0.50040
 RFO step:  Lambda=-1.38633148D-02 EMin= 1.79046333D-02
 Linear search not attempted -- first point.
 Iteration  1 RMS(Cart)=  0.02612322 RMS(Int)=  0.00020118
 Iteration  2 RMS(Cart)=  0.00026451 RMS(Int)=  0.00005825
 Iteration  3 RMS(Cart)=  0.00000005 RMS(Int)=  0.00005825
 Variable       Old X    -DE/DX   Delta X   Delta X   Delta X     New X
                                 (Linear)    (Quad)   (Total)
    R1        2.66556  -0.00153   0.00000  -0.00276  -0.00277   2.66279
    R2        2.62396   0.02468   0.00000   0.05100   0.05099   2.67495
    R3        2.05391  -0.00033   0.00000  -0.00090  -0.00090   2.05301
    R4        2.62661   0.03720   0.00000   0.07637   0.07636   2.70297
    R5        2.05336   0.00047   0.00000   0.00128   0.00128   2.05464
    R6        2.64382   0.00639   0.00000   0.01294   0.01295   2.65678
    R7        2.05439  -0.00044   0.00000  -0.00120  -0.00120   2.05319
    R8        2.69075   0.00903   0.00000   0.01870   0.01857   2.70932
    R9        2.60940   0.01877   0.00000   0.03655   0.03657   2.64597
   R10        2.65756   0.02274   0.00000   0.04948   0.04949   2.70704
   R11        2.71599  -0.01946   0.00000  -0.04708  -0.04719   2.66880
   R12        2.05433  -0.00048   0.00000  -0.00131  -0.00131   2.05302
   R13        2.61412  -0.02376   0.00000  -0.04679  -0.04664   2.56749
   R14        1.90458   0.00352   0.00000   0.00738   0.00738   1.91196
   R15        2.58827   0.04386   0.00000   0.08490   0.08497   2.67324
   R16        2.04358   0.00039   0.00000   0.00105   0.00105   2.04463
   R17        2.04337   0.00049   0.00000   0.00132   0.00132   2.04469
    A1        2.11385  -0.00076   0.00000  -0.00085  -0.00090   2.11295
    A2        2.08080  -0.00034   0.00000  -0.00373  -0.00370   2.07709
    A3        2.08854   0.00110   0.00000   0.00458   0.00460   2.09314
    A4        2.11529   0.00575   0.00000   0.02574   0.02569   2.14098
    A5        2.08444  -0.00275   0.00000  -0.01213  -0.01210   2.07233
    A6        2.08345  -0.00300   0.00000  -0.01361  -0.01358   2.06987
    A7        2.05063  -0.00565   0.00000  -0.02546  -0.02549   2.02513
    A8        2.11449   0.00358   0.00000   0.01707   0.01709   2.13158
    A9        2.11807   0.00207   0.00000   0.00839   0.00841   2.12647
   A10        2.13538   0.00053   0.00000   0.00189   0.00194   2.13732
   A11        2.27776  -0.00602   0.00000  -0.01963  -0.01957   2.25819
   A12        1.87005   0.00549   0.00000   0.01774   0.01763   1.88768
   A13        2.07153   0.00732   0.00000   0.02810   0.02821   2.09974
   A14        1.86523  -0.00603   0.00000  -0.02521  -0.02545   1.83978
   A15        2.34643  -0.00129   0.00000  -0.00289  -0.00276   2.34367
   A16        2.07970  -0.00718   0.00000  -0.02942  -0.02945   2.05025
   A17        2.10382   0.00409   0.00000   0.01756   0.01758   2.12140
   A18        2.09967   0.00309   0.00000   0.01185   0.01187   2.11154
   A19        1.90782   0.00049   0.00000   0.00167   0.00184   1.90965
   A20        2.18874   0.00034   0.00000   0.00256   0.00247   2.19121
   A21        2.18663  -0.00084   0.00000  -0.00422  -0.00431   2.18232
   A22        1.86991   0.00673   0.00000   0.03080   0.03076   1.90067
   A23        2.21509  -0.00324   0.00000  -0.01467  -0.01465   2.20044
   A24        2.19819  -0.00349   0.00000  -0.01613  -0.01611   2.18207
   A25        1.91178  -0.00668   0.00000  -0.02499  -0.02478   1.88700
   A26        2.10007   0.00321   0.00000   0.01173   0.01162   2.11170
   A27        2.27133   0.00348   0.00000   0.01326   0.01316   2.28449
    D1        0.00023  -0.00000   0.00000  -0.00016  -0.00017   0.00006
    D2        3.14148   0.00000   0.00000   0.00005   0.00005   3.14152
    D3       -3.14149  -0.00000   0.00000  -0.00007  -0.00007  -3.14156
    D4       -0.00024   0.00001   0.00000   0.00014   0.00014  -0.00010
    D5       -0.00025   0.00001   0.00000   0.00016   0.00016  -0.00009
    D6       -3.14143   0.00000   0.00000   0.00005   0.00005  -3.14138
    D7        3.14147   0.00000   0.00000   0.00007   0.00006   3.14153
    D8        0.00028  -0.00000   0.00000  -0.00005  -0.00005   0.00023
    D9       -0.00005   0.00000   0.00000   0.00006   0.00006   0.00001
   D10        3.14159   0.00000   0.00000   0.00007   0.00007  -3.14152
   D11       -3.14130  -0.00000   0.00000  -0.00015  -0.00015  -3.14145
   D12        0.00035  -0.00001   0.00000  -0.00014  -0.00014   0.00021
   D13       -0.00010  -0.00000   0.00000   0.00004   0.00004  -0.00006
   D14       -3.14138  -0.00000   0.00000  -0.00007  -0.00007  -3.14145
   D15        3.14144   0.00000   0.00000   0.00003   0.00003   3.14147
   D16        0.00016  -0.00000   0.00000  -0.00008  -0.00008   0.00008
   D17        0.00008   0.00000   0.00000  -0.00004  -0.00004   0.00003
   D18       -3.14152   0.00000   0.00000  -0.00003  -0.00004  -3.14156
   D19        3.14142   0.00000   0.00000   0.00004   0.00004   3.14146
   D20       -0.00017   0.00000   0.00000   0.00005   0.00005  -0.00013
   D21       -3.14132  -0.00000   0.00000  -0.00023  -0.00023  -3.14155
   D22       -0.00154   0.00001   0.00000   0.00016   0.00015  -0.00139
   D23        0.00055  -0.00001   0.00000  -0.00032  -0.00033   0.00022
   D24        3.14033   0.00001   0.00000   0.00006   0.00005   3.14038
   D25        0.00010  -0.00000   0.00000  -0.00006  -0.00006   0.00004
   D26        3.14129   0.00000   0.00000   0.00006   0.00006   3.14134
   D27       -3.14149  -0.00000   0.00000  -0.00007  -0.00007  -3.14156
   D28       -0.00031   0.00000   0.00000   0.00005   0.00005  -0.00026
   D29       -0.00026   0.00001   0.00000   0.00026   0.00026  -0.00000
   D30        3.14133   0.00000   0.00000   0.00007   0.00007   3.14140
   D31        3.14133   0.00001   0.00000   0.00027   0.00027  -3.14159
   D32       -0.00026   0.00001   0.00000   0.00008   0.00008  -0.00019
   D33       -0.00074   0.00002   0.00000   0.00052   0.00052  -0.00022
   D34        3.14136   0.00001   0.00000   0.00018   0.00017   3.14153
   D35       -3.14052   0.00001   0.00000   0.00013   0.00013  -3.14039
   D36        0.00157  -0.00000   0.00000  -0.00021  -0.00021   0.00136
   D37        0.00061  -0.00001   0.00000  -0.00046  -0.00047   0.00014
   D38       -3.14155  -0.00000   0.00000  -0.00008  -0.00008   3.14155
   D39       -3.14099  -0.00001   0.00000  -0.00028  -0.00028  -3.14127
   D40        0.00004   0.00001   0.00000   0.00011   0.00010   0.00015
         Item               Value     Threshold  Converged?
 Maximum Force            0.043862     0.000450     NO 
 RMS     Force            0.008688     0.000300     NO 
 Maximum Displacement     0.084381     0.001800     NO 
 RMS     Displacement     0.026095     0.001200     NO 
 Predicted change in Energy=-7.154774D-03
 GradGradGradGradGradGradGradGradGradGradGradGradGradGradGradGradGradGrad

                          Input orientation:                          
 ---------------------------------------------------------------------
 Center     Atomic      Atomic             Coordinates (Angstroms)
 Number     Number       Type             X           Y           Z
 ---------------------------------------------------------------------
      1          6           0       -2.188429    0.705030    0.000038
      2          6           0       -2.143754   -0.703351    0.000011
      3          6           0       -0.915808   -1.436869    0.000005
      4          6           0        0.261728   -0.668768    0.000044
      5          6           0        0.245288    0.764846    0.000017
      6          6           0       -0.999659    1.473492   -0.000014
      7          7           0        1.597118   -1.089786   -0.000107
      8          6           0        1.602381    1.155740    0.000021
      9          6           0        2.413145   -0.003486    0.000055
     10          1           0        1.910581   -2.051766    0.000870
     11          1           0        1.972568    2.172412   -0.000165
     12          1           0        3.489372   -0.115131    0.000033
     13          1           0       -3.080067   -1.256047    0.000121
     14          1           0       -0.891568   -2.523097   -0.000085
     15          1           0       -3.154768    1.201488    0.000076
     16          1           0       -1.024930    2.559612    0.000199
 ---------------------------------------------------------------------
                    Distance matrix (angstroms):
                    1          2          3          4          5
     1  C    0.000000
     2  C    1.409090   0.000000
     3  C    2.491444   1.430349   0.000000
     4  C    2.809020   2.405730   1.405905   0.000000
     5  C    2.434452   2.804126   2.489115   1.433708   0.000000
     6  C    1.415524   2.459187   2.911569   2.486036   1.432506
     7  N    4.189479   3.760778   2.536783   1.400187   2.295017
     8  C    3.817510   4.182074   3.614263   2.264107   1.412268
     9  C    4.655800   4.610329   3.624433   2.251931   2.299986
    10  H    4.939819   4.272687   2.892503   2.152069   3.272079
    11  H    4.412154   5.021366   4.622729   3.316516   2.228169
    12  H    5.736732   5.663754   4.599196   3.274783   3.361315
    13  H    2.154262   1.087270   2.171799   3.393006   3.891272
    14  H    3.478887   2.208946   1.086499   2.183719   3.478938
    15  H    1.086408   2.156517   3.460328   3.894908   3.427979
    16  H    2.189339   3.449449   3.997971   3.475332   2.198782
                    6          7          8          9         10
     6  C    0.000000
     7  N    3.648787   0.000000
     8  C    2.621369   2.245532   0.000000
     9  C    3.718695   1.358656   1.414617   0.000000
    10  H    4.571318   1.011764   3.222279   2.109034   0.000000
    11  H    3.053297   3.283732   1.081970   2.220053   4.224633
    12  H    4.761840   2.128515   2.275049   1.082003   2.498627
    13  H    3.431980   4.680140   5.267071   5.634207   5.053686
    14  H    3.998051   2.871923   4.444505   4.155667   2.841513
    15  H    2.172207   5.275449   4.757369   5.696808   6.020085
    16  H    1.086414   4.493689   2.978863   4.288337   5.466447
                   11         12         13         14         15
    11  H    0.000000
    12  H    2.744730   0.000000
    13  H    6.106018   6.667775   0.000000
    14  H    5.500098   4.999094   2.528823   0.000000
    15  H    5.218455   6.773337   2.458671   4.358281   0.000000
    16  H    3.022403   5.247207   4.333918   5.084459   2.526007
                   16
    16  H    0.000000
 Stoichiometry    C8H7N
 Framework group  C1[X(C8H7N)]
 Deg. of freedom    42
 Full point group                 C1      NOp   1
 Largest Abelian subgroup         C1      NOp   1
 Largest concise Abelian subgroup C1      NOp   1
                         Standard orientation:                         
 ---------------------------------------------------------------------
 Center     Atomic      Atomic             Coordinates (Angstroms)
 Number     Number       Type             X           Y           Z
 ---------------------------------------------------------------------
      1          6           0       -2.206587    0.647323    0.000016
      2          6           0       -2.125769   -0.759447   -0.000011
      3          6           0       -0.879397   -1.461198   -0.000017
      4          6           0        0.278031   -0.663120    0.000022
      5          6           0        0.224792    0.769600   -0.000005
      6          6           0       -1.037938    1.446051   -0.000036
      7          7           0        1.623790   -1.049715   -0.000129
      8          6           0        1.571402    1.195206   -0.000001
      9          6           0        2.411659    0.057177    0.000033
     10          1           0        1.961847   -2.003331    0.000848
     11          1           0        1.915366    2.221046   -0.000187
     12          1           0        3.490398   -0.026802    0.000011
     13          1           0       -3.047585   -1.335999    0.000099
     14          1           0       -0.827278   -2.546446   -0.000107
     15          1           0       -3.185354    1.118809    0.000054
     16          1           0       -1.091085    2.531165    0.000178
 ---------------------------------------------------------------------
 Rotational constants (GHZ):           3.8076154           1.6091347           1.1311148
 Standard basis: 6-31G(d) (6D, 7F)
 There are   149 symmetry adapted cartesian basis functions of A   symmetry.
 There are   149 symmetry adapted basis functions of A   symmetry.
   149 basis functions,   280 primitive gaussians,   149 cartesian basis functions
    31 alpha electrons       31 beta electrons
       nuclear repulsion energy       396.8904716743 Hartrees.
 NAtoms=   16 NActive=   16 NUniq=   16 SFac= 1.00D+00 NAtFMM=   60 NAOKFM=F Big=F
 Integral buffers will be    131072 words long.
 Regular integral format.
 Two-electron integral symmetry is turned on.
 One-electron integrals computed using PRISM.
 NBasis=   149 RedAO= T EigKep=  4.64D-04  NBF=   149
 NBsUse=   149 1.00D-06 EigRej= -1.00D+00 NBFU=   149
 Initial guess from the checkpoint file:  "FuncsMN152nd.chk"
 B after Tr=    -0.000000    0.000000   -0.000000
         Rot=    0.999924    0.000003   -0.000000   -0.012289 Ang=   1.41 deg.
 ExpMin= 1.61D-01 ExpMax= 4.17D+03 ExpMxC= 6.27D+02 IAcc=3 IRadAn=         5 AccDes= 0.00D+00
 Harris functional with IExCor= 1009 and IRadAn=       5 diagonalized for initial guess.
 HarFok:  IExCor= 1009 AccDes= 0.00D+00 IRadAn=         5 IDoV= 1 UseB2=F ITyADJ=14
 ICtDFT=  3500011 ScaDFX=  1.000000  1.000000  1.000000  1.000000
 FoFCou: FMM=F IPFlag=           0 FMFlag=      100000 FMFlg1=           0
         NFxFlg=           0 DoJE=T BraDBF=F KetDBF=T FulRan=T
         wScrn=  0.000000 ICntrl=       500 IOpCl=  0 I1Cent=   200000004 NGrid=           0
         NMat0=    1 NMatS0=      1 NMatT0=    0 NMatD0=    1 NMtDS0=    0 NMtDT0=    0
 Petite list used in FoFCou.
 Keep R1 ints in memory in canonical form, NReq=64402215.
 Requested convergence on RMS density matrix=1.00D-08 within 128 cycles.
 Requested convergence on MAX density matrix=1.00D-06.
 Requested convergence on             energy=1.00D-06.
 No special actions if energy rises.
 Integral accuracy reduced to 1.0D-05 until final iterations.
 Initial convergence to 1.0D-05 achieved.  Increase integral accuracy.
 SCF Done:  E(RMN15) =  -363.367454307     A.U. after   13 cycles
            NFock= 13  Conv=0.37D-08     -V/T= 2.0162
 DoSCS=F DFT=T ScalE2(SS,OS)=  1.000000  1.000000
 ExpMin= 1.61D-01 ExpMax= 4.17D+03 ExpMxC= 6.27D+02 IAcc=3 IRadAn=         5 AccDes= 0.00D+00
 HarFok:  IExCor=  205 AccDes= 0.00D+00 IRadAn=         5 IDoV=-2 UseB2=F ITyADJ=14
 ICtDFT= 12500011 ScaDFX=  1.000000  1.000000  1.000000  1.000000
 Range of M.O.s used for correlation:    10   149
 NBasis=   149 NAE=    31 NBE=    31 NFC=     9 NFV=     0
 NROrb=    140 NOA=    22 NOB=    22 NVA=   118 NVB=   118

 **** Warning!!: The largest alpha MO coefficient is  0.10589880D+02

 Orbital symmetries:
       Occupied  (A) (A) (A) (A) (A) (A) (A) (A) (A) (A) (A) (A)
                 (A) (A) (A) (A) (A) (A) (A) (A) (A) (A) (A) (A)
                 (A) (A) (A) (A) (A) (A) (A)
       Virtual   (A) (A) (A) (A) (A) (A) (A) (A) (A) (A) (A) (A)
                 (A) (A) (A) (A) (A) (A) (A) (A) (A) (A) (A) (A)
                 (A) (A) (A) (A) (A) (A) (A) (A) (A) (A) (A) (A)
                 (A) (A) (A) (A) (A) (A) (A) (A) (A) (A) (A) (A)
                 (A) (A) (A) (A) (A) (A) (A) (A) (A) (A) (A) (A)
                 (A) (A) (A) (A) (A) (A) (A) (A) (A) (A) (A) (A)
                 (A) (A) (A) (A) (A) (A) (A) (A) (A) (A) (A) (A)
                 (A) (A) (A) (A) (A) (A) (A) (A) (A) (A) (A) (A)
                 (A) (A) (A) (A) (A) (A) (A) (A) (A) (A) (A) (A)
                 (A) (A) (A) (A) (A) (A) (A) (A) (A) (A)
 Generating guess from densities on rwf.
 Convergence on wavefunction:    0.000001000000000
 Iteration     1 Dimension    12 NMult     0 NNew     12
 CISAX will form    12 AO SS matrices at one time.
 New state      1 was old state      2
 New state      2 was old state      1
 Iteration     2 Dimension    24 NMult    12 NNew     12
 Iteration     3 Dimension    36 NMult    24 NNew     12
 Iteration     4 Dimension    48 NMult    36 NNew     12
 Iteration     5 Dimension    60 NMult    48 NNew     12
 Iteration     6 Dimension    72 NMult    60 NNew     12
 Iteration     7 Dimension    84 NMult    72 NNew     12
 Iteration     8 Dimension    92 NMult    84 NNew      8
 Iteration     9 Dimension   100 NMult    92 NNew      8
 Iteration    10 Dimension   104 NMult   100 NNew      4
 Iteration    11 Dimension   108 NMult   104 NNew      4
 Iteration    12 Dimension   110 NMult   108 NNew      2
 ***********************************************************************
 Excited states from <AA,BB:AA,BB> singles matrix:
 ***********************************************************************
 
 Ground to excited state transition densities written to RWF  633
 Ground to excited state transition electric dipole moments (Au):
       state          X           Y           Z        Dip. S.      Osc.
         1        -0.1441     -0.3028     -0.0001      0.1125      0.0136
         2        -0.8848      0.6219     -0.0000      1.1696      0.1350
         3        -1.7290     -0.6482      0.0000      3.4095      0.5167
         4         0.9666      0.1509     -0.0001      0.9571      0.1557
         5         0.8654     -1.0070      0.0000      1.7630      0.3007
         6        -0.3621     -0.1325      0.0000      0.1487      0.0257
 Ground to excited state transition velocity dipole moments (Au):
       state          X           Y           Z        Dip. S.      Osc.
         1         0.0268      0.0605      0.0000      0.0044      0.0160
         2         0.1487     -0.1232     -0.0000      0.0373      0.1435
         3         0.4018      0.1595      0.0000      0.1868      0.5480
         4        -0.2364     -0.0340      0.0000      0.0570      0.1559
         5        -0.2284      0.2664     -0.0000      0.1231      0.3208
         6         0.0995      0.0422     -0.0001      0.0117      0.0300
 Ground to excited state transition magnetic dipole moments (Au):
       state          X           Y           Z
         1        -0.0001     -0.0001      0.0666
         2         0.0001      0.0001      0.0640
         3        -0.0001     -0.0000     -0.6249
         4        -0.0001     -0.0000      0.3419
         5         0.0001     -0.0000     -0.2632
         6         0.0009     -0.0002      1.0875
 Ground to excited state transition velocity quadrupole moments (Au):
       state          XX          YY          ZZ          XY          XZ          YZ
         1        -0.0381     -0.0733      0.0094      0.0479      0.0000     -0.0000
         2         0.1920     -0.1742     -0.0048     -0.0039     -0.0000      0.0000
         3         0.1550     -0.1112     -0.0091     -0.4044      0.0000     -0.0001
         4         0.2302     -0.0074      0.0298      0.1520     -0.0000      0.0001
         5         0.5568     -0.0436      0.0226     -0.4080     -0.0001      0.0001
         6        -1.1264      0.4427     -0.0024      0.7064     -0.0002      0.0005
 <0|del|b> * <b|rxdel|0> + <0|del|b> * <b|delr+rdel|0>
 Rotatory Strengths (R) in cgs (10**-40 erg-esu-cm/Gauss)
       state          XX          YY          ZZ    R(velocity)    E-M Angle
         1        -0.0161     -0.0074     -0.0132     -0.0122       90.00
         2        -0.0355      0.0225     -0.0058     -0.0063       90.00
         3        -0.0347     -0.1074     -0.0074     -0.0498       90.00
         4         0.0074      0.0029      0.0410      0.0171       90.00
         5         0.0446     -0.0792     -0.0251     -0.0199       90.00
         6        -0.1343      0.1606      0.0246      0.0170       90.00
 1/2[<0|r|b>*<b|rxdel|0> + (<0|rxdel|b>*<b|r|0>)*]
 Rotatory Strengths (R) in cgs (10**-40 erg-esu-cm/Gauss)
       state          XX          YY          ZZ     R(length)
         1        -0.0125     -0.0256      0.0028     -0.0118
         2         0.0392     -0.0490      0.0016     -0.0027
         3        -0.1067     -0.0219      0.0030     -0.0418
         4         0.0389      0.0014      0.0125      0.0176
         5        -0.0647     -0.0086      0.0055     -0.0226
         6         0.2257     -0.0213     -0.0253      0.0597
  1/2[<0|del|b>*<b|r|0> + (<0|r|b>*<b|del|0>)*] (Au)
       state          X           Y           Z        Dip. S.   Osc.(frdel)
         1        -0.0039     -0.0183     -0.0000      0.0222      0.0148
         2        -0.1315     -0.0766      0.0000      0.2081      0.1388
         3        -0.6946     -0.1034      0.0000      0.7980      0.5320
         4        -0.2285     -0.0051     -0.0000      0.2336      0.1558
         5        -0.1977     -0.2682     -0.0000      0.4659      0.3106
         6        -0.0360     -0.0056     -0.0000      0.0416      0.0277

 Excitation energies and oscillator strengths:
 
 Excited State   1:      Singlet-A      4.9524 eV  250.35 nm  f=0.0136  <S**2>=0.000
      30 -> 32         0.55615
      31 -> 33        -0.41557
 
 Excited State   2:      Singlet-A      4.7111 eV  263.18 nm  f=0.1350  <S**2>=0.000
      30 -> 33         0.14688
      31 -> 32         0.67811
 This state for optimization and/or second-order correction.
 Total Energy, E(TD-HF/TD-DFT) =  -363.194325143    
 Copying the excited state density for this state as the 1-particle RhoCI density.
 
 Excited State   3:      Singlet-A      6.1851 eV  200.46 nm  f=0.5167  <S**2>=0.000
      29 -> 32        -0.14418
      30 -> 32         0.38484
      31 -> 33         0.54462
      31 -> 34        -0.11401
 
 Excited State   4:      Singlet-A      6.6387 eV  186.76 nm  f=0.1557  <S**2>=0.000
      29 -> 32        -0.50003
      30 -> 32        -0.14559
      30 -> 33         0.42934
      31 -> 33        -0.11832
      31 -> 34        -0.14178
 
 Excited State   5:      Singlet-A      6.9622 eV  178.08 nm  f=0.3007  <S**2>=0.000
      29 -> 32         0.38127
      30 -> 33         0.52076
      31 -> 32        -0.16063
      31 -> 34         0.20634
 
 Excited State   6:      Singlet-A      7.0544 eV  175.75 nm  f=0.0257  <S**2>=0.000
      29 -> 32        -0.26270
      29 -> 33         0.13593
      31 -> 34         0.62459
 SavETr:  write IOETrn=   770 NScale= 10 NData=  16 NLR=1 NState=    6 LETran=     118.
          IDoAtm=1111111111111111
          Differentiating once with respect to electric field.
                with respect to dipole field.
          Differentiating once with respect to nuclear coordinates.
 Keep R1 ints in memory in canonical form, NReq=64414501.
          There are     1 degrees of freedom in the 1st order CPHF.  IDoFFX=0 NUNeed=     1.
 LinEq1:  Iter=  0 NonCon=     1 RMS=1.13D-02 Max=2.65D-01 NDo=     1
 AX will form     1 AO Fock derivatives at one time.
 LinEq1:  Iter=  1 NonCon=     1 RMS=4.18D-03 Max=1.02D-01 NDo=     1
 LinEq1:  Iter=  2 NonCon=     1 RMS=2.61D-03 Max=7.74D-02 NDo=     1
 LinEq1:  Iter=  3 NonCon=     1 RMS=1.24D-03 Max=1.99D-02 NDo=     1
 LinEq1:  Iter=  4 NonCon=     1 RMS=5.96D-04 Max=1.72D-02 NDo=     1
 LinEq1:  Iter=  5 NonCon=     1 RMS=3.04D-04 Max=7.14D-03 NDo=     1
 LinEq1:  Iter=  6 NonCon=     1 RMS=1.50D-04 Max=3.16D-03 NDo=     1
 LinEq1:  Iter=  7 NonCon=     1 RMS=7.59D-05 Max=1.45D-03 NDo=     1
 LinEq1:  Iter=  8 NonCon=     1 RMS=2.38D-05 Max=4.70D-04 NDo=     1
 LinEq1:  Iter=  9 NonCon=     1 RMS=1.63D-05 Max=3.84D-04 NDo=     1
 LinEq1:  Iter= 10 NonCon=     1 RMS=6.47D-06 Max=1.42D-04 NDo=     1
 LinEq1:  Iter= 11 NonCon=     1 RMS=3.43D-06 Max=5.33D-05 NDo=     1
 LinEq1:  Iter= 12 NonCon=     1 RMS=1.72D-06 Max=2.69D-05 NDo=     1
 LinEq1:  Iter= 13 NonCon=     1 RMS=7.06D-07 Max=1.11D-05 NDo=     1
 LinEq1:  Iter= 14 NonCon=     1 RMS=2.40D-07 Max=4.23D-06 NDo=     1
 LinEq1:  Iter= 15 NonCon=     1 RMS=1.40D-07 Max=2.35D-06 NDo=     1
 LinEq1:  Iter= 16 NonCon=     1 RMS=4.53D-08 Max=9.46D-07 NDo=     1
 LinEq1:  Iter= 17 NonCon=     1 RMS=9.56D-09 Max=1.61D-07 NDo=     1
 LinEq1:  Iter= 18 NonCon=     1 RMS=4.47D-09 Max=1.00D-07 NDo=     1
 LinEq1:  Iter= 19 NonCon=     1 RMS=2.30D-09 Max=4.23D-08 NDo=     1
 LinEq1:  Iter= 20 NonCon=     1 RMS=6.03D-10 Max=8.71D-09 NDo=     1
 LinEq1:  Iter= 21 NonCon=     1 RMS=1.04D-10 Max=1.73D-09 NDo=     1
 LinEq1:  Iter= 22 NonCon=     0 RMS=1.58D-11 Max=1.64D-10 NDo=     1
 Linear equations converged to 1.000D-10 1.000D-09 after    22 iterations.
 End of Minotr F.D. properties file   721 does not exist.
 End of Minotr F.D. properties file   722 does not exist.
 End of Minotr F.D. properties file   788 does not exist.
 Calling FoFJK, ICntrl=  10005127 FMM=F ISym2X=0 I1Cent= 0 IOpClX= 0 NMat=1 NMatS=1 NMatT=0.
 ***** Axes restored to original set *****
 -------------------------------------------------------------------
 Center     Atomic                   Forces (Hartrees/Bohr)
 Number     Number              X              Y              Z
 -------------------------------------------------------------------
      1        6           0.000825823   -0.022816535   -0.000007269
      2        6          -0.010505043    0.025105883    0.000010390
      3        6           0.016416565   -0.006375190   -0.000000641
      4        6          -0.020302862    0.010113468   -0.000009580
      5        6           0.004416335   -0.018942231    0.000002484
      6        6           0.001577556    0.005375633    0.000005795
      7        7           0.005645695    0.018256419    0.000035742
      8        6          -0.010884007    0.009305828   -0.000014031
      9        6           0.012512829   -0.020152173   -0.000009115
     10        1          -0.000734792   -0.001371724   -0.000017134
     11        1           0.001916508    0.000286905    0.000003777
     12        1          -0.000689501    0.001587219    0.000004056
     13        1           0.000052356   -0.000506603   -0.000003476
     14        1          -0.000959728    0.000736487   -0.000000214
     15        1          -0.000043286    0.000097191    0.000000661
     16        1           0.000755551   -0.000700576   -0.000001444
 -------------------------------------------------------------------
 Cartesian Forces:  Max     0.025105883 RMS     0.008709612

 GradGradGradGradGradGradGradGradGradGradGradGradGradGradGradGradGradGrad
 Berny optimization.
 Using GEDIIS/GDIIS optimizer.
 FormGI is forming the generalized inverse of G from B-inverse, IUseBI=4.
 Internal  Forces:  Max     0.019016036 RMS     0.003831687
 Search for a local minimum.
 Step number   2 out of a maximum of   94
 All quantities printed in internal units (Hartrees-Bohrs-Radians)
 Mixed Optimization -- RFO/linear search
 Update second derivatives using D2CorX and points    1    2
 DE= -8.94D-03 DEPred=-7.15D-03 R= 1.25D+00
 TightC=F SS=  1.41D+00  RLast= 1.80D-01 DXNew= 5.0454D-01 5.3916D-01
 Trust test= 1.25D+00 RLast= 1.80D-01 DXMaxT set to 5.05D-01
 ITU=  1  0
 Use linear search instead of GDIIS.
     Eigenvalues ---    0.01792   0.01869   0.01928   0.01945   0.02010
     Eigenvalues ---    0.02041   0.02076   0.02092   0.02098   0.02136
     Eigenvalues ---    0.02159   0.02173   0.02276   0.15735   0.16000
     Eigenvalues ---    0.16000   0.16000   0.16000   0.16000   0.16029
     Eigenvalues ---    0.18159   0.22058   0.22729   0.24650   0.25635
     Eigenvalues ---    0.31976   0.35147   0.35162   0.35176   0.35211
     Eigenvalues ---    0.35829   0.35843   0.37686   0.38662   0.42192
     Eigenvalues ---    0.44114   0.45854   0.46334   0.46547   0.46708
     Eigenvalues ---    0.48545   0.62602
 RFO step:  Lambda=-3.78909132D-03 EMin= 1.79153532D-02
 Quartic linear search produced a step of  0.12644.
 Iteration  1 RMS(Cart)=  0.01228802 RMS(Int)=  0.00014333
 Iteration  2 RMS(Cart)=  0.00018827 RMS(Int)=  0.00005314
 Iteration  3 RMS(Cart)=  0.00000001 RMS(Int)=  0.00005314
 Variable       Old X    -DE/DX   Delta X   Delta X   Delta X     New X
                                 (Linear)    (Quad)   (Total)
    R1        2.66279  -0.01902  -0.00035  -0.04790  -0.04828   2.61451
    R2        2.67495   0.00349   0.00645   0.01382   0.02023   2.69519
    R3        2.05301   0.00008  -0.00011   0.00018   0.00007   2.05308
    R4        2.70297   0.00972   0.00965   0.03133   0.04099   2.74395
    R5        2.05464   0.00021   0.00016   0.00078   0.00094   2.05559
    R6        2.65678  -0.00629   0.00164  -0.01422  -0.01255   2.64423
    R7        2.05319  -0.00076  -0.00015  -0.00250  -0.00265   2.05054
    R8        2.70932  -0.01430   0.00235  -0.03886  -0.03652   2.67279
    R9        2.64597   0.00584   0.00462   0.01551   0.02025   2.66622
   R10        2.70704  -0.00009   0.00626   0.00445   0.01071   2.71775
   R11        2.66880   0.00139  -0.00597   0.00028  -0.00583   2.66297
   R12        2.05302  -0.00072  -0.00017  -0.00238  -0.00255   2.05047
   R13        2.56749  -0.00871  -0.00590  -0.02438  -0.03016   2.53733
   R14        1.91196   0.00108   0.00093   0.00336   0.00429   1.91625
   R15        2.67324   0.01008   0.01074   0.03341   0.04411   2.71735
   R16        2.04463   0.00093   0.00013   0.00297   0.00310   2.04773
   R17        2.04469  -0.00085   0.00017  -0.00252  -0.00235   2.04234
    A1        2.11295   0.00199  -0.00011   0.01106   0.01087   2.12382
    A2        2.07709  -0.00093  -0.00047  -0.00505  -0.00548   2.07161
    A3        2.09314  -0.00106   0.00058  -0.00600  -0.00539   2.08775
    A4        2.14098  -0.00111   0.00325  -0.00314   0.00007   2.14105
    A5        2.07233   0.00103  -0.00153   0.00484   0.00333   2.07567
    A6        2.06987   0.00008  -0.00172  -0.00170  -0.00340   2.06647
    A7        2.02513  -0.00283  -0.00322  -0.01551  -0.01871   2.00643
    A8        2.13158   0.00045   0.00216   0.00110   0.00325   2.13483
    A9        2.12647   0.00238   0.00106   0.01441   0.01546   2.14193
   A10        2.13732   0.00475   0.00025   0.02251   0.02277   2.16009
   A11        2.25819  -0.00091  -0.00247  -0.00073  -0.00327   2.25492
   A12        1.88768  -0.00384   0.00223  -0.02177  -0.01950   1.86818
   A13        2.09974  -0.00135   0.00357  -0.00553  -0.00185   2.09789
   A14        1.83978   0.00419  -0.00322   0.01593   0.01254   1.85231
   A15        2.34367  -0.00285  -0.00035  -0.01040  -0.01068   2.33298
   A16        2.05025  -0.00146  -0.00372  -0.00939  -0.01315   2.03710
   A17        2.12140   0.00149   0.00222   0.00987   0.01211   2.13351
   A18        2.11154  -0.00003   0.00150  -0.00048   0.00104   2.11257
   A19        1.90965   0.00819   0.00023   0.03841   0.03886   1.94851
   A20        2.19121  -0.00517   0.00031  -0.02658  -0.02637   2.16484
   A21        2.18232  -0.00302  -0.00054  -0.01183  -0.01248   2.16984
   A22        1.90067  -0.00048   0.00389   0.00394   0.00767   1.90834
   A23        2.20044   0.00198  -0.00185   0.00996   0.00818   2.20862
   A24        2.18207  -0.00150  -0.00204  -0.01389  -0.01585   2.16622
   A25        1.88700  -0.00806  -0.00313  -0.03651  -0.03956   1.84744
   A26        2.11170   0.00557   0.00147   0.02885   0.03028   2.14197
   A27        2.28449   0.00248   0.00166   0.00766   0.00928   2.29377
    D1        0.00006  -0.00000  -0.00002   0.00009   0.00007   0.00013
    D2        3.14152   0.00000   0.00001   0.00000   0.00001   3.14153
    D3       -3.14156  -0.00000  -0.00001   0.00003   0.00002  -3.14153
    D4       -0.00010   0.00000   0.00002  -0.00006  -0.00004  -0.00014
    D5       -0.00009   0.00000   0.00002  -0.00007  -0.00005  -0.00014
    D6       -3.14138  -0.00000   0.00001  -0.00007  -0.00007  -3.14145
    D7        3.14153   0.00000   0.00001  -0.00001  -0.00000   3.14153
    D8        0.00023  -0.00000  -0.00001  -0.00001  -0.00002   0.00022
    D9        0.00001   0.00000   0.00001  -0.00001  -0.00000   0.00001
   D10       -3.14152   0.00000   0.00001  -0.00005  -0.00004  -3.14156
   D11       -3.14145  -0.00000  -0.00002   0.00007   0.00006  -3.14139
   D12        0.00021  -0.00000  -0.00002   0.00004   0.00002   0.00023
   D13       -0.00006  -0.00000   0.00001  -0.00008  -0.00008  -0.00014
   D14       -3.14145  -0.00000  -0.00001  -0.00003  -0.00003  -3.14148
   D15        3.14147  -0.00000   0.00000  -0.00005  -0.00005   3.14143
   D16        0.00008  -0.00000  -0.00001   0.00001  -0.00000   0.00008
   D17        0.00003   0.00000  -0.00001   0.00010   0.00010   0.00013
   D18       -3.14156   0.00000  -0.00000   0.00014   0.00014  -3.14142
   D19        3.14146   0.00000   0.00001   0.00006   0.00006   3.14152
   D20       -0.00013   0.00000   0.00001   0.00009   0.00010  -0.00003
   D21       -3.14155  -0.00000  -0.00003   0.00014   0.00012  -3.14143
   D22       -0.00139   0.00001   0.00002   0.00026   0.00028  -0.00111
   D23        0.00022  -0.00000  -0.00004   0.00019   0.00015   0.00037
   D24        3.14038   0.00001   0.00001   0.00031   0.00032   3.14070
   D25        0.00004  -0.00000  -0.00001  -0.00002  -0.00003   0.00001
   D26        3.14134   0.00000   0.00001  -0.00002  -0.00001   3.14133
   D27       -3.14156  -0.00000  -0.00001  -0.00007  -0.00008   3.14155
   D28       -0.00026  -0.00000   0.00001  -0.00007  -0.00006  -0.00032
   D29       -0.00000  -0.00000   0.00003  -0.00033  -0.00030  -0.00030
   D30        3.14140   0.00000   0.00001  -0.00003  -0.00002   3.14137
   D31       -3.14159   0.00000   0.00003  -0.00028  -0.00025   3.14135
   D32       -0.00019   0.00000   0.00001   0.00001   0.00002  -0.00017
   D33       -0.00022   0.00000   0.00007  -0.00039  -0.00033  -0.00055
   D34        3.14153   0.00000   0.00002  -0.00011  -0.00008   3.14145
   D35       -3.14039  -0.00001   0.00002  -0.00049  -0.00047  -3.14087
   D36        0.00136  -0.00001  -0.00003  -0.00021  -0.00023   0.00113
   D37        0.00014  -0.00000  -0.00006   0.00045   0.00038   0.00052
   D38        3.14155   0.00000  -0.00001   0.00013   0.00011  -3.14152
   D39       -3.14127  -0.00000  -0.00004   0.00016   0.00012  -3.14115
   D40        0.00015  -0.00000   0.00001  -0.00017  -0.00015  -0.00001
         Item               Value     Threshold  Converged?
 Maximum Force            0.019016     0.000450     NO 
 RMS     Force            0.003832     0.000300     NO 
 Maximum Displacement     0.042675     0.001800     NO 
 RMS     Displacement     0.012280     0.001200     NO 
 Predicted change in Energy=-2.337524D-03
 GradGradGradGradGradGradGradGradGradGradGradGradGradGradGradGradGradGrad

                          Input orientation:                          
 ---------------------------------------------------------------------
 Center     Atomic      Atomic             Coordinates (Angstroms)
 Number     Number       Type             X           Y           Z
 ---------------------------------------------------------------------
      1          6           0       -2.193019    0.691535    0.000099
      2          6           0       -2.154205   -0.691462    0.000006
      3          6           0       -0.910420   -1.440736   -0.000033
      4          6           0        0.249964   -0.658785    0.000043
      5          6           0        0.244752    0.755585   -0.000014
      6          6           0       -1.000878    1.474436    0.000004
      7          7           0        1.600452   -1.067228   -0.000088
      8          6           0        1.597013    1.152058   -0.000140
      9          6           0        2.435728   -0.015968    0.000245
     10          1           0        1.900453   -2.035869    0.000669
     11          1           0        1.971252    2.168993   -0.000403
     12          1           0        3.511061   -0.124113    0.000342
     13          1           0       -3.091126   -1.244111    0.000144
     14          1           0       -0.886722   -2.525573   -0.000140
     15          1           0       -3.160300    1.186239    0.000178
     16          1           0       -1.020807    2.559317    0.000208
 ---------------------------------------------------------------------
                    Distance matrix (angstroms):
                    1          2          3          4          5
     1  C    0.000000
     2  C    1.383541   0.000000
     3  C    2.488301   1.452037   0.000000
     4  C    2.791332   2.404391   1.399264   0.000000
[...]
 ! D1    D(6,1,2,3)             -0.0015         -DE/DX =    0.0                 !
 ! D2    D(6,1,2,13)          -180.0012         -DE/DX =    0.0                 !
 ! D3    D(15,1,2,3)           180.0012         -DE/DX =    0.0                 !
 ! D4    D(15,1,2,13)            0.0015         -DE/DX =    0.0                 !
 ! D5    D(2,1,6,5)              0.002          -DE/DX =    0.0                 !
 ! D6    D(2,1,6,16)          -179.9916         -DE/DX =    0.0                 !
 ! D7    D(15,1,6,5)          -180.0007         -DE/DX =    0.0                 !
 ! D8    D(15,1,6,16)            0.0057         -DE/DX =    0.0                 !
 ! D9    D(1,2,3,4)              0.0002         -DE/DX =    0.0                 !
 ! D10   D(1,2,3,14)          -179.9953         -DE/DX =    0.0                 !
 ! D11   D(13,2,3,4)          -180.0001         -DE/DX =    0.0                 !
 ! D12   D(13,2,3,14)            0.0044         -DE/DX =    0.0                 !
 ! D13   D(2,3,4,5)              0.0005         -DE/DX =    0.0                 !
 ! D14   D(2,3,4,7)           -179.9962         -DE/DX =    0.0                 !
 ! D15   D(14,3,4,5)           179.996          -DE/DX =    0.0                 !
 ! D16   D(14,3,4,7)            -0.0007         -DE/DX =    0.0                 !
 ! D17   D(3,4,5,6)              0.0            -DE/DX =    0.0                 !
 ! D18   D(3,4,5,8)           -179.9985         -DE/DX =    0.0                 !
 ! D19   D(7,4,5,6)            179.9973         -DE/DX =    0.0                 !
 ! D20   D(7,4,5,8)             -0.0011         -DE/DX =    0.0                 !
 ! D21   D(3,4,7,9)           -180.0136         -DE/DX =    0.0                 !
 ! D22   D(3,4,7,10)            -0.0141         -DE/DX =    0.0                 !
 ! D23   D(5,4,7,9)             -0.0108         -DE/DX =    0.0                 !
 ! D24   D(5,4,7,10)           179.9887         -DE/DX =    0.0                 !
 ! D25   D(4,5,6,1)             -0.0012         -DE/DX =    0.0                 !
 ! D26   D(4,5,6,16)           179.9924         -DE/DX =    0.0                 !
 ! D27   D(8,5,6,1)            179.9967         -DE/DX =    0.0                 !
 ! D28   D(8,5,6,16)            -0.0096         -DE/DX =    0.0                 !
 ! D29   D(4,5,8,9)              0.0117         -DE/DX =    0.0                 !
 ! D30   D(4,5,8,11)           179.9946         -DE/DX =    0.0                 !
 ! D31   D(6,5,8,9)            180.0136         -DE/DX =    0.0                 !
 ! D32   D(6,5,8,11)            -0.0036         -DE/DX =    0.0                 !
 ! D33   D(4,7,9,8)              0.0178         -DE/DX =    0.0                 !
 ! D34   D(4,7,9,12)           180.0089         -DE/DX =    0.0                 !
 ! D35   D(10,7,9,8)           180.0184         -DE/DX =    0.0                 !
 ! D36   D(10,7,9,12)            0.0095         -DE/DX =    0.0                 !
 ! D37   D(5,8,9,7)             -0.0181         -DE/DX =    0.0                 !
 ! D38   D(5,8,9,12)          -180.0082         -DE/DX =    0.0                 !
 ! D39   D(11,8,9,7)          -180.0015         -DE/DX =    0.0                 !
 ! D40   D(11,8,9,12)            0.0084         -DE/DX =    0.0                 !
 --------------------------------------------------------------------------------
 GradGradGradGradGradGradGradGradGradGradGradGradGradGradGradGradGradGrad

                          Input orientation:                          
 ---------------------------------------------------------------------
 Center     Atomic      Atomic             Coordinates (Angstroms)
 Number     Number       Type             X           Y           Z
 ---------------------------------------------------------------------
      1          6           0       -2.183528    0.683999   -0.000043
      2          6           0       -2.155909   -0.696103    0.000033
      3          6           0       -0.910672   -1.442484    0.000150
      4          6           0        0.241252   -0.656354    0.000182
      5          6           0        0.243400    0.752640    0.000121
      6          6           0       -0.992535    1.467429    0.000018
      7          7           0        1.591168   -1.063407    0.000215
      8          6           0        1.603185    1.160032    0.000144
      9          6           0        2.431004   -0.009349   -0.000057
     10          1           0        1.883169   -2.034900    0.000428
     11          1           0        1.979184    2.175690    0.000030
     12          1           0        3.505342   -0.117371   -0.000221
     13          1           0       -3.090089   -1.252498    0.000002
     14          1           0       -0.888841   -2.526828    0.000136
     15          1           0       -3.145424    1.191771   -0.000110
     16          1           0       -1.017509    2.552054    0.000092
 ---------------------------------------------------------------------
                    Distance matrix (angstroms):
                    1          2          3          4          5
     1  C    0.000000
     2  C    1.380378   0.000000
     3  C    2.478324   1.451792   0.000000
     4  C    2.770578   2.397490   1.394607   0.000000
     5  C    2.427899   2.802773   2.480011   1.408996   0.000000
     6  C    1.425562   2.456482   2.911064   2.456152   1.427746
     7  N    4.159538   3.765036   2.530396   1.409952   2.261527
     8  C    3.816517   4.192376   3.618365   2.270269   1.419501
     9  C    4.666330   4.638038   3.636025   2.283338   2.316514
    10  H    4.891875   4.255177   2.855960   2.143894   3.234072
    11  H    4.421913   5.034499   4.630599   3.322782   2.244552
    12  H    5.745035   5.690755   4.610543   3.308291   3.375971
    13  H    2.138194   1.087322   2.187682   3.384260   3.890081
    14  H    3.462026   2.226436   1.084564   2.185357   3.469421
    15  H    1.087693   2.131480   3.454477   3.858126   3.417157
    16  H    2.202097   3.441871   3.995966   3.446500   2.197221
                    6          7          8          9         10
     6  C    0.000000
     7  N    3.616718   0.000000
     8  C    2.613858   2.223471   0.000000
     9  C    3.728471   1.347725   1.432737   0.000000
    10  H    4.531664   1.014428   3.207176   2.098327   0.000000
    11  H    3.054955   3.262254   1.083022   2.231264   4.211684
    12  H    4.768908   2.135192   2.291279   1.079755   2.511645
    13  H    3.434783   4.685074   5.277037   5.659318   5.034426
    14  H    3.995603   2.879592   4.450071   4.166422   2.815322
    15  H    2.170465   5.246058   4.748715   5.704317   5.974793
    16  H    1.084913   4.458335   2.967450   4.295699   5.427161
                   11         12         13         14         15
    11  H    0.000000
    12  H    2.754503   0.000000
    13  H    6.119640   6.692400   0.000000
    14  H    5.508107   5.011420   2.543503   0.000000
    15  H    5.218209   6.778387   2.444895   4.349729   0.000000
    16  H    3.020235   5.251857   4.332459   5.080512   2.525548
                   16
    16  H    0.000000
 Stoichiometry    C8H7N
 Framework group  C1[X(C8H7N)]
 Deg. of freedom    42
 Full point group                 C1      NOp   1
 Largest Abelian subgroup         C1      NOp   1
 Largest concise Abelian subgroup C1      NOp   1
                         Standard orientation:                         
 ---------------------------------------------------------------------
 Center     Atomic      Atomic             Coordinates (Angstroms)
 Number     Number       Type             X           Y           Z
 ---------------------------------------------------------------------
      1          6           0       -2.194867    0.646090   -0.000126
      2          6           0       -2.144403   -0.733365   -0.000050
      3          6           0       -0.886980   -1.459029    0.000067
      4          6           0        0.251771   -0.653936    0.000099
      5          6           0        0.230592    0.754901    0.000038
      6          6           0       -1.017008    1.449130   -0.000065
      7          7           0        1.608241   -1.038583    0.000132
      8          6           0        1.583446    1.184749    0.000061
      9          6           0        2.430511    0.029234   -0.000140
     10          1           0        1.916286   -2.005109    0.000345
     11          1           0        1.942578    2.206493   -0.000053
     12          1           0        3.506490   -0.060987   -0.000304
     13          1           0       -3.069244   -1.305151   -0.000081
     14          1           0       -0.847200   -2.542863    0.000053
     15          1           0       -3.165038    1.137867   -0.000193
     16          1           0       -1.059935    2.533193    0.000009
 ---------------------------------------------------------------------
 Rotational constants (GHZ):           3.8547847           1.6055375           1.1334498

 **********************************************************************

            Population analysis using the CI Density.

 **********************************************************************

 Orbital symmetries:
       Occupied  (A) (A) (A) (A) (A) (A) (A) (A) (A) (A) (A) (A)
                 (A) (A) (A) (A) (A) (A) (A) (A) (A) (A) (A) (A)
                 (A) (A) (A) (A) (A) (A) (A)
       Virtual   (A) (A) (A) (A) (A) (A) (A) (A) (A) (A) (A) (A)
                 (A) (A) (A) (A) (A) (A) (A) (A) (A) (A) (A) (A)
                 (A) (A) (A) (A) (A) (A) (A) (A) (A) (A) (A) (A)
                 (A) (A) (A) (A) (A) (A) (A) (A) (A) (A) (A) (A)
                 (A) (A) (A) (A) (A) (A) (A) (A) (A) (A) (A) (A)
                 (A) (A) (A) (A) (A) (A) (A) (A) (A) (A) (A) (A)
                 (A) (A) (A) (A) (A) (A) (A) (A) (A) (A) (A) (A)
                 (A) (A) (A) (A) (A) (A) (A) (A) (A) (A) (A) (A)
                 (A) (A) (A) (A) (A) (A) (A) (A) (A) (A) (A) (A)
                 (A) (A) (A) (A) (A) (A) (A) (A) (A) (A)
 The electronic state is 1-A.
 Alpha  occ. eigenvalues --  -14.16489 -10.10385 -10.09661 -10.07245 -10.06583
 Alpha  occ. eigenvalues --  -10.06328 -10.06096 -10.05854 -10.05026  -1.01525
 Alpha  occ. eigenvalues --   -0.87048  -0.80761  -0.77085  -0.73786  -0.65982
 Alpha  occ. eigenvalues --   -0.62639  -0.60726  -0.57266  -0.51320  -0.50355
 Alpha  occ. eigenvalues --   -0.46757  -0.46134  -0.46001  -0.43158  -0.42107
 Alpha  occ. eigenvalues --   -0.37592  -0.37216  -0.36713  -0.30026  -0.25499
 Alpha  occ. eigenvalues --   -0.21488
 Alpha virt. eigenvalues --    0.01153   0.06451   0.10360   0.12813   0.14741
 Alpha virt. eigenvalues --    0.18154   0.19126   0.21303   0.22064   0.22233
 Alpha virt. eigenvalues --    0.23426   0.26415   0.28813   0.31039   0.32656
 Alpha virt. eigenvalues --    0.36484   0.37898   0.41622   0.47526   0.53154
 Alpha virt. eigenvalues --    0.54906   0.55222   0.56730   0.57485   0.58815
 Alpha virt. eigenvalues --    0.60128   0.61153   0.62034   0.62385   0.64490
 Alpha virt. eigenvalues --    0.64701   0.64905   0.65596   0.66215   0.68588
 Alpha virt. eigenvalues --    0.72293   0.74476   0.80933   0.84384   0.84982
 Alpha virt. eigenvalues --    0.84983   0.87787   0.88499   0.89273   0.90320
 Alpha virt. eigenvalues --    0.92219   0.93941   0.96287   0.98994   0.99655
 Alpha virt. eigenvalues --    1.01374   1.06646   1.08741   1.14104   1.14943
 Alpha virt. eigenvalues --    1.21629   1.24214   1.27505   1.31065   1.33025
 Alpha virt. eigenvalues --    1.35117   1.38571   1.40939   1.42800   1.46732
 Alpha virt. eigenvalues --    1.47891   1.49040   1.49731   1.51913   1.54372
 Alpha virt. eigenvalues --    1.60871   1.75134   1.76912   1.80154   1.88077
 Alpha virt. eigenvalues --    1.88185   1.89230   1.92672   1.93457   1.96557
 Alpha virt. eigenvalues --    1.97665   1.98997   2.06889   2.08373   2.11195
 Alpha virt. eigenvalues --    2.11951   2.17905   2.18811   2.20254   2.23455
 Alpha virt. eigenvalues --    2.24236   2.32111   2.35320   2.35436   2.42572
 Alpha virt. eigenvalues --    2.50636   2.53022   2.55495   2.57670   2.58847
 Alpha virt. eigenvalues --    2.65697   2.68705   2.72769   2.75532   2.83078
 Alpha virt. eigenvalues --    2.88822   2.97459   3.12504   3.30020   3.95055
 Alpha virt. eigenvalues --    4.01844   4.03820   4.07623   4.13845   4.25536
 Alpha virt. eigenvalues --    4.32235   4.37623   4.65800
          Condensed to atoms (all electrons):
               1          2          3          4          5          6
     1  C    4.859881   0.598420  -0.042526  -0.035114   0.006171   0.440419
     2  C    0.598420   4.914259   0.394121   0.019520  -0.031461  -0.037171
     3  C   -0.042526   0.394121   5.188581   0.492594  -0.067889  -0.032755
     4  C   -0.035114   0.019520   0.492594   4.754299   0.506193  -0.052795
     5  C    0.006171  -0.031461  -0.067889   0.506193   4.696092   0.461209
     6  C    0.440419  -0.037171  -0.032755  -0.052795   0.461209   5.182139
     7  N    0.000196   0.004982  -0.084181   0.238993  -0.031931   0.008242
     8  C    0.007854   0.000252   0.012427  -0.014063   0.438043  -0.090362
     9  C   -0.000403  -0.000257   0.006367  -0.106486  -0.032674   0.010749
    10  H   -0.000002  -0.000025  -0.003763  -0.019768   0.005590  -0.000082
    11  H    0.000008   0.000008  -0.000146   0.006661  -0.024263  -0.005168
    12  H    0.000002   0.000001  -0.000102   0.004188   0.001845  -0.000086
    13  H   -0.034502   0.357369  -0.038703   0.003005   0.000937   0.004533
    14  H    0.003942  -0.033124   0.351771  -0.037123   0.004832   0.000481
    15  H    0.358985  -0.037788   0.004830   0.000731   0.003124  -0.037645
    16  H   -0.038975   0.004510   0.000520   0.005336  -0.038353   0.356293
               7          8          9         10         11         12
     1  C    0.000196   0.007854  -0.000403  -0.000002   0.000008   0.000002
     2  C    0.004982   0.000252  -0.000257  -0.000025   0.000008   0.000001
     3  C   -0.084181   0.012427   0.006367  -0.003763  -0.000146  -0.000102
     4  C    0.238993  -0.014063  -0.106486  -0.019768   0.006661   0.004188
     5  C   -0.031931   0.438043  -0.032674   0.005590  -0.024263   0.001845
     6  C    0.008242  -0.090362   0.010749  -0.000082  -0.005168  -0.000086
     7  N    6.866291  -0.065649   0.375178   0.319321   0.004110  -0.041329
     8  C   -0.065649   5.173363   0.407672   0.005126   0.364027  -0.026974
     9  C    0.375178   0.407672   4.976433  -0.031165  -0.047135   0.374456
    10  H    0.319321   0.005126  -0.031165   0.378508  -0.000079  -0.002595
    11  H    0.004110   0.364027  -0.047135  -0.000079   0.545425  -0.001012
    12  H   -0.041329  -0.026974   0.374456  -0.002595  -0.001012   0.525255
    13  H   -0.000101   0.000004   0.000002  -0.000001  -0.000000  -0.000000
    14  H   -0.006318  -0.000310   0.000029   0.002513   0.000002   0.000002
    15  H    0.000001  -0.000157   0.000004  -0.000000  -0.000001  -0.000000
    16  H   -0.000124  -0.007162  -0.000016   0.000003   0.002053  -0.000000
              13         14         15         16
     1  C   -0.034502   0.003942   0.358985  -0.038975
     2  C    0.357369  -0.033124  -0.037788   0.004510
     3  C   -0.038703   0.351771   0.004830   0.000520
     4  C    0.003005  -0.037123   0.000731   0.005336
     5  C    0.000937   0.004832   0.003124  -0.038353
     6  C    0.004533   0.000481  -0.037645   0.356293
     7  N   -0.000101  -0.006318   0.000001  -0.000124
     8  C    0.000004  -0.000310  -0.000157  -0.007162
     9  C    0.000002   0.000029   0.000004  -0.000016
    10  H   -0.000001   0.002513  -0.000000   0.000003
    11  H   -0.000000   0.000002  -0.000001   0.002053
    12  H   -0.000000   0.000002  -0.000000  -0.000000
    13  H    0.616830  -0.004912  -0.007253  -0.000149
    14  H   -0.004912   0.627866  -0.000133   0.000011
    15  H   -0.007253  -0.000133   0.620319  -0.005284
    16  H   -0.000149   0.000011  -0.005284   0.628006
 Mulliken charges:
               1
     1  C   -0.124358
     2  C   -0.153615
     3  C   -0.181148
     4  C    0.233828
     5  C    0.102534
     6  C   -0.208001
     7  N   -0.587682
     8  C   -0.204089
     9  C    0.067245
    10  H    0.346420
    11  H    0.155510
    12  H    0.166349
    13  H    0.102940
    14  H    0.090471
    15  H    0.100266
    16  H    0.093330
 Sum of Mulliken charges =  -0.00000
 Mulliken charges with hydrogens summed into heavy atoms:
               1
     1  C   -0.024092
     2  C   -0.050675
     3  C   -0.090677
     4  C    0.233828
     5  C    0.102534
     6  C   -0.114670
     7  N   -0.241262
     8  C   -0.048579
     9  C    0.233594
 Electronic spatial extent (au):  <R**2>=           1020.0312
 Charge=             -0.0000 electrons
 Dipole moment (field-independent basis, Debye):
    X=              4.3308    Y=             -1.3947    Z=              0.0002  Tot=              4.5499
 Quadrupole moment (field-independent basis, Debye-Ang):
   XX=            -42.7969   YY=            -44.7313   ZZ=            -56.8692
   XY=             -2.6278   XZ=              0.0002   YZ=             -0.0009
 Traceless Quadrupole moment (field-independent basis, Debye-Ang):
   XX=              5.3356   YY=              3.4011   ZZ=             -8.7367
   XY=             -2.6278   XZ=              0.0002   YZ=             -0.0009
 Octapole moment (field-independent basis, Debye-Ang**2):
  XXX=             29.4955  YYY=             -9.6743  ZZZ=              0.0006  XYY=             14.3644
  XXY=             -7.2789  XXZ=             -0.0021  XZZ=              4.3258  YZZ=             -1.4625
  YYZ=              0.0024  XYZ=             -0.0024
 Hexadecapole moment (field-independent basis, Debye-Ang**3):
 XXXX=           -803.3497 YYYY=           -373.6737 ZZZZ=            -58.6996 XXXY=            -18.7342
 XXXZ=             -0.0116 YYYX=            -17.6601 YYYZ=              0.0025 ZZZX=             -0.0072
 ZZZY=              0.0079 XXYY=           -191.4084 XXZZ=           -178.8686 YYZZ=            -88.5134
 XXYZ=             -0.0022 YYXZ=              0.0018 ZZXY=             -2.5385
 N-N= 3.975013798006D+02 E-N=-1.635268211844D+03  KE= 3.578010395450D+02
 Unable to Open any file for archive entry.
 1\1\GINC-COMET-07-11\FOpt\RMN15 TD-FC\6-31G(d)\C8H7N1\SCAPARAS\14-Feb-
 2021\0\\# td= (nstates=6, root=2) MN15/6-31G(d) Opt density=current\\F
 uncsMN152nd\\0,1\C,-2.1835277098,0.6839990115,-0.0000434157\C,-2.15590
 85898,-0.6961025508,0.000033491\C,-0.9106720737,-1.4424838777,0.000150
 1198\C,0.2412519517,-0.6563542105,0.0001819555\C,0.2434003398,0.752640
 226,0.0001206427\C,-0.9925348547,1.4674285818,0.0000181121\N,1.5911680
 366,-1.0634066975,0.0002150802\C,1.6031852359,1.1600315432,0.000144372
 2\C,2.4310041653,-0.0093493018,-0.0000571951\H,1.8831693606,-2.0348998
 409,0.0004279961\H,1.9791841385,2.1756899421,0.0000297957\H,3.50534193
 02,-0.117371133,-0.0002206608\H,-3.0900887279,-1.2524979299,0.00000223
 2\H,-0.8888411377,-2.5268283608,0.0001357661\H,-3.1454235294,1.1917708
 144,-0.0001101437\H,-1.0175085358,2.5520537841,0.0000918518\\Version=E
 S64L-G16RevC.01\State=1-A\HF=-363.3626213\RMSD=5.843e-09\RMSF=1.460e-0
 4\Dipole=1.7038819,-0.548717,0.0000765\Quadrupole=3.9668589,2.5286642,
 -6.4955231,-1.9536683,0.0001208,-0.0006902\PG=C01 [X(C8H7N1)]\\@
 The archive entry for this job was punched.


 IT IS WELL TO REMEMBER THAT MAN IS A PART OF NATURE AND THAT HIS WORKS,
 WHATEVER THEY MAY BE, ARE NO MORE "UNNATURAL" THAN 
 THE FLIGHT OF AN EAGLE OR THE PASSAGE OF A TORNADO.

                                    -- CHARLES MCCARRY IN "THE GREAT SOUTHWEST"
 Job cpu time:       0 days  1 hours 47 minutes 22.5 seconds.
 Elapsed time:       0 days  0 hours 53 minutes 55.0 seconds.
 File lengths (MBytes):  RWF=    202 Int=      0 D2E=      0 Chk=      8 Scr=      1
 Normal termination of Gaussian 16 at Sun Feb 14 22:11:18 2021.
