 Entering Gaussian System, Link 0=/cm/shared/apps/spack/cpu/opt/spack/linux-centos8-zen/gcc-8.3.1/gaussian-16.C.01-po5bqktfeugvmjyga3v7eigbecnokxng/g16/g16
 Initial command:
 /cm/shared/apps/spack/cpu/opt/spack/linux-centos8-zen/gcc-8.3.1/gaussian-16.C.01-po5bqktfeugvmjyga3v7eigbecnokxng/g16/l1.exe "/scratch/scaparas/job_3318858/Gau-58309.inp" -scrdir="/scratch/scaparas/job_3318858/"
 Entering Link 1 = /cm/shared/apps/spack/cpu/opt/spack/linux-centos8-zen/gcc-8.3.1/gaussian-16.C.01-po5bqktfeugvmjyga3v7eigbecnokxng/g16/l1.exe PID=     58312.
  
 Copyright (c) 1988-2019, Gaussian, Inc.  All Rights Reserved.
  
 This is part of the Gaussian(R) 16 program.  It is based on
 the Gaussian(R) 09 system (copyright 2009, Gaussian, Inc.),
 the Gaussian(R) 03 system (copyright 2003, Gaussian, Inc.),
 the Gaussian(R) 98 system (copyright 1998, Gaussian, Inc.),
 the Gaussian(R) 94 system (copyright 1995, Gaussian, Inc.),
 the Gaussian 92(TM) system (copyright 1992, Gaussian, Inc.),
 the Gaussian 90(TM) system (copyright 1990, Gaussian, Inc.),
 the Gaussian 88(TM) system (copyright 1988, Gaussian, Inc.),
 the Gaussian 86(TM) system (copyright 1986, Carnegie Mellon
 University), and the Gaussian 82(TM) system (copyright 1983,
 Carnegie Mellon University). Gaussian is a federally registered
 trademark of Gaussian, Inc.
  
 This software contains proprietary and confidential information,
 including trade secrets, belonging to Gaussian, Inc.
  
 This software is provided under written license and may be
 used, copied, transmitted, or stored only in accord with that
 written license.
  
 The following legend is applicable only to US Government
 contracts under FAR:
  
                    RESTRICTED RIGHTS LEGEND
  
 Use, reproduction and disclosure by the US Government is
 subject to restrictions as set forth in subparagraphs (a)
 and (c) of the Commercial Computer Software - Restricted
 Rights clause in FAR 52.227-19.
  
 Gaussian, Inc.
 340 Quinnipiac St., Bldg. 40, Wallingford CT 06492
  
  
 ---------------------------------------------------------------
 Warning -- This program may not be used in any manner that
 competes with the business of Gaussian, Inc. or will provide
 assistance to any competitor of Gaussian, Inc.  The licensee
 of this program is prohibited from giving any competitor of
 Gaussian, Inc. access to this program.  By using this program,
 the user acknowledges that Gaussian, Inc. is engaged in the
 business of creating and licensing software in the field of
 computational chemistry and represents and warrants to the
 licensee that it is not a competitor of Gaussian, Inc. and that
 it will not use this program in any manner prohibited above.
 ---------------------------------------------------------------
  

 Cite this work as:
 Gaussian 16, Revision C.01,
 M. J. Frisch, G. W. Trucks, H. B. Schlegel, G. E. Scuseria, 
 M. A. Robb, J. R. Cheeseman, G. Scalmani, V. Barone, 
 G. A. Petersson, H. Nakatsuji, X. Li, M. Caricato, A. V. Marenich, 
 J. Bloino, B. G. Janesko, R. Gomperts, B. Mennucci, H. P. Hratchian, 
 J. V. Ortiz, A. F. Izmaylov, J. L. Sonnenberg, D. Williams-Young, 
 F. Ding, F. Lipparini, F. Egidi, J. Goings, B. Peng, A. Petrone, 
 T. Henderson, D. Ranasinghe, V. G. Zakrzewski, J. Gao, N. Rega, 
 G. Zheng, W. Liang, M. Hada, M. Ehara, K. Toyota, R. Fukuda, 
 J. Hasegawa, M. Ishida, T. Nakajima, Y. Honda, O. Kitao, H. Nakai, 
 T. Vreven, K. Throssell, J. A. Montgomery, Jr., J. E. Peralta, 
 F. Ogliaro, M. J. Bearpark, J. J. Heyd, E. N. Brothers, K. N. Kudin, 
 V. N. Staroverov, T. A. Keith, R. Kobayashi, J. Normand, 
 K. Raghavachari, A. P. Rendell, J. C. Burant, S. S. Iyengar, 
 J. Tomasi, M. Cossi, J. M. Millam, M. Klene, C. Adamo, R. Cammi, 
 J. W. Ochterski, R. L. Martin, K. Morokuma, O. Farkas, 
 J. B. Foresman, and D. J. Fox, Gaussian, Inc., Wallingford CT, 2019.
 
 ******************************************
 Gaussian 16:  AS64L-G16RevC.01  3-Jul-2019
                 9-Jun-2021 
 ******************************************
 %NProcShared=4
 Will use up to    4 processors via shared memory.
 %Chk=FuncsWB97X.chk
 ---------------------------------------------------------
 # td= (nstates=6, root=1) M06/6-31+G* Opt density=current
 ---------------------------------------------------------
 1/18=20,19=15,26=3,38=1/1,3;
 2/9=110,12=2,17=6,18=5,40=1/2;
 3/5=1,6=6,7=11,11=9,25=1,30=1,71=1,74=-54/1,2,3,8;
 4//1;
 5/5=2,38=5/2;
 8/6=1,10=2,107=1,108=6/1;
 9/8=1,15=2,41=6,42=1,70=2/14;
 10/5=4,28=1/2;
 6/7=2,8=2,9=2,10=2,22=-1/1;
 7/12=6,13=5,14=1/1,2,3,16;
 1/18=20,19=15,26=3/3(2);
 2/9=110/2;
 99//99;
 2/9=110/2;
 3/5=1,6=6,7=11,11=9,25=1,30=1,71=1,74=-54/1,2,3,8;
 4/5=5,16=3,69=1/1;
 5/5=2,38=5/2;
 8/6=1,10=2,107=1,108=6/1;
 9/8=1,15=2,41=6,42=1,49=4,70=2/14;
 10/5=4,28=1/2;
 7/12=6,13=5,14=1/1,2,3,16;
 1/18=20,19=15,26=3/3(-8);
 2/9=110/2;
 6/7=2,8=2,9=2,10=2,22=-1/1;
 99/9=10/99;
 --------
 FuncsM06
 --------
 Symbolic Z-matrix:
 Charge =  0 Multiplicity = 1
 C                    -2.15886   0.68918   0.02974 
 C                    -2.1332   -0.71621  -0.0157 
 C                    -0.93572  -1.41751  -0.00819 
 C                     0.2487   -0.67115   0.00319 
 C                     0.25025   0.7522   -0.00266 
 C                    -0.98322   1.4256   -0.0173 
 N                     1.5657   -1.08029   0.00974 
 C                     1.62609   1.16684  -0.00626 
 C                     2.39038   0.03059   0.00688 
 H                     1.87967  -2.03756   0.01447 
 H                     1.9972    2.18233  -0.0192 
 H                     3.46481  -0.08787   0.00753 
 H                    -3.075    -1.264    -0.03434 
 H                    -0.91687  -2.50699  -0.02386 
 H                    -3.12254   1.20382   0.09559 
 H                    -1.01374   2.5151   -0.04664 
 

 GradGradGradGradGradGradGradGradGradGradGradGradGradGradGradGradGradGrad
 Berny optimization.
 Initialization pass.
                           ----------------------------
                           !    Initial Parameters    !
                           ! (Angstroms and Degrees)  !
 --------------------------                            --------------------------
 ! Name  Definition              Value          Derivative Info.                !
 --------------------------------------------------------------------------------
 ! R1    R(1,2)                  1.4064         estimate D2E/DX2                !
 ! R2    R(1,6)                  1.388          estimate D2E/DX2                !
 ! R3    R(1,15)                 1.0945         estimate D2E/DX2                !
 ! R4    R(2,3)                  1.3877         estimate D2E/DX2                !
 ! R5    R(2,13)                 1.0897         estimate D2E/DX2                !
 ! R6    R(3,4)                  1.4            estimate D2E/DX2                !
 ! R7    R(3,14)                 1.0898         estimate D2E/DX2                !
 ! R8    R(4,5)                  1.4234         estimate D2E/DX2                !
 ! R9    R(4,7)                  1.3791         estimate D2E/DX2                !
 ! R10   R(5,6)                  1.4054         estimate D2E/DX2                !
 ! R11   R(5,8)                  1.437          estimate D2E/DX2                !
 ! R12   R(6,16)                 1.0903         estimate D2E/DX2                !
 ! R13   R(7,9)                  1.3835         estimate D2E/DX2                !
 ! R14   R(7,10)                 1.0075         estimate D2E/DX2                !
 ! R15   R(8,9)                  1.3694         estimate D2E/DX2                !
 ! R16   R(8,11)                 1.0813         estimate D2E/DX2                !
 ! R17   R(9,12)                 1.0809         estimate D2E/DX2                !
 ! A1    A(2,1,6)              120.9061         estimate D2E/DX2                !
 ! A2    A(2,1,15)             119.2028         estimate D2E/DX2                !
 ! A3    A(6,1,15)             119.8895         estimate D2E/DX2                !
 ! A4    A(1,2,3)              121.3707         estimate D2E/DX2                !
 ! A5    A(1,2,13)             119.153          estimate D2E/DX2                !
 ! A6    A(3,2,13)             119.4616         estimate D2E/DX2                !
 ! A7    A(2,3,4)              117.4292         estimate D2E/DX2                !
 ! A8    A(2,3,14)             121.3371         estimate D2E/DX2                !
 ! A9    A(4,3,14)             121.2289         estimate D2E/DX2                !
 ! A10   A(3,4,5)              122.2756         estimate D2E/DX2                !
 ! A11   A(3,4,7)              130.5258         estimate D2E/DX2                !
 ! A12   A(5,4,7)              107.1964         estimate D2E/DX2                !
 ! A13   A(4,5,6)              118.5703         estimate D2E/DX2                !
 ! A14   A(4,5,8)              106.8342         estimate D2E/DX2                !
 ! A15   A(6,5,8)              134.5914         estimate D2E/DX2                !
 ! A16   A(1,6,5)              119.2617         estimate D2E/DX2                !
 ! A17   A(1,6,16)             120.4875         estimate D2E/DX2                !
 ! A18   A(5,6,16)             120.2412         estimate D2E/DX2                !
 ! A19   A(4,7,9)              109.3301         estimate D2E/DX2                !
 ! A20   A(4,7,10)             125.4173         estimate D2E/DX2                !
 ! A21   A(9,7,10)             125.2525         estimate D2E/DX2                !
 ! A22   A(5,8,9)              107.1528         estimate D2E/DX2                !
 ! A23   A(5,8,11)             126.8451         estimate D2E/DX2                !
 ! A24   A(9,8,11)             126.002          estimate D2E/DX2                !
 ! A25   A(7,9,8)              109.4848         estimate D2E/DX2                !
 ! A26   A(7,9,12)             120.2971         estimate D2E/DX2                !
 ! A27   A(8,9,12)             130.2163         estimate D2E/DX2                !
 ! D1    D(6,1,2,3)              4.8678         estimate D2E/DX2                !
 ! D2    D(6,1,2,13)          -176.5353         estimate D2E/DX2                !
 ! D3    D(15,1,2,3)          -175.5899         estimate D2E/DX2                !
 ! D4    D(15,1,2,13)            3.0069         estimate D2E/DX2                !
 ! D5    D(2,1,6,5)             -5.0972         estimate D2E/DX2                !
 ! D6    D(2,1,6,16)           176.0299         estimate D2E/DX2                !
 ! D7    D(15,1,6,5)           175.3637         estimate D2E/DX2                !
 ! D8    D(15,1,6,16)           -3.5093         estimate D2E/DX2                !
 ! D9    D(1,2,3,4)             -1.9941         estimate D2E/DX2                !
 ! D10   D(1,2,3,14)           178.7955         estimate D2E/DX2                !
 ! D11   D(13,2,3,4)           179.4132         estimate D2E/DX2                !
 ! D12   D(13,2,3,14)            0.2029         estimate D2E/DX2                !
 ! D13   D(2,3,4,5)             -0.4651         estimate D2E/DX2                !
 ! D14   D(2,3,4,7)           -179.8522         estimate D2E/DX2                !
 ! D15   D(14,3,4,5)           178.7462         estimate D2E/DX2                !
 ! D16   D(14,3,4,7)            -0.641          estimate D2E/DX2                !
 ! D17   D(3,4,5,6)              0.1482         estimate D2E/DX2                !
 ! D18   D(3,4,5,8)           -179.2217         estimate D2E/DX2                !
 ! D19   D(7,4,5,6)            179.6606         estimate D2E/DX2                !
 ! D20   D(7,4,5,8)              0.2907         estimate D2E/DX2                !
 ! D21   D(3,4,7,9)            179.3989         estimate D2E/DX2                !
 ! D22   D(3,4,7,10)            -0.5167         estimate D2E/DX2                !
 ! D23   D(5,4,7,9)             -0.0587         estimate D2E/DX2                !
 ! D24   D(5,4,7,10)          -179.9743         estimate D2E/DX2                !
 ! D25   D(4,5,6,1)              2.618          estimate D2E/DX2                !
 ! D26   D(4,5,6,16)          -178.5062         estimate D2E/DX2                !
 ! D27   D(8,5,6,1)           -178.2289         estimate D2E/DX2                !
 ! D28   D(8,5,6,16)             0.6469         estimate D2E/DX2                !
 ! D29   D(4,5,8,9)             -0.4171         estimate D2E/DX2                !
 ! D30   D(4,5,8,11)           179.4533         estimate D2E/DX2                !
 ! D31   D(6,5,8,9)           -179.64           estimate D2E/DX2                !
 ! D32   D(6,5,8,11)             0.2304         estimate D2E/DX2                !
 ! D33   D(4,7,9,8)             -0.2113         estimate D2E/DX2                !
 ! D34   D(4,7,9,12)          -179.7792         estimate D2E/DX2                !
 ! D35   D(10,7,9,8)           179.7044         estimate D2E/DX2                !
 ! D36   D(10,7,9,12)            0.1366         estimate D2E/DX2                !
 ! D37   D(5,8,9,7)              0.3888         estimate D2E/DX2                !
 ! D38   D(5,8,9,12)           179.9002         estimate D2E/DX2                !
 ! D39   D(11,8,9,7)          -179.483          estimate D2E/DX2                !
 ! D40   D(11,8,9,12)            0.0284         estimate D2E/DX2                !
 --------------------------------------------------------------------------------
 Trust Radius=3.00D-01 FncErr=1.00D-07 GrdErr=1.00D-06 EigMax=2.50D+02 EigMin=1.00D-04
 Number of steps in this run=     94 maximum allowed number of steps=    100.
 GradGradGradGradGradGradGradGradGradGradGradGradGradGradGradGradGradGrad

                          Input orientation:                          
 ---------------------------------------------------------------------
 Center     Atomic      Atomic             Coordinates (Angstroms)
 Number     Number       Type             X           Y           Z
 ---------------------------------------------------------------------
      1          6           0       -2.158860    0.689180    0.029740
      2          6           0       -2.133200   -0.716210   -0.015700
      3          6           0       -0.935720   -1.417510   -0.008190
      4          6           0        0.248700   -0.671150    0.003190
      5          6           0        0.250250    0.752200   -0.002660
      6          6           0       -0.983220    1.425600   -0.017300
      7          7           0        1.565700   -1.080290    0.009740
      8          6           0        1.626090    1.166840   -0.006260
      9          6           0        2.390380    0.030590    0.006880
     10          1           0        1.879670   -2.037560    0.014470
     11          1           0        1.997200    2.182330   -0.019200
     12          1           0        3.464810   -0.087870    0.007530
     13          1           0       -3.075000   -1.264000   -0.034340
     14          1           0       -0.916870   -2.506990   -0.023860
     15          1           0       -3.122540    1.203820    0.095590
     16          1           0       -1.013740    2.515100   -0.046640
 ---------------------------------------------------------------------
                    Distance matrix (angstroms):
                    1          2          3          4          5
     1  C    0.000000
     2  C    1.406359   0.000000
     3  C    2.436320   1.387745   0.000000
     4  C    2.765420   2.382401   1.400012   0.000000
     5  C    2.410152   2.799506   2.472690   1.423363   0.000000
     6  C    1.388041   2.431009   2.843521   2.431955   1.405393
     7  N    4.123563   3.716862   2.524112   1.379104   2.255789
     8  C    3.815141   4.204548   3.638920   2.296846   1.436967
     9  C    4.596721   4.584866   3.627694   2.253718   2.258532
    10  H    4.872891   4.224926   2.882949   2.127737   3.230799
    11  H    4.416416   5.045964   4.643381   3.346655   2.257738
    12  H    5.677144   5.633211   4.597048   3.268577   3.322532
    13  H    2.158317   1.089683   2.144940   3.376368   3.888876
    14  H    3.429419   2.164814   1.089756   2.174763   3.461927
    15  H    1.094472   2.162798   3.415307   3.858667   3.404310
    16  H    2.156645   3.419870   3.933572   3.427598   2.169659
                    6          7          8          9         10
     6  C    0.000000
     7  N    3.574522   0.000000
     8  C    2.622132   2.247998   0.000000
     9  C    3.650728   1.383532   1.369444   0.000000
    10  H    4.493398   1.007455   3.214485   2.130288   0.000000
    11  H    3.074987   3.291158   1.081254   2.187523   4.221661
    12  H    4.698529   2.142784   2.226068   1.080941   2.512769
    13  H    3.407313   4.644544   5.292449   5.616764   5.014931
    14  H    3.933155   2.863522   4.468107   4.168712   2.835925
    15  H    2.153746   5.215757   4.749866   5.637076   5.961143
    16  H    1.090322   4.425327   2.964479   4.214699   5.394652
                   11         12         13         14         15
    11  H    0.000000
    12  H    2.703406   0.000000
    13  H    6.132262   6.644859   0.000000
    14  H    5.521010   5.005222   2.490514   0.000000
    15  H    5.213674   6.713375   2.471695   4.318490   0.000000
    16  H    3.029397   5.180328   4.304711   5.023076   2.487312
                   16
    16  H    0.000000
 Stoichiometry    C8H7N
 Framework group  C1[X(C8H7N)]
 Deg. of freedom    42
 Full point group                 C1      NOp   1
 Largest Abelian subgroup         C1      NOp   1
 Largest concise Abelian subgroup C1      NOp   1
                         Standard orientation:                         
 ---------------------------------------------------------------------
 Center     Atomic      Atomic             Coordinates (Angstroms)
 Number     Number       Type             X           Y           Z
 ---------------------------------------------------------------------
      1          6           0       -2.158858    0.689183    0.029741
      2          6           0       -2.133200   -0.716207   -0.015699
      3          6           0       -0.935722   -1.417509   -0.008189
      4          6           0        0.248700   -0.671151    0.003191
      5          6           0        0.250252    0.752199   -0.002659
      6          6           0       -0.983217    1.425601   -0.017299
      7          7           0        1.565699   -1.080293    0.009741
      8          6           0        1.626093    1.166837   -0.006259
      9          6           0        2.390381    0.030585    0.006881
     10          1           0        1.879667   -2.037564    0.014471
     11          1           0        1.997205    2.182326   -0.019199
     12          1           0        3.464811   -0.087877    0.007531
     13          1           0       -3.075001   -1.263995   -0.034339
     14          1           0       -0.916873   -2.506989   -0.023859
     15          1           0       -3.122537    1.203825    0.095591
     16          1           0       -1.013735    2.515101   -0.046639
 ---------------------------------------------------------------------
 Rotational constants (GHZ):           3.8861076           1.6317910           1.1494058
 Standard basis: 6-31+G(d) (6D, 7F)
 There are   185 symmetry adapted cartesian basis functions of A   symmetry.
 There are   185 symmetry adapted basis functions of A   symmetry.
   185 basis functions,   316 primitive gaussians,   185 cartesian basis functions
    31 alpha electrons       31 beta electrons
       nuclear repulsion energy       400.0099183022 Hartrees.
 NAtoms=   16 NActive=   16 NUniq=   16 SFac= 1.00D+00 NAtFMM=   60 NAOKFM=F Big=F
 Integral buffers will be    131072 words long.
 Regular integral format.
 Two-electron integral symmetry is turned on.
 One-electron integrals computed using PRISM.
 NBasis=   185 RedAO= T EigKep=  1.37D-06  NBF=   185
 NBsUse=   185 1.00D-06 EigRej= -1.00D+00 NBFU=   185
 ExpMin= 4.38D-02 ExpMax= 4.17D+03 ExpMxC= 6.27D+02 IAcc=3 IRadAn=         5 AccDes= 0.00D+00
 Harris functional with IExCor= 1009 and IRadAn=       5 diagonalized for initial guess.
 HarFok:  IExCor= 1009 AccDes= 0.00D+00 IRadAn=         5 IDoV= 1 UseB2=F ITyADJ=14
 ICtDFT=  3500011 ScaDFX=  1.000000  1.000000  1.000000  1.000000
 FoFCou: FMM=F IPFlag=           0 FMFlag=      100000 FMFlg1=           0
         NFxFlg=           0 DoJE=T BraDBF=F KetDBF=T FulRan=T
         wScrn=  0.000000 ICntrl=       500 IOpCl=  0 I1Cent=   200000004 NGrid=           0
         NMat0=    1 NMatS0=      1 NMatT0=    0 NMatD0=    1 NMtDS0=    0 NMtDT0=    0
 Petite list used in FoFCou.
 Requested convergence on RMS density matrix=1.00D-08 within 128 cycles.
 Requested convergence on MAX density matrix=1.00D-06.
 Requested convergence on             energy=1.00D-06.
 No special actions if energy rises.
 SCF Done:  E(RM06) =  -363.550676085     A.U. after   15 cycles
            NFock= 15  Conv=0.82D-08     -V/T= 2.0115
 DoSCS=F DFT=T ScalE2(SS,OS)=  1.000000  1.000000
 ExpMin= 4.38D-02 ExpMax= 4.17D+03 ExpMxC= 6.27D+02 IAcc=3 IRadAn=         5 AccDes= 0.00D+00
 HarFok:  IExCor=  205 AccDes= 0.00D+00 IRadAn=         5 IDoV=-2 UseB2=F ITyADJ=14
 ICtDFT= 12500011 ScaDFX=  1.000000  1.000000  1.000000  1.000000
 Range of M.O.s used for correlation:    10   185
 NBasis=   185 NAE=    31 NBE=    31 NFC=     9 NFV=     0
 NROrb=    176 NOA=    22 NOB=    22 NVA=   154 NVB=   154

 **** Warning!!: The largest alpha MO coefficient is  0.17598386D+03

 Orbital symmetries:
       Occupied  (A) (A) (A) (A) (A) (A) (A) (A) (A) (A) (A) (A)
                 (A) (A) (A) (A) (A) (A) (A) (A) (A) (A) (A) (A)
                 (A) (A) (A) (A) (A) (A) (A)
       Virtual   (A) (A) (A) (A) (A) (A) (A) (A) (A) (A) (A) (A)
                 (A) (A) (A) (A) (A) (A) (A) (A) (A) (A) (A) (A)
                 (A) (A) (A) (A) (A) (A) (A) (A) (A) (A) (A) (A)
                 (A) (A) (A) (A) (A) (A) (A) (A) (A) (A) (A) (A)
                 (A) (A) (A) (A) (A) (A) (A) (A) (A) (A) (A) (A)
                 (A) (A) (A) (A) (A) (A) (A) (A) (A) (A) (A) (A)
                 (A) (A) (A) (A) (A) (A) (A) (A) (A) (A) (A) (A)
                 (A) (A) (A) (A) (A) (A) (A) (A) (A) (A) (A) (A)
                 (A) (A) (A) (A) (A) (A) (A) (A) (A) (A) (A) (A)
                 (A) (A) (A) (A) (A) (A) (A) (A) (A) (A) (A) (A)
                 (A) (A) (A) (A) (A) (A) (A) (A) (A) (A) (A) (A)
                 (A) (A) (A) (A) (A) (A) (A) (A) (A) (A) (A) (A)
                 (A) (A) (A) (A) (A) (A) (A) (A) (A) (A)
    24 initial guesses have been made.
 Convergence on wavefunction:    0.000001000000000
 Iteration     1 Dimension    24 NMult     0 NNew     24
 CISAX will form    24 AO SS matrices at one time.
 New state      3 was old state      4
 New state      4 was old state      5
 New state      5 was old state      6
 New state      6 was old state      3
 Iteration     2 Dimension    36 NMult    24 NNew     12
 New state      3 was old state      6
 New state      4 was old state      3
 New state      6 was old state      4
 Iteration     3 Dimension    48 NMult    36 NNew     12
 New state      2 was old state      3
 New state      3 was old state      2
 Iteration     4 Dimension    60 NMult    48 NNew     12
 Iteration     5 Dimension    72 NMult    60 NNew     12
 Iteration     6 Dimension    84 NMult    72 NNew     12
 Iteration     7 Dimension    96 NMult    84 NNew     12
 Iteration     8 Dimension   108 NMult    96 NNew     12
 Iteration     9 Dimension   120 NMult   108 NNew     12
 Iteration    10 Dimension   128 NMult   120 NNew      8
 Iteration    11 Dimension   132 NMult   128 NNew      4
 ***********************************************************************
 Excited states from <AA,BB:AA,BB> singles matrix:
 ***********************************************************************
 
 Ground to excited state transition densities written to RWF  633
 Ground to excited state transition electric dipole moments (Au):
       state          X           Y           Z        Dip. S.      Osc.
         1        -0.0030     -0.0021     -0.0885      0.0078      0.0008
         2        -0.5935      0.6201     -0.0193      0.7372      0.0845
         3         0.0935     -0.1115     -0.0822      0.0279      0.0032
         4        -0.5023     -0.1350     -0.0040      0.2705      0.0318
         5         0.2511      0.0492     -0.0284      0.0663      0.0078
         6         0.0900      0.0071      0.0462      0.0103      0.0012
 Ground to excited state transition velocity dipole moments (Au):
       state          X           Y           Z        Dip. S.      Osc.
         1         0.0006     -0.0000      0.0059      0.0000      0.0001
         2         0.0975     -0.1172      0.0043      0.0233      0.0903
         3        -0.0152      0.0214      0.0176      0.0010      0.0039
         4         0.0863      0.0255      0.0011      0.0081      0.0306
         5        -0.0435     -0.0092      0.0065      0.0020      0.0076
         6        -0.0162     -0.0015     -0.0068      0.0003      0.0011
 Ground to excited state transition magnetic dipole moments (Au):
       state          X           Y           Z
         1         0.1121     -0.0393     -0.0029
         2         0.0117     -0.0248      0.1638
         3         0.0058     -0.1680     -0.0223
         4         0.0777     -0.0550     -0.0675
         5         0.1136     -0.1590      0.0295
         6         0.1399      0.1595      0.0131
 Ground to excited state transition velocity quadrupole moments (Au):
       state          XX          YY          ZZ          XY          XZ          YZ
         1        -0.0041     -0.0002     -0.0031      0.0094      0.0380      0.0423
         2         0.2326     -0.1324      0.0210      0.0354      0.0147      0.0047
         3        -0.0452      0.0319     -0.0006     -0.0106      0.1020     -0.0407
         4         0.0566     -0.0960      0.0188     -0.0141      0.0625      0.0700
         5        -0.0453      0.0453     -0.0043      0.0056      0.1635      0.1213
         6        -0.0180      0.0267      0.0005      0.0122     -0.1124      0.0657
 <0|del|b> * <b|rxdel|0> + <0|del|b> * <b|delr+rdel|0>
 Rotatory Strengths (R) in cgs (10**-40 erg-esu-cm/Gauss)
       state          XX          YY          ZZ    R(velocity)    E-M Angle
         1         0.0878      0.0481      0.0960      0.0773       90.00
         2        11.2831      4.4135      3.8486      6.5151       79.19
         3       -13.0272      0.6639     -4.3456     -5.5697      139.46
         4        -6.1879     25.4641      1.7201      6.9988       60.12
         5         6.3689    -20.0594      0.5834     -4.3690      111.73
         6        -1.1145     -6.5439     -2.4924     -3.3836      133.70
 1/2[<0|r|b>*<b|rxdel|0> + (<0|rxdel|b>*<b|r|0>)*]
 Rotatory Strengths (R) in cgs (10**-40 erg-esu-cm/Gauss)
       state          XX          YY          ZZ     R(length)
         1         0.2391     -0.0588     -0.1797      0.0002
         2         4.9110     10.8947      2.2306      6.0121
         3        -0.3853    -13.2402     -1.2949     -4.9734
         4        27.6166     -5.2455     -0.1915      7.3932
         5       -20.1690      5.5380      0.5919     -4.6797
         6        -8.9001     -0.8008     -0.4281     -3.3764
  1/2[<0|del|b>*<b|r|0> + (<0|r|b>*<b|del|0>)*] (Au)
       state          X           Y           Z        Dip. S.   Osc.(frdel)
         1        -0.0000      0.0000     -0.0005      0.0005      0.0003
         2        -0.0579     -0.0727     -0.0001      0.1307      0.0871
         3        -0.0014     -0.0024     -0.0014      0.0053      0.0035
         4        -0.0433     -0.0034     -0.0000      0.0468      0.0312
         5        -0.0109     -0.0005     -0.0002      0.0116      0.0077
         6        -0.0015     -0.0000     -0.0003      0.0018      0.0012

 Excitation energies and oscillator strengths:
 
 Excited State   1:      Singlet-A      4.2213 eV  293.71 nm  f=0.0008  <S**2>=0.000
      31 -> 32         0.70398
 This state for optimization and/or second-order correction.
 Total Energy, E(TD-HF/TD-DFT) =  -363.395544987    
 Copying the excited state density for this state as the 1-particle RhoCI density.
 
 Excited State   2:      Singlet-A      4.6767 eV  265.11 nm  f=0.0845  <S**2>=0.000
      30 -> 32         0.11585
      30 -> 33        -0.11123
      30 -> 38         0.17300
      31 -> 33         0.65588
 
 Excited State   3:      Singlet-A      4.6936 eV  264.15 nm  f=0.0032  <S**2>=0.000
      30 -> 32         0.68750
      31 -> 33        -0.10841
 
 Excited State   4:      Singlet-A      4.7956 eV  258.54 nm  f=0.0318  <S**2>=0.000
      30 -> 33         0.52467
      31 -> 34         0.27917
      31 -> 38        -0.34030
 
 Excited State   5:      Singlet-A      4.8235 eV  257.04 nm  f=0.0078  <S**2>=0.000
      30 -> 33        -0.22765
      31 -> 34         0.64126
      31 -> 38         0.15046
 
 Excited State   6:      Singlet-A      4.8918 eV  253.45 nm  f=0.0012  <S**2>=0.000
      31 -> 35         0.69634
 SavETr:  write IOETrn=   770 NScale= 10 NData=  16 NLR=1 NState=    6 LETran=     118.
          IDoAtm=1111111111111111
          Differentiating once with respect to electric field.
                with respect to dipole field.
          Differentiating once with respect to nuclear coordinates.
          There are     1 degrees of freedom in the 1st order CPHF.  IDoFFX=0 NUNeed=     1.
 LinEq1:  Iter=  0 NonCon=     1 RMS=1.56D-02 Max=2.78D-01 NDo=     1
 AX will form     1 AO Fock derivatives at one time.
 LinEq1:  Iter=  1 NonCon=     1 RMS=8.84D-03 Max=2.23D-01 NDo=     1
 LinEq1:  Iter=  2 NonCon=     1 RMS=5.64D-03 Max=1.06D-01 NDo=     1
 LinEq1:  Iter=  3 NonCon=     1 RMS=2.04D-03 Max=4.86D-02 NDo=     1
 LinEq1:  Iter=  4 NonCon=     1 RMS=1.34D-03 Max=2.82D-02 NDo=     1
 LinEq1:  Iter=  5 NonCon=     1 RMS=6.71D-04 Max=1.54D-02 NDo=     1
 LinEq1:  Iter=  6 NonCon=     1 RMS=4.82D-04 Max=1.12D-02 NDo=     1
 LinEq1:  Iter=  7 NonCon=     1 RMS=1.77D-04 Max=3.68D-03 NDo=     1
 LinEq1:  Iter=  8 NonCon=     1 RMS=9.40D-05 Max=2.34D-03 NDo=     1
 LinEq1:  Iter=  9 NonCon=     1 RMS=4.58D-05 Max=1.12D-03 NDo=     1
 LinEq1:  Iter= 10 NonCon=     1 RMS=1.97D-05 Max=5.15D-04 NDo=     1
 LinEq1:  Iter= 11 NonCon=     1 RMS=1.20D-05 Max=2.94D-04 NDo=     1
 LinEq1:  Iter= 12 NonCon=     1 RMS=4.30D-06 Max=7.89D-05 NDo=     1
 LinEq1:  Iter= 13 NonCon=     1 RMS=2.20D-06 Max=3.36D-05 NDo=     1
 LinEq1:  Iter= 14 NonCon=     1 RMS=9.68D-07 Max=1.37D-05 NDo=     1
 LinEq1:  Iter= 15 NonCon=     1 RMS=2.73D-07 Max=2.78D-06 NDo=     1
 LinEq1:  Iter= 16 NonCon=     1 RMS=1.48D-07 Max=3.06D-06 NDo=     1
 LinEq1:  Iter= 17 NonCon=     1 RMS=4.90D-08 Max=4.71D-07 NDo=     1
 LinEq1:  Iter= 18 NonCon=     1 RMS=2.11D-08 Max=3.46D-07 NDo=     1
 LinEq1:  Iter= 19 NonCon=     1 RMS=7.85D-09 Max=1.37D-07 NDo=     1
 LinEq1:  Iter= 20 NonCon=     1 RMS=4.59D-09 Max=7.01D-08 NDo=     1
 LinEq1:  Iter= 21 NonCon=     1 RMS=1.76D-09 Max=2.39D-08 NDo=     1
 LinEq1:  Iter= 22 NonCon=     1 RMS=3.53D-10 Max=3.36D-09 NDo=     1
 LinEq1:  Iter= 23 NonCon=     0 RMS=7.18D-11 Max=9.17D-10 NDo=     1
 Linear equations converged to 1.000D-10 1.000D-09 after    23 iterations.
 End of Minotr F.D. properties file   721 does not exist.
 End of Minotr F.D. properties file   722 does not exist.
 End of Minotr F.D. properties file   788 does not exist.

 **********************************************************************

            Population analysis using the CI Density.

 **********************************************************************

 Orbital symmetries:
       Occupied  (A) (A) (A) (A) (A) (A) (A) (A) (A) (A) (A) (A)
                 (A) (A) (A) (A) (A) (A) (A) (A) (A) (A) (A) (A)
                 (A) (A) (A) (A) (A) (A) (A)
       Virtual   (A) (A) (A) (A) (A) (A) (A) (A) (A) (A) (A) (A)
                 (A) (A) (A) (A) (A) (A) (A) (A) (A) (A) (A) (A)
                 (A) (A) (A) (A) (A) (A) (A) (A) (A) (A) (A) (A)
                 (A) (A) (A) (A) (A) (A) (A) (A) (A) (A) (A) (A)
                 (A) (A) (A) (A) (A) (A) (A) (A) (A) (A) (A) (A)
                 (A) (A) (A) (A) (A) (A) (A) (A) (A) (A) (A) (A)
                 (A) (A) (A) (A) (A) (A) (A) (A) (A) (A) (A) (A)
                 (A) (A) (A) (A) (A) (A) (A) (A) (A) (A) (A) (A)
                 (A) (A) (A) (A) (A) (A) (A) (A) (A) (A) (A) (A)
                 (A) (A) (A) (A) (A) (A) (A) (A) (A) (A) (A) (A)
                 (A) (A) (A) (A) (A) (A) (A) (A) (A) (A) (A) (A)
                 (A) (A) (A) (A) (A) (A) (A) (A) (A) (A) (A) (A)
                 (A) (A) (A) (A) (A) (A) (A) (A) (A) (A)
 The electronic state is 1-A.
 Alpha  occ. eigenvalues --  -14.46012 -10.29566 -10.29403 -10.26357 -10.25960
 Alpha  occ. eigenvalues --  -10.25902 -10.25880 -10.25428 -10.25027  -0.99732
 Alpha  occ. eigenvalues --   -0.85303  -0.79636  -0.74800  -0.72934  -0.63620
 Alpha  occ. eigenvalues --   -0.60642  -0.59272  -0.55083  -0.49258  -0.48187
 Alpha  occ. eigenvalues --   -0.44839  -0.43985  -0.43846  -0.42303  -0.40268
 Alpha  occ. eigenvalues --   -0.36777  -0.34904  -0.34576  -0.29263  -0.23585
 Alpha  occ. eigenvalues --   -0.22000
 Alpha virt. eigenvalues --   -0.03166  -0.01565  -0.01299  -0.00883   0.00314
 Alpha virt. eigenvalues --    0.00573   0.01978   0.02823   0.02927   0.03354
 Alpha virt. eigenvalues --    0.03872   0.04164   0.06266   0.06596   0.06940
 Alpha virt. eigenvalues --    0.07209   0.09398   0.10002   0.10905   0.11716
 Alpha virt. eigenvalues --    0.11979   0.12172   0.13128   0.13447   0.15123
 Alpha virt. eigenvalues --    0.15508   0.15962   0.16636   0.17396   0.17546
 Alpha virt. eigenvalues --    0.17906   0.18893   0.19190   0.19929   0.20637
 Alpha virt. eigenvalues --    0.20865   0.21661   0.21931   0.23241   0.23579
 Alpha virt. eigenvalues --    0.24452   0.24858   0.25635   0.26770   0.27926
 Alpha virt. eigenvalues --    0.29109   0.29546   0.30669   0.32124   0.35150
 Alpha virt. eigenvalues --    0.35319   0.38755   0.42891   0.43520   0.50298
 Alpha virt. eigenvalues --    0.56918   0.61554   0.65305   0.66100   0.68094
 Alpha virt. eigenvalues --    0.69906   0.69995   0.71592   0.72039   0.72584
 Alpha virt. eigenvalues --    0.73296   0.74305   0.75900   0.77163   0.78304
 Alpha virt. eigenvalues --    0.79976   0.83502   0.86627   0.87297   0.88121
 Alpha virt. eigenvalues --    0.90139   0.90596   0.92291   0.95417   0.95683
 Alpha virt. eigenvalues --    0.98062   1.00386   1.02451   1.04139   1.08451
 Alpha virt. eigenvalues --    1.10090   1.10517   1.15517   1.16725   1.18963
 Alpha virt. eigenvalues --    1.21094   1.23817   1.24943   1.28932   1.32168
 Alpha virt. eigenvalues --    1.33622   1.34945   1.39111   1.40424   1.42087
 Alpha virt. eigenvalues --    1.45821   1.46257   1.49250   1.50564   1.52058
 Alpha virt. eigenvalues --    1.56103   1.62019   1.77103   1.82151   1.85290
 Alpha virt. eigenvalues --    1.87301   1.87906   1.88455   1.92956   1.94890
 Alpha virt. eigenvalues --    1.99113   2.04208   2.06929   2.11018   2.14438
 Alpha virt. eigenvalues --    2.15007   2.15723   2.23134   2.23959   2.24401
 Alpha virt. eigenvalues --    2.25407   2.29457   2.35938   2.38849   2.40790
 Alpha virt. eigenvalues --    2.51000   2.53862   2.60836   2.63298   2.64250
 Alpha virt. eigenvalues --    2.66612   2.71134   2.78134   2.80368   2.83303
 Alpha virt. eigenvalues --    2.92497   2.94266   3.05712   3.21974   3.39210
 Alpha virt. eigenvalues --    4.13211   4.21893   4.24909   4.28453   4.32004
 Alpha virt. eigenvalues --    4.36280   4.43969   4.48328   4.74308
          Condensed to atoms (all electrons):
               1          2          3          4          5          6
     1  C   41.004368  12.348543  -0.978849 -31.105638 -13.058558 -37.260940
     2  C   12.348543  42.072374  13.527405 -46.499905  20.354357 -58.097404
     3  C   -0.978849  13.527405  32.964090 -34.526089  17.781184 -27.061178
     4  C  -31.105638 -46.499905 -34.526089 141.430744 -31.290842  91.601369
     5  C  -13.058558  20.354357  17.781184 -31.290842 144.597417 -60.346827
     6  C  -37.260940 -58.097404 -27.061178  91.601369 -60.346827 130.511897
     7  N   -0.767500  -0.947219   0.309487   5.008503  -3.591650   4.469531
     8  C   58.563832  40.274627   2.802052-164.618931-135.049288 -58.303761
     9  C  -22.993442 -16.488136   1.398924  76.958875  64.119521  20.461534
    10  H    0.023080  -0.053740  -0.055227   0.544209  -0.145451  -0.209094
    11  H   -0.053925  -0.001292  -0.051262  -0.132216   0.662320   0.196939
    12  H    0.007170  -0.013849   0.194397   0.360604  -0.654082  -0.100973
    13  H    0.101885   0.031983  -0.032874   0.169799  -0.093056   0.147382
    14  H    0.065717  -0.108955   0.122535   0.719397  -0.546760  -0.003627
    15  H    0.178300   0.179245  -0.076587  -0.077168  -0.015690   0.107424
    16  H   -0.052462  -0.097537  -0.005897   0.187121   0.584331  -0.200353
               7          8          9         10         11         12
     1  C   -0.767500  58.563832 -22.993442   0.023080  -0.053925   0.007170
     2  C   -0.947219  40.274627 -16.488136  -0.053740  -0.001292  -0.013849
     3  C    0.309487   2.802052   1.398924  -0.055227  -0.051262   0.194397
     4  C    5.008503-164.618931  76.958875   0.544209  -0.132216   0.360604
     5  C   -3.591650-135.049288  64.119521  -0.145451   0.662320  -0.654082
     6  C    4.469531 -58.303761  20.461534  -0.209094   0.196939  -0.100973
     7  N   15.374797 -40.045268  26.548785  -0.631047  -0.002434  -0.025715
     8  C  -40.045268 659.004968-351.415112   2.479286  -1.050912   0.423814
     9  C   26.548785-351.415112 203.677177  -1.776906   0.727988   0.110592
    10  H   -0.631047   2.479286  -1.776906   0.520190  -0.000242  -0.002504
    11  H   -0.002434  -1.050912   0.727988  -0.000242   0.457943  -0.000046
    12  H   -0.025715   0.423814   0.110592  -0.002504  -0.000046   0.420203
    13  H    0.003461  -0.043447   0.020223  -0.000014   0.000000  -0.000000
    14  H    0.050202  -0.136145   0.102486   0.002506   0.000001   0.000006
    15  H   -0.001310   0.017740  -0.001238  -0.000000  -0.000001  -0.000000
    16  H    0.006543  -0.184686   0.054639   0.000003   0.001195   0.000000
              13         14         15         16
     1  C    0.101885   0.065717   0.178300  -0.052462
     2  C    0.031983  -0.108955   0.179245  -0.097537
     3  C   -0.032874   0.122535  -0.076587  -0.005897
     4  C    0.169799   0.719397  -0.077168   0.187121
     5  C   -0.093056  -0.546760  -0.015690   0.584331
     6  C    0.147382  -0.003627   0.107424  -0.200353
     7  N    0.003461   0.050202  -0.001310   0.006543
     8  C   -0.043447  -0.136145   0.017740  -0.184686
     9  C    0.020223   0.102486  -0.001238   0.054639
    10  H   -0.000014   0.002506  -0.000000   0.000003
    11  H    0.000000   0.000001  -0.000001   0.001195
    12  H   -0.000000   0.000006  -0.000000   0.000000
    13  H    0.469739  -0.002481  -0.003842  -0.000109
    14  H   -0.002481   0.500294  -0.000145   0.000017
    15  H   -0.003842  -0.000145   0.478641  -0.003312
    16  H   -0.000109   0.000017  -0.003312   0.479315
 Mulliken charges:
               1
     1  C   -0.021582
     2  C   -0.480498
     3  C   -0.312111
     4  C   -2.729833
     5  C    2.693074
     6  C    0.088081
     7  N    1.240835
     8  C   -6.718771
     9  C    4.494089
    10  H    0.304952
    11  H    0.245946
    12  H    0.280384
    13  H    0.231350
    14  H    0.234951
    15  H    0.217943
    16  H    0.231190
 Sum of Mulliken charges =  -0.00000
 Mulliken charges with hydrogens summed into heavy atoms:
               1
     1  C    0.196361
     2  C   -0.249148
     3  C   -0.077160
     4  C   -2.729833
     5  C    2.693074
     6  C    0.319272
     7  N    1.545786
     8  C   -6.472825
     9  C    4.774472
 Electronic spatial extent (au):  <R**2>=           1051.4799
 Charge=              0.0000 electrons
 Dipole moment (field-independent basis, Debye):
    X=             -7.1054    Y=              7.3841    Z=              0.0166  Tot=             10.2475
 Quadrupole moment (field-independent basis, Debye-Ang):
   XX=            -69.4923   YY=            -67.8461   ZZ=            -65.5703
   XY=             20.1788   XZ=             -0.0473   YZ=             -0.0241
 Traceless Quadrupole moment (field-independent basis, Debye-Ang):
   XX=             -1.8561   YY=             -0.2099   ZZ=              2.0659
   XY=             20.1788   XZ=             -0.0473   YZ=             -0.0241
 Octapole moment (field-independent basis, Debye-Ang**2):
  XXX=           -151.9640  YYY=             96.8230  ZZZ=              0.0696  XYY=            -57.9664
  XXY=             69.5789  XXZ=              0.4425  XZZ=            -22.4760  YZZ=             23.9382
  YYZ=             -0.0044  XYZ=             -0.5440
 Hexadecapole moment (field-independent basis, Debye-Ang**3):
 XXXX=          -1550.0987 YYYY=           -783.7991 ZZZZ=           -144.6443 XXXY=            300.4938
 XXXZ=             -1.8750 YYYX=            191.5029 YYYZ=             -0.5393 ZZZX=             -0.0618
 ZZZY=             -0.1293 XXYY=           -400.6677 XXZZ=           -263.9297 YYZZ=           -166.4019
 XXYZ=              1.1200 YYXZ=              0.4361 ZZXY=             52.4189
 N-N= 4.000099183022D+02 E-N=-1.637746737516D+03  KE= 3.593795637257D+02
 Calling FoFJK, ICntrl=  10005127 FMM=F ISym2X=0 I1Cent= 0 IOpClX= 0 NMat=1 NMatS=1 NMatT=0.
 ***** Axes restored to original set *****
 -------------------------------------------------------------------
 Center     Atomic                   Forces (Hartrees/Bohr)
 Number     Number              X              Y              Z
 -------------------------------------------------------------------
      1        6          -0.010909352   -0.008815868   -0.003630249
      2        6          -0.014615266    0.021949606    0.005109261
      3        6           0.032668150   -0.004924619   -0.002908795
      4        6          -0.009310341   -0.000320603    0.001438147
      5        6           0.009457213   -0.005178083   -0.004139430
      6        6           0.004072571    0.008482579    0.005042525
      7        7           0.022734268    0.052128168    0.000027553
      8        6          -0.041224135    0.019318362   -0.000696309
      9        6          -0.012463032   -0.067082843    0.000330797
     10        1           0.010146807   -0.016184325   -0.000023299
     11        1           0.001011150    0.001767915    0.000236853
     12        1           0.002410572   -0.002645702    0.000157206
     13        1           0.001449698    0.000538274    0.000792169
     14        1           0.000674286    0.003910231    0.000138051
     15        1           0.004340046   -0.001782129   -0.003033264
     16        1          -0.000442637   -0.001160966    0.001158784
 -------------------------------------------------------------------
 Cartesian Forces:  Max     0.067082843 RMS     0.016307717

 GradGradGradGradGradGradGradGradGradGradGradGradGradGradGradGradGradGrad
 Berny optimization.
 FormGI is forming the generalized inverse of G from B-inverse, IUseBI=4.
 Internal  Forces:  Max     0.050734397 RMS     0.008447292
 Search for a local minimum.
 Step number   1 out of a maximum of   94
 All quantities printed in internal units (Hartrees-Bohrs-Radians)
 Mixed Optimization -- RFO/linear search
 Second derivative matrix not updated -- first step.
 ITU=  0
     Eigenvalues ---    0.01796   0.01876   0.01936   0.01957   0.02014
     Eigenvalues ---    0.02077   0.02091   0.02104   0.02135   0.02150
     Eigenvalues ---    0.02171   0.02192   0.02277   0.15995   0.15997
     Eigenvalues ---    0.15999   0.15999   0.16000   0.16000   0.16000
     Eigenvalues ---    0.21967   0.22184   0.22640   0.24007   0.24641
     Eigenvalues ---    0.34301   0.34775   0.34841   0.34849   0.35843
     Eigenvalues ---    0.35881   0.36568   0.37979   0.41971   0.43107
     Eigenvalues ---    0.45016   0.46141   0.46401   0.46720   0.46776
     Eigenvalues ---    0.47290   0.50149
 RFO step:  Lambda=-1.36513566D-02 EMin= 1.79641872D-02
 Linear search not attempted -- first point.
 Iteration  1 RMS(Cart)=  0.03087506 RMS(Int)=  0.00036997
 Iteration  2 RMS(Cart)=  0.00043090 RMS(Int)=  0.00019501
 Iteration  3 RMS(Cart)=  0.00000015 RMS(Int)=  0.00019501
 Variable       Old X    -DE/DX   Delta X   Delta X   Delta X     New X
                                 (Linear)    (Quad)   (Total)
    R1        2.65763  -0.01017   0.00000  -0.02091  -0.02102   2.63662
    R2        2.62302   0.00198   0.00000   0.00519   0.00508   2.62809
    R3        2.06825  -0.00484   0.00000  -0.01357  -0.01357   2.05468
    R4        2.62246   0.02138   0.00000   0.04359   0.04359   2.66605
    R5        2.05920  -0.00154   0.00000  -0.00425  -0.00425   2.05495
    R6        2.64564  -0.01941   0.00000  -0.04252  -0.04240   2.60324
    R7        2.05934  -0.00390   0.00000  -0.01078  -0.01078   2.04856
    R8        2.68977  -0.00552   0.00000  -0.01388  -0.01377   2.67600
    R9        2.60613   0.00508   0.00000   0.00746   0.00747   2.61360
   R10        2.65581   0.00200   0.00000   0.00434   0.00433   2.66014
   R11        2.71547  -0.02218   0.00000  -0.05035  -0.05036   2.66511
   R12        2.06041  -0.00117   0.00000  -0.00325  -0.00325   2.05716
   R13        2.61450  -0.05073   0.00000  -0.10360  -0.10359   2.51091
   R14        1.90381   0.01855   0.00000   0.03883   0.03883   1.94264
   R15        2.58787   0.03420   0.00000   0.06659   0.06658   2.65445
   R16        2.04327   0.00200   0.00000   0.00537   0.00537   2.04864
   R17        2.04268   0.00269   0.00000   0.00722   0.00722   2.04990
    A1        2.11021  -0.00478   0.00000  -0.01467  -0.01522   2.09498
    A2        2.08048   0.00290   0.00000   0.01033   0.01055   2.09103
    A3        2.09247   0.00188   0.00000   0.00445   0.00467   2.09713
    A4        2.11832   0.00295   0.00000   0.01610   0.01560   2.13392
    A5        2.07961  -0.00124   0.00000  -0.00644  -0.00638   2.07323
    A6        2.08500  -0.00169   0.00000  -0.00903  -0.00897   2.07603
    A7        2.04953   0.00026   0.00000  -0.00037  -0.00053   2.04900
    A8        2.11773   0.00062   0.00000   0.00454   0.00460   2.12233
    A9        2.11584  -0.00087   0.00000  -0.00406  -0.00400   2.11185
   A10        2.13411  -0.00424   0.00000  -0.01705  -0.01709   2.11702
   A11        2.27810  -0.00217   0.00000  -0.00408  -0.00406   2.27405
   A12        1.87093   0.00641   0.00000   0.02113   0.02115   1.89208
   A13        2.06944   0.00946   0.00000   0.03235   0.03216   2.10160
   A14        1.86461  -0.00697   0.00000  -0.02117  -0.02115   1.84346
   A15        2.34906  -0.00248   0.00000  -0.01101  -0.01094   2.33812
   A16        2.08151  -0.00347   0.00000  -0.01126  -0.01185   2.06966
   A17        2.10290   0.00124   0.00000   0.00304   0.00306   2.10596
   A18        2.09860   0.00225   0.00000   0.00883   0.00885   2.10746
   A19        1.90817   0.00129   0.00000  -0.00355  -0.00354   1.90463
   A20        2.18895   0.00372   0.00000   0.02690   0.02689   2.21584
   A21        2.18607  -0.00501   0.00000  -0.02334  -0.02335   2.16272
   A22        1.87017  -0.00118   0.00000   0.00274   0.00269   1.87286
   A23        2.21386   0.00096   0.00000   0.00075   0.00077   2.21463
   A24        2.19915   0.00022   0.00000  -0.00348  -0.00346   2.19569
   A25        1.91087   0.00045   0.00000   0.00088   0.00086   1.91173
   A26        2.09958  -0.00266   0.00000  -0.01446  -0.01445   2.08513
   A27        2.27270   0.00221   0.00000   0.01361   0.01362   2.28632
    D1        0.08496  -0.00228   0.00000  -0.06548  -0.06566   0.01930
    D2       -3.08112  -0.00127   0.00000  -0.03516  -0.03501  -3.11613
    D3       -3.06462  -0.00161   0.00000  -0.04838  -0.04877  -3.11339
    D4        0.05248  -0.00060   0.00000  -0.01806  -0.01812   0.03436
    D5       -0.08896   0.00268   0.00000   0.07239   0.07182  -0.01714
    D6        3.07230   0.00143   0.00000   0.03711   0.03667   3.10897
    D7        3.06067   0.00199   0.00000   0.05514   0.05485   3.11552
    D8       -0.06125   0.00075   0.00000   0.01986   0.01970  -0.04155
    D9       -0.03480   0.00091   0.00000   0.02893   0.02923  -0.00557
   D10        3.12057   0.00060   0.00000   0.01994   0.02029   3.14086
   D11        3.13135  -0.00010   0.00000  -0.00152  -0.00150   3.12985
   D12        0.00354  -0.00042   0.00000  -0.01052  -0.01045  -0.00691
   D13       -0.00812  -0.00016   0.00000  -0.00194  -0.00154  -0.00966
   D14       -3.13901  -0.00017   0.00000  -0.00244  -0.00222  -3.14124
   D15        3.11971   0.00016   0.00000   0.00712   0.00742   3.12713
   D16       -0.01119   0.00016   0.00000   0.00662   0.00674  -0.00445
   D17        0.00259   0.00027   0.00000   0.00867   0.00883   0.01142
   D18       -3.12801  -0.00008   0.00000  -0.00392  -0.00408  -3.13209
   D19        3.13567   0.00024   0.00000   0.00899   0.00929  -3.13822
   D20        0.00507  -0.00011   0.00000  -0.00360  -0.00362   0.00145
   D21        3.13110   0.00007   0.00000   0.00295   0.00313   3.13423
   D22       -0.00902   0.00004   0.00000   0.00173   0.00185  -0.00716
   D23       -0.00102   0.00012   0.00000   0.00267   0.00268   0.00166
   D24       -3.14114   0.00008   0.00000   0.00145   0.00141  -3.13974
   D25        0.04569  -0.00138   0.00000  -0.04290  -0.04337   0.00232
   D26       -3.11552  -0.00016   0.00000  -0.00778  -0.00826  -3.12378
   D27       -3.11068  -0.00091   0.00000  -0.02591  -0.02603  -3.13671
   D28        0.01129   0.00032   0.00000   0.00921   0.00909   0.02038
   D29       -0.00728   0.00017   0.00000   0.00345   0.00343  -0.00385
   D30        3.13205   0.00034   0.00000   0.00883   0.00881   3.14086
   D31       -3.13531  -0.00036   0.00000  -0.01247  -0.01243   3.13545
   D32        0.00402  -0.00020   0.00000  -0.00709  -0.00705  -0.00303
   D33       -0.00369  -0.00001   0.00000  -0.00050  -0.00047  -0.00416
   D34       -3.13774  -0.00014   0.00000  -0.00443  -0.00440   3.14105
   D35        3.13643   0.00004   0.00000   0.00077   0.00081   3.13724
   D36        0.00238  -0.00010   0.00000  -0.00317  -0.00312  -0.00073
   D37        0.00679  -0.00003   0.00000  -0.00169  -0.00174   0.00505
   D38        3.13985   0.00009   0.00000   0.00259   0.00262  -3.14072
   D39       -3.13257  -0.00020   0.00000  -0.00702  -0.00705  -3.13962
   D40        0.00050  -0.00008   0.00000  -0.00274  -0.00269  -0.00220
         Item               Value     Threshold  Converged?
 Maximum Force            0.050734     0.000450     NO 
 RMS     Force            0.008447     0.000300     NO 
 Maximum Displacement     0.104702     0.001800     NO 
 RMS     Displacement     0.030880     0.001200     NO 
 Predicted change in Energy=-7.182446D-03
 GradGradGradGradGradGradGradGradGradGradGradGradGradGradGradGradGradGrad

                          Input orientation:                          
 ---------------------------------------------------------------------
 Center     Atomic      Atomic             Coordinates (Angstroms)
 Number     Number       Type             X           Y           Z
 ---------------------------------------------------------------------
      1          6           0       -2.171910    0.700866    0.012732
      2          6           0       -2.121945   -0.693411   -0.000853
      3          6           0       -0.902774   -1.403353   -0.002609
      4          6           0        0.260501   -0.665470    0.002910
      5          6           0        0.233563    0.750343   -0.001625
      6          6           0       -0.993749    1.439745    0.001903
      7          7           0        1.580857   -1.077185    0.002450
      8          6           0        1.584302    1.155894   -0.006736
      9          6           0        2.370193   -0.008340    0.000010
     10          1           0        1.926373   -2.045382    0.003583
     11          1           0        1.958218    2.173452   -0.011733
     12          1           0        3.446921   -0.140099   -0.000187
     13          1           0       -3.055570   -1.250741   -0.016278
     14          1           0       -0.876510   -2.487038   -0.012542
     15          1           0       -3.133836    1.206977    0.040184
     16          1           0       -1.020984    2.527821   -0.018218
 ---------------------------------------------------------------------
                    Distance matrix (angstroms):
                    1          2          3          4          5
     1  C    0.000000
     2  C    1.395238   0.000000
     3  C    2.457371   1.410814   0.000000
     4  C    2.789909   2.382613   1.377574   0.000000
     5  C    2.406024   2.762760   2.435091   1.416077   0.000000
     6  C    1.390727   2.413128   2.844556   2.450525   1.407686
     7  N    4.152689   3.722638   2.504963   1.383058   2.270479
     8  C    3.783723   4.142007   3.568656   2.251646   1.410317
     9  C    4.597155   4.544076   3.557862   2.209667   2.267332
    10  H    4.933344   4.268105   2.901089   2.163166   3.268289
    11  H    4.384868   4.986657   4.580272   3.307859   2.236018
    12  H    5.681430   5.596286   4.529422   3.229442   3.334450
    13  H    2.142537   1.087433   2.158242   3.367379   3.850058
    14  H    3.441137   2.183653   1.084049   2.147357   3.422428
    15  H    1.087292   2.153388   3.434135   3.876722   3.398475
    16  H    2.159481   3.404226   3.932982   3.440895   2.175682
                    6          7          8          9         10
     6  C    0.000000
     7  N    3.600490   0.000000
     8  C    2.593645   2.233100   0.000000
     9  C    3.662384   1.328716   1.404675   0.000000
    10  H    4.546782   1.028002   3.219516   2.084833   0.000000
    11  H    3.041812   3.272497   1.084095   2.220378   4.218982
    12  H    4.713328   2.088140   2.269138   1.084759   2.437659
    13  H    3.389712   4.639712   5.226891   5.566213   5.044959
    14  H    3.928559   2.833119   4.396200   4.084750   2.837512
    15  H    2.153048   5.239002   4.718647   5.636749   6.015388
    16  H    1.088603   4.445905   2.944458   4.234682   5.440733
                   11         12         13         14         15
    11  H    0.000000
    12  H    2.751161   0.000000
    13  H    6.071506   6.596679   0.000000
    14  H    5.454892   4.919383   2.505344   0.000000
    15  H    5.183221   6.717336   2.459611   4.329439   0.000000
    16  H    3.000210   5.203873   4.291512   5.016943   2.492425
                   16
    16  H    0.000000
 Stoichiometry    C8H7N
 Framework group  C1[X(C8H7N)]
 Deg. of freedom    42
 Full point group                 C1      NOp   1
 Largest Abelian subgroup         C1      NOp   1
 Largest concise Abelian subgroup C1      NOp   1
                         Standard orientation:                         
 ---------------------------------------------------------------------
 Center     Atomic      Atomic             Coordinates (Angstroms)
 Number     Number       Type             X           Y           Z
 ---------------------------------------------------------------------
      1          6           0       -2.189336    0.634941    0.008774
      2          6           0       -2.098262   -0.757260   -0.004223
      3          6           0       -0.858687   -1.430946   -0.003967
      4          6           0        0.282317   -0.659082    0.002947
      5          6           0        0.213651    0.755320   -0.002150
      6          6           0       -1.033459    1.408234   -0.000638
      7          7           0        1.614237   -1.031686    0.004534
      8          6           0        1.551851    1.200520   -0.005473
      9          6           0        2.371717    0.059967    0.002831
     10          1           0        1.988149   -1.989274    0.006522
     11          1           0        1.895608    2.228659   -0.010310
     12          1           0        3.451861   -0.039986    0.004227
     13          1           0       -3.015025   -1.341882   -0.020781
     14          1           0       -0.800467   -2.513388   -0.013462
     15          1           0       -3.165805    1.112478    0.034659
     16          1           0       -1.092735    2.495028   -0.021200
 ---------------------------------------------------------------------
 Rotational constants (GHZ):           3.9148752           1.6454743           1.1585539
 Standard basis: 6-31+G(d) (6D, 7F)
 There are   185 symmetry adapted cartesian basis functions of A   symmetry.
 There are   185 symmetry adapted basis functions of A   symmetry.
   185 basis functions,   316 primitive gaussians,   185 cartesian basis functions
    31 alpha electrons       31 beta electrons
       nuclear repulsion energy       401.5282974602 Hartrees.
 NAtoms=   16 NActive=   16 NUniq=   16 SFac= 1.00D+00 NAtFMM=   60 NAOKFM=F Big=F
 Integral buffers will be    131072 words long.
 Regular integral format.
 Two-electron integral symmetry is turned on.
 One-electron integrals computed using PRISM.
 NBasis=   185 RedAO= T EigKep=  1.18D-06  NBF=   185
 NBsUse=   185 1.00D-06 EigRej= -1.00D+00 NBFU=   185
 Initial guess from the checkpoint file:  "FuncsWB97X.chk"
 B after Tr=     0.000000   -0.000000   -0.000000
         Rot=    0.999897   -0.000039    0.000008   -0.014379 Ang=  -1.65 deg.
 ExpMin= 4.38D-02 ExpMax= 4.17D+03 ExpMxC= 6.27D+02 IAcc=3 IRadAn=         5 AccDes= 0.00D+00
 Harris functional with IExCor= 1009 and IRadAn=       5 diagonalized for initial guess.
 HarFok:  IExCor= 1009 AccDes= 0.00D+00 IRadAn=         5 IDoV= 1 UseB2=F ITyADJ=14
 ICtDFT=  3500011 ScaDFX=  1.000000  1.000000  1.000000  1.000000
 FoFCou: FMM=F IPFlag=           0 FMFlag=      100000 FMFlg1=           0
         NFxFlg=           0 DoJE=T BraDBF=F KetDBF=T FulRan=T
         wScrn=  0.000000 ICntrl=       500 IOpCl=  0 I1Cent=   200000004 NGrid=           0
         NMat0=    1 NMatS0=      1 NMatT0=    0 NMatD0=    1 NMtDS0=    0 NMtDT0=    0
 Petite list used in FoFCou.
 Requested convergence on RMS density matrix=1.00D-08 within 128 cycles.
 Requested convergence on MAX density matrix=1.00D-06.
 Requested convergence on             energy=1.00D-06.
 No special actions if energy rises.
 SCF Done:  E(RM06) =  -363.545766921     A.U. after   13 cycles
            NFock= 13  Conv=0.94D-08     -V/T= 2.0111
 DoSCS=F DFT=T ScalE2(SS,OS)=  1.000000  1.000000
 ExpMin= 4.38D-02 ExpMax= 4.17D+03 ExpMxC= 6.27D+02 IAcc=3 IRadAn=         5 AccDes= 0.00D+00
 HarFok:  IExCor=  205 AccDes= 0.00D+00 IRadAn=         5 IDoV=-2 UseB2=F ITyADJ=14
 ICtDFT= 12500011 ScaDFX=  1.000000  1.000000  1.000000  1.000000
 Range of M.O.s used for correlation:    10   185
 NBasis=   185 NAE=    31 NBE=    31 NFC=     9 NFV=     0
 NROrb=    176 NOA=    22 NOB=    22 NVA=   154 NVB=   154

 **** Warning!!: The largest alpha MO coefficient is  0.19433103D+03

 Orbital symmetries:
       Occupied  (A) (A) (A) (A) (A) (A) (A) (A) (A) (A) (A) (A)
                 (A) (A) (A) (A) (A) (A) (A) (A) (A) (A) (A) (A)
                 (A) (A) (A) (A) (A) (A) (A)
       Virtual   (A) (A) (A) (A) (A) (A) (A) (A) (A) (A) (A) (A)
                 (A) (A) (A) (A) (A) (A) (A) (A) (A) (A) (A) (A)
                 (A) (A) (A) (A) (A) (A) (A) (A) (A) (A) (A) (A)
                 (A) (A) (A) (A) (A) (A) (A) (A) (A) (A) (A) (A)
                 (A) (A) (A) (A) (A) (A) (A) (A) (A) (A) (A) (A)
                 (A) (A) (A) (A) (A) (A) (A) (A) (A) (A) (A) (A)
                 (A) (A) (A) (A) (A) (A) (A) (A) (A) (A) (A) (A)
                 (A) (A) (A) (A) (A) (A) (A) (A) (A) (A) (A) (A)
                 (A) (A) (A) (A) (A) (A) (A) (A) (A) (A) (A) (A)
                 (A) (A) (A) (A) (A) (A) (A) (A) (A) (A) (A) (A)
                 (A) (A) (A) (A) (A) (A) (A) (A) (A) (A) (A) (A)
                 (A) (A) (A) (A) (A) (A) (A) (A) (A) (A) (A) (A)
                 (A) (A) (A) (A) (A) (A) (A) (A) (A) (A)
 Generating guess from densities on rwf.
 Convergence on wavefunction:    0.000001000000000
 Iteration     1 Dimension    12 NMult     0 NNew     12
 CISAX will form    12 AO SS matrices at one time.
 New state      3 was old state      4
 New state      4 was old state      6
 New state      6 was old state      3
 Iteration     2 Dimension    24 NMult    12 NNew     12
 New state      3 was old state      4
 New state      4 was old state      5
 New state      5 was old state      3
 Iteration     3 Dimension    36 NMult    24 NNew     12
 New state      3 was old state      4
 New state      4 was old state      3
 New state      5 was old state      6
 New state      6 was old state      5
 Iteration     4 Dimension    48 NMult    36 NNew     12
 Iteration     5 Dimension    60 NMult    48 NNew     12
 Iteration     6 Dimension    72 NMult    60 NNew     12
 Iteration     7 Dimension    84 NMult    72 NNew     12
 Iteration     8 Dimension    96 NMult    84 NNew     12
 Iteration     9 Dimension   108 NMult    96 NNew     12
 Iteration    10 Dimension   118 NMult   108 NNew     10
 Iteration    11 Dimension   126 NMult   118 NNew      8
 ***********************************************************************
 Excited states from <AA,BB:AA,BB> singles matrix:
 ***********************************************************************
 
 Ground to excited state transition densities written to RWF  633
 Ground to excited state transition electric dipole moments (Au):
       state          X           Y           Z        Dip. S.      Osc.
         1        -0.0022      0.0006     -0.0898      0.0081      0.0008
         2        -0.9089      0.5895      0.0029      1.1737      0.1276
         3         0.0222     -0.0141     -0.0292      0.0015      0.0002
         4         0.0012     -0.0071      0.0604      0.0037      0.0004
         5        -0.0017     -0.0080     -0.0636      0.0041      0.0005
         6        -0.0520     -0.1835      0.0030      0.0364      0.0043
 Ground to excited state transition velocity dipole moments (Au):
       state          X           Y           Z        Dip. S.      Osc.
         1         0.0002     -0.0004      0.0061      0.0000      0.0002
         2         0.1431     -0.1074     -0.0003      0.0320      0.1308
         3        -0.0038      0.0026      0.0071      0.0001      0.0003
         4        -0.0002      0.0015     -0.0075      0.0001      0.0002
         5         0.0000      0.0016      0.0157      0.0002      0.0009
         6         0.0077      0.0353     -0.0009      0.0013      0.0049
 Ground to excited state transition magnetic dipole moments (Au):
       state          X           Y           Z
         1         0.1241     -0.0514      0.0017
         2         0.0024     -0.0080      0.1795
         3         0.1359     -0.1605     -0.0003
         4         0.1087      0.1622      0.0003
         5        -0.0124     -0.1485      0.0039
         6        -0.0007      0.0056      0.0896
 Ground to excited state transition velocity quadrupole moments (Au):
       state          XX          YY          ZZ          XY          XZ          YZ
         1         0.0002      0.0000     -0.0017      0.0024      0.0390      0.0428
         2         0.2224     -0.1608      0.0258      0.0602      0.0059      0.0034
         3        -0.0118      0.0027      0.0019     -0.0022      0.1663      0.1213
         4        -0.0022      0.0058      0.0010      0.0003     -0.1195      0.0307
         5         0.0003     -0.0005      0.0012     -0.0002      0.0835     -0.0491
         6        -0.0372     -0.0401      0.0109      0.0210     -0.0039      0.0007
 <0|del|b> * <b|rxdel|0> + <0|del|b> * <b|delr+rdel|0>
 Rotatory Strengths (R) in cgs (10**-40 erg-esu-cm/Gauss)
       state          XX          YY          ZZ    R(velocity)    E-M Angle
         1         0.1419      0.0891      0.0597      0.0969       90.00
         2         3.1067      1.7342      0.1978      1.6796       87.93
         3        -1.7968     -2.0064     -0.0847     -1.2960      121.21
         4         0.8378     -0.0552      0.0983      0.2937       81.76
         5        -0.6387      0.1255     -0.2090     -0.2407       94.39
         6         0.4717     -0.1217      0.1047      0.1516       87.98
 1/2[<0|r|b>*<b|rxdel|0> + (<0|rxdel|b>*<b|r|0>)*]
 Rotatory Strengths (R) in cgs (10**-40 erg-esu-cm/Gauss)
       state          XX          YY          ZZ     R(length)
         1         0.1954      0.0203      0.1075      0.1077
         2         1.5527      3.3466     -0.3722      1.5090
         3        -2.1355     -1.5964     -0.0064     -1.2461
         4        -0.0902      0.8137     -0.0148      0.2363
         5        -0.0151     -0.8377      0.1746     -0.2261
         6        -0.0264      0.7327     -0.1920      0.1714
  1/2[<0|del|b>*<b|r|0> + (<0|r|b>*<b|del|0>)*] (Au)
       state          X           Y           Z        Dip. S.   Osc.(frdel)
         1        -0.0000     -0.0000     -0.0005      0.0005      0.0004
         2        -0.1300     -0.0633     -0.0000      0.1933      0.1289
         3        -0.0001     -0.0000     -0.0002      0.0003      0.0002
         4        -0.0000     -0.0000     -0.0005      0.0005      0.0003
         5        -0.0000     -0.0000     -0.0010      0.0010      0.0007
         6        -0.0004     -0.0065     -0.0000      0.0069      0.0046

 Excitation energies and oscillator strengths:
 
 Excited State   1:      Singlet-A      3.8694 eV  320.42 nm  f=0.0008  <S**2>=0.000
      31 -> 32         0.70437
 This state for optimization and/or second-order correction.
 Total Energy, E(TD-HF/TD-DFT) =  -363.403569760    
 Copying the excited state density for this state as the 1-particle RhoCI density.
 
 Excited State   2:      Singlet-A      4.4372 eV  279.42 nm  f=0.1276  <S**2>=0.000
      30 -> 38         0.13568
      31 -> 33         0.67963
 
 Excited State   3:      Singlet-A      4.5698 eV  271.31 nm  f=0.0002  <S**2>=0.000
      31 -> 34         0.70234
 
 Excited State   4:      Singlet-A      4.6550 eV  266.35 nm  f=0.0004  <S**2>=0.000
      31 -> 35         0.70088
 
 Excited State   5:      Singlet-A      4.8025 eV  258.17 nm  f=0.0005  <S**2>=0.000
      30 -> 32         0.70045
 
 Excited State   6:      Singlet-A      4.8368 eV  256.34 nm  f=0.0043  <S**2>=0.000
      30 -> 33         0.52952
      31 -> 38        -0.44284
 SavETr:  write IOETrn=   770 NScale= 10 NData=  16 NLR=1 NState=    6 LETran=     118.
          IDoAtm=1111111111111111
          Differentiating once with respect to electric field.
                with respect to dipole field.
          Differentiating once with respect to nuclear coordinates.
          There are     1 degrees of freedom in the 1st order CPHF.  IDoFFX=0 NUNeed=     1.
 LinEq1:  Iter=  0 NonCon=     1 RMS=1.63D-02 Max=3.16D-01 NDo=     1
 AX will form     1 AO Fock derivatives at one time.
 LinEq1:  Iter=  1 NonCon=     1 RMS=9.67D-03 Max=2.39D-01 NDo=     1
 LinEq1:  Iter=  2 NonCon=     1 RMS=6.14D-03 Max=1.24D-01 NDo=     1
 LinEq1:  Iter=  3 NonCon=     1 RMS=2.37D-03 Max=5.47D-02 NDo=     1
 LinEq1:  Iter=  4 NonCon=     1 RMS=1.62D-03 Max=3.37D-02 NDo=     1
 LinEq1:  Iter=  5 NonCon=     1 RMS=8.06D-04 Max=1.63D-02 NDo=     1
 LinEq1:  Iter=  6 NonCon=     1 RMS=5.86D-04 Max=1.52D-02 NDo=     1
 LinEq1:  Iter=  7 NonCon=     1 RMS=1.89D-04 Max=3.70D-03 NDo=     1
 LinEq1:  Iter=  8 NonCon=     1 RMS=1.17D-04 Max=3.27D-03 NDo=     1
 LinEq1:  Iter=  9 NonCon=     1 RMS=4.81D-05 Max=8.10D-04 NDo=     1
 LinEq1:  Iter= 10 NonCon=     1 RMS=2.76D-05 Max=9.27D-04 NDo=     1
 LinEq1:  Iter= 11 NonCon=     1 RMS=1.47D-05 Max=2.29D-04 NDo=     1
 LinEq1:  Iter= 12 NonCon=     1 RMS=5.52D-06 Max=9.41D-05 NDo=     1
 LinEq1:  Iter= 13 NonCon=     1 RMS=3.53D-06 Max=5.17D-05 NDo=     1
 LinEq1:  Iter= 14 NonCon=     1 RMS=1.07D-06 Max=1.58D-05 NDo=     1
 LinEq1:  Iter= 15 NonCon=     1 RMS=4.08D-07 Max=5.69D-06 NDo=     1
 LinEq1:  Iter= 16 NonCon=     1 RMS=1.98D-07 Max=3.14D-06 NDo=     1
 LinEq1:  Iter= 17 NonCon=     1 RMS=4.35D-08 Max=6.70D-07 NDo=     1
 LinEq1:  Iter= 18 NonCon=     1 RMS=1.27D-08 Max=1.87D-07 NDo=     1
 LinEq1:  Iter= 19 NonCon=     1 RMS=5.64D-09 Max=1.33D-07 NDo=     1
 LinEq1:  Iter= 20 NonCon=     1 RMS=2.79D-09 Max=4.74D-08 NDo=     1
 LinEq1:  Iter= 21 NonCon=     1 RMS=1.37D-09 Max=2.64D-08 NDo=     1
 LinEq1:  Iter= 22 NonCon=     1 RMS=3.35D-10 Max=3.84D-09 NDo=     1
 LinEq1:  Iter= 23 NonCon=     0 RMS=7.32D-11 Max=7.63D-10 NDo=     1
 Linear equations converged to 1.000D-10 1.000D-09 after    23 iterations.
 End of Minotr F.D. properties file   721 does not exist.
 End of Minotr F.D. properties file   722 does not exist.
 End of Minotr F.D. properties file   788 does not exist.
 Calling FoFJK, ICntrl=  10005127 FMM=F ISym2X=0 I1Cent= 0 IOpClX= 0 NMat=1 NMatS=1 NMatT=0.
 ***** Axes restored to original set *****
 -------------------------------------------------------------------
 Center     Atomic                   Forces (Hartrees/Bohr)
 Number     Number              X              Y              Z
 -------------------------------------------------------------------
      1        6           0.002357778    0.000509822    0.000452175
      2        6          -0.001343088    0.000565132    0.000319314
      3        6           0.004822901   -0.000742256   -0.000459088
      4        6          -0.012255479   -0.006849380   -0.000532544
      5        6           0.009855892    0.000464135    0.000126028
      6        6          -0.002216103    0.002170683   -0.000631506
      7        7           0.006325546    0.013730210    0.000225737
      8        6          -0.010437921    0.013729258    0.000187577
      9        6          -0.001646553   -0.018451245   -0.000426133
     10        1           0.002259401   -0.004348878    0.000106929
     11        1           0.001171200   -0.000276455    0.000035947
     12        1           0.001353845    0.001043211    0.000037238
     13        1           0.000379466   -0.001058423    0.000661911
     14        1          -0.001469389   -0.000120825    0.000143031
     15        1           0.000217116    0.000026930   -0.001245076
     16        1           0.000625387   -0.000391919    0.000998461
 -------------------------------------------------------------------
 Cartesian Forces:  Max     0.018451245 RMS     0.005086533

 GradGradGradGradGradGradGradGradGradGradGradGradGradGradGradGradGradGrad
 Berny optimization.
 Using GEDIIS/GDIIS optimizer.
 FormGI is forming the generalized inverse of G from B-inverse, IUseBI=4.
 Internal  Forces:  Max     0.010313885 RMS     0.002099897
 Search for a local minimum.
 Step number   2 out of a maximum of   94
 All quantities printed in internal units (Hartrees-Bohrs-Radians)
 Mixed Optimization -- RFO/linear search
 Update second derivatives using D2CorX and points    1    2
 DE= -8.02D-03 DEPred=-7.18D-03 R= 1.12D+00
 TightC=F SS=  1.41D+00  RLast= 2.28D-01 DXNew= 5.0454D-01 6.8437D-01
 Trust test= 1.12D+00 RLast= 2.28D-01 DXMaxT set to 5.05D-01
 ITU=  1  0
 Use linear search instead of GDIIS.
     Eigenvalues ---    0.01800   0.01878   0.01937   0.01956   0.02013
     Eigenvalues ---    0.02081   0.02094   0.02102   0.02142   0.02156
     Eigenvalues ---    0.02184   0.02204   0.02282   0.15768   0.15998
     Eigenvalues ---    0.15999   0.16000   0.16000   0.16000   0.16227
     Eigenvalues ---    0.21990   0.22194   0.22369   0.24197   0.25273
     Eigenvalues ---    0.34299   0.34746   0.34844   0.34876   0.35533
     Eigenvalues ---    0.35850   0.36377   0.37047   0.40254   0.42096
     Eigenvalues ---    0.43888   0.45133   0.46271   0.46742   0.46912
     Eigenvalues ---    0.47586   0.50142
 RFO step:  Lambda=-1.08884778D-03 EMin= 1.80034879D-02
 Quartic linear search produced a step of  0.14685.
 Iteration  1 RMS(Cart)=  0.01033617 RMS(Int)=  0.00008525
 Iteration  2 RMS(Cart)=  0.00008324 RMS(Int)=  0.00004535
 Iteration  3 RMS(Cart)=  0.00000000 RMS(Int)=  0.00004535
 Variable       Old X    -DE/DX   Delta X   Delta X   Delta X     New X
                                 (Linear)    (Quad)   (Total)
    R1        2.63662   0.00147  -0.00309   0.00515   0.00203   2.63865
    R2        2.62809  -0.00088   0.00075  -0.00258  -0.00185   2.62624
    R3        2.05468  -0.00021  -0.00199   0.00043  -0.00157   2.05312
    R4        2.66605   0.00054   0.00640  -0.00227   0.00412   2.67017
    R5        2.05495   0.00020  -0.00062   0.00102   0.00040   2.05535
    R6        2.60324  -0.00290  -0.00623  -0.00388  -0.01009   2.59315
    R7        2.04856   0.00008  -0.00158   0.00115  -0.00043   2.04812
    R8        2.67600   0.00455  -0.00202   0.01411   0.01216   2.68816
    R9        2.61360   0.00400   0.00110   0.00809   0.00920   2.62280
   R10        2.66014   0.00036   0.00064   0.00079   0.00144   2.66158
   R11        2.66511  -0.00460  -0.00740  -0.00814  -0.01552   2.64960
   R12        2.05716  -0.00042  -0.00048  -0.00112  -0.00159   2.05557
   R13        2.51091  -0.00812  -0.01521  -0.01183  -0.02708   2.48383
   R14        1.94264   0.00486   0.00570   0.00896   0.01466   1.95730
   R15        2.65445   0.01031   0.00978   0.01816   0.02789   2.68234
   R16        2.04864   0.00014   0.00079   0.00000   0.00079   2.04943
   R17        2.04990   0.00122   0.00106   0.00329   0.00435   2.05425
    A1        2.09498   0.00142  -0.00224   0.00842   0.00610   2.10108
    A2        2.09103  -0.00056   0.00155  -0.00344  -0.00187   2.08916
    A3        2.09713  -0.00085   0.00069  -0.00489  -0.00419   2.09294
    A4        2.13392   0.00029   0.00229  -0.00060   0.00160   2.13552
    A5        2.07323   0.00097  -0.00094   0.00811   0.00718   2.08041
    A6        2.07603  -0.00126  -0.00132  -0.00746  -0.00877   2.06726
    A7        2.04900  -0.00158  -0.00008  -0.00810  -0.00822   2.04078
    A8        2.12233  -0.00073   0.00068  -0.00722  -0.00654   2.11579
    A9        2.11185   0.00231  -0.00059   0.01534   0.01476   2.12661
   A10        2.11702   0.00217  -0.00251   0.01251   0.00996   2.12698
   A11        2.27405   0.00185  -0.00060   0.00861   0.00797   2.28201
   A12        1.89208  -0.00402   0.00311  -0.02103  -0.01789   1.87419
   A13        2.10160  -0.00130   0.00472  -0.00880  -0.00411   2.09749
   A14        1.84346   0.00380  -0.00311   0.02090   0.01784   1.86131
   A15        2.33812  -0.00250  -0.00161  -0.01209  -0.01374   2.32438
   A16        2.06966  -0.00099  -0.00174  -0.00337  -0.00521   2.06445
   A17        2.10596   0.00114   0.00045   0.00673   0.00712   2.11308
   A18        2.10746  -0.00015   0.00130  -0.00306  -0.00181   2.10565
   A19        1.90463   0.00240  -0.00052   0.01040   0.00985   1.91448
   A20        2.21584  -0.00057   0.00395  -0.00330   0.00066   2.21650
   A21        2.16272  -0.00183  -0.00343  -0.00710  -0.01051   2.15221
   A22        1.87286  -0.00358   0.00040  -0.01657  -0.01620   1.85666
   A23        2.21463   0.00303   0.00011   0.01690   0.01701   2.23164
   A24        2.19569   0.00055  -0.00051  -0.00030  -0.00081   2.19488
   A25        1.91173   0.00139   0.00013   0.00636   0.00640   1.91813
   A26        2.08513   0.00051  -0.00212   0.00691   0.00481   2.08994
   A27        2.28632  -0.00191   0.00200  -0.01324  -0.01121   2.27511
    D1        0.01930  -0.00043  -0.00964   0.00020  -0.00947   0.00983
    D2       -3.11613  -0.00043  -0.00514  -0.01091  -0.01605  -3.13218
    D3       -3.11339  -0.00053  -0.00716  -0.01059  -0.01782  -3.13121
    D4        0.03436  -0.00053  -0.00266  -0.02170  -0.02440   0.00996
    D5       -0.01714   0.00037   0.01055  -0.00638   0.00405  -0.01309
    D6        3.10897   0.00057   0.00538   0.01620   0.02154   3.13051
    D7        3.11552   0.00048   0.00805   0.00446   0.01242   3.12795
    D8       -0.04155   0.00067   0.00289   0.02704   0.02992  -0.01164
    D9       -0.00557   0.00019   0.00429  -0.00085   0.00347  -0.00210
   D10        3.14086   0.00004   0.00298  -0.00533  -0.00227   3.13859
   D11        3.12985   0.00020  -0.00022   0.01033   0.01006   3.13991
   D12       -0.00691   0.00004  -0.00153   0.00584   0.00432  -0.00259
   D13       -0.00966   0.00013  -0.00023   0.00795   0.00781  -0.00185
   D14       -3.14124  -0.00009  -0.00033  -0.00437  -0.00471   3.13723
   D15        3.12713   0.00028   0.00109   0.01234   0.01352   3.14065
   D16       -0.00445   0.00006   0.00099   0.00002   0.00100  -0.00345
   D17        0.01142  -0.00019   0.00130  -0.01448  -0.01320  -0.00177
   D18       -3.13209  -0.00020  -0.00060  -0.00904  -0.00966   3.14144
   D19       -3.13822   0.00001   0.00136  -0.00446  -0.00316  -3.14138
   D20        0.00145   0.00000  -0.00053   0.00098   0.00038   0.00183
   D21        3.13423   0.00012   0.00046   0.00453   0.00494   3.13918
   D22       -0.00716   0.00012   0.00027   0.00537   0.00561  -0.00155
   D23        0.00166  -0.00011   0.00039  -0.00670  -0.00630  -0.00465
   D24       -3.13974  -0.00010   0.00021  -0.00586  -0.00564   3.13781
   D25        0.00232  -0.00006  -0.00637   0.01339   0.00692   0.00924
   D26       -3.12378  -0.00026  -0.00121  -0.00930  -0.01058  -3.13436
   D27       -3.13671  -0.00006  -0.00382   0.00607   0.00222  -3.13448
   D28        0.02038  -0.00026   0.00133  -0.01662  -0.01527   0.00511
   D29       -0.00385   0.00012   0.00050   0.00478   0.00522   0.00137
   D30        3.14086   0.00003   0.00129  -0.00177  -0.00054   3.14032
   D31        3.13545   0.00012  -0.00183   0.01131   0.00944  -3.13830
   D32       -0.00303   0.00003  -0.00104   0.00476   0.00368   0.00065
   D33       -0.00416   0.00018  -0.00007   0.00980   0.00977   0.00561
   D34        3.14105   0.00002  -0.00065   0.00285   0.00218  -3.13996
   D35        3.13724   0.00017   0.00012   0.00899   0.00914  -3.13681
   D36       -0.00073   0.00002  -0.00046   0.00204   0.00154   0.00081
   D37        0.00505  -0.00019  -0.00026  -0.00916  -0.00939  -0.00434
   D38       -3.14072   0.00000   0.00038  -0.00108  -0.00069  -3.14141
   D39       -3.13962  -0.00010  -0.00104  -0.00266  -0.00374   3.13982
   D40       -0.00220   0.00010  -0.00040   0.00542   0.00496   0.00276
         Item               Value     Threshold  Converged?
 Maximum Force            0.010314     0.000450     NO 
 RMS     Force            0.002100     0.000300     NO 
 Maximum Displacement     0.038656     0.001800     NO 
 RMS     Displacement     0.010332     0.001200     NO 
 Predicted change in Energy=-7.183540D-04
 GradGradGradGradGradGradGradGradGradGradGradGradGradGradGradGradGradGrad

                          Input orientation:                          
 ---------------------------------------------------------------------
 Center     Atomic      Atomic             Coordinates (Angstroms)
 Number     Number       Type             X           Y           Z
 ---------------------------------------------------------------------
      1          6           0       -2.165613    0.701956    0.007174
      2          6           0       -2.121121   -0.693635    0.000767
      3          6           0       -0.904025   -1.411416   -0.003069
      4          6           0        0.252770   -0.673273   -0.002785
      5          6           0        0.236017    0.749138   -0.001064
      6          6           0       -0.989798    1.442751   -0.001749
      7          7           0        1.582097   -1.072307   -0.001327
      8          6           0        1.574548    1.166550   -0.001051
      9          6           0        2.362079   -0.014374   -0.004635
     10          1           0        1.941228   -2.043811    0.001134
     11          1           0        1.955133    2.182090   -0.001054
     12          1           0        3.441814   -0.140367   -0.005635
[...]
 ! D10   D(1,2,3,14)          -180.0163         -DE/DX =    0.0                 !
 ! D11   D(13,2,3,4)          -179.9798         -DE/DX =    0.0                 !
 ! D12   D(13,2,3,14)            0.0101         -DE/DX =    0.0                 !
 ! D13   D(2,3,4,5)              0.0151         -DE/DX =    0.0                 !
 ! D14   D(2,3,4,7)           -180.0108         -DE/DX =    0.0                 !
 ! D15   D(14,3,4,5)           180.0252         -DE/DX =    0.0                 !
 ! D16   D(14,3,4,7)            -0.0007         -DE/DX =    0.0                 !
 ! D17   D(3,4,5,6)             -0.0366         -DE/DX =    0.0                 !
 ! D18   D(3,4,5,8)            179.984          -DE/DX =    0.0                 !
 ! D19   D(7,4,5,6)            179.9839         -DE/DX =    0.0                 !
 ! D20   D(7,4,5,8)              0.0045         -DE/DX =    0.0                 !
 ! D21   D(3,4,7,9)            180.0324         -DE/DX =    0.0                 !
 ! D22   D(3,4,7,10)             0.0107         -DE/DX =    0.0                 !
 ! D23   D(5,4,7,9)              0.0094         -DE/DX =    0.0                 !
 ! D24   D(5,4,7,10)          -180.0123         -DE/DX =    0.0                 !
 ! D25   D(4,5,6,1)              0.0477         -DE/DX =    0.0                 !
 ! D26   D(4,5,6,16)           179.9999         -DE/DX =    0.0                 !
 ! D27   D(8,5,6,1)           -179.9793         -DE/DX =    0.0                 !
 ! D28   D(8,5,6,16)            -0.0271         -DE/DX =    0.0                 !
 ! D29   D(4,5,8,9)             -0.0155         -DE/DX =    0.0                 !
 ! D30   D(4,5,8,11)          -180.0143         -DE/DX =    0.0                 !
 ! D31   D(6,5,8,9)            180.0089         -DE/DX =    0.0                 !
 ! D32   D(6,5,8,11)             0.0101         -DE/DX =    0.0                 !
 ! D33   D(4,7,9,8)             -0.0195         -DE/DX =    0.0                 !
 ! D34   D(4,7,9,12)           179.9965         -DE/DX =    0.0                 !
 ! D35   D(10,7,9,8)           180.0012         -DE/DX =    0.0                 !
 ! D36   D(10,7,9,12)            0.0173         -DE/DX =    0.0                 !
 ! D37   D(5,8,9,7)              0.022          -DE/DX =    0.0                 !
 ! D38   D(5,8,9,12)           180.0038         -DE/DX =    0.0                 !
 ! D39   D(11,8,9,7)          -179.9792         -DE/DX =    0.0                 !
 ! D40   D(11,8,9,12)            0.0027         -DE/DX =    0.0                 !
 --------------------------------------------------------------------------------
 GradGradGradGradGradGradGradGradGradGradGradGradGradGradGradGradGradGrad

                          Input orientation:                          
 ---------------------------------------------------------------------
 Center     Atomic      Atomic             Coordinates (Angstroms)
 Number     Number       Type             X           Y           Z
 ---------------------------------------------------------------------
      1          6           0       -2.165731    0.702721    0.003350
      2          6           0       -2.121754   -0.693756    0.002212
      3          6           0       -0.905847   -1.411959   -0.000273
      4          6           0        0.251728   -0.674727   -0.001686
      5          6           0        0.237123    0.749049   -0.000389
      6          6           0       -0.991211    1.442408    0.001647
      7          7           0        1.584312   -1.074013   -0.003951
      8          6           0        1.573977    1.167973   -0.002033
      9          6           0        2.364771   -0.014814   -0.003916
     10          1           0        1.943113   -2.045962   -0.005158
     11          1           0        1.958492    2.181186   -0.001918
     12          1           0        3.445035   -0.133795   -0.005480
     13          1           0       -3.053953   -1.254163    0.003709
     14          1           0       -0.896931   -2.495800   -0.000852
     15          1           0       -3.127575    1.209664    0.005078
     16          1           0       -1.011901    2.530069    0.002650
 ---------------------------------------------------------------------
                    Distance matrix (angstroms):
                    1          2          3          4          5
     1  C    0.000000
     2  C    1.397171   0.000000
     3  C    2.461543   1.412180   0.000000
     4  C    2.782354   2.373561   1.372403   0.000000
     5  C    2.403303   2.765139   2.444655   1.423852   0.000000
     6  C    1.388033   2.416884   2.855644   2.455029   1.410515
     7  N    4.149658   3.725528   2.512989   1.391120   2.266823
     8  C    3.768541   4.138173   3.578488   2.268014   1.400956
     9  C    4.586977   4.537610   3.556539   2.213695   2.260616
    10  H    4.943473   4.283883   2.918656   2.177402   3.274524
    11  H    4.381221   4.991365   4.595121   3.327054   2.239226
    12  H    5.672788   5.594886   4.534744   3.238801   3.327182
    13  H    2.149031   1.087682   2.153898   3.356083   3.852798
    14  H    3.440990   2.178890   1.083878   2.153073   3.437313
    15  H    1.087262   2.152834   3.436425   3.869194   3.396084
    16  H    2.161139   3.409520   3.943456   3.444923   2.175340
                    6          7          8          9         10
     6  C    0.000000
     7  N    3.600795   0.000000
     8  C    2.579828   2.242010   0.000000
     9  C    3.658707   1.315682   1.422794   0.000000
    10  H    4.558401   1.036062   3.235065   2.074454   0.000000
    11  H    3.040815   3.276635   1.083722   2.233267   4.227177
    12  H    4.707944   2.084778   2.279357   1.086797   2.431492
    13  H    3.395055   4.641768   5.223457   5.558652   5.059416
    14  H    3.939337   2.859730   4.419119   4.098048   2.875452
    15  H    2.149008   5.236138   4.701742   5.627193   6.025868
    16  H    1.087859   4.441821   2.922686   4.228284   5.447222
                   11         12         13         14         15
    11  H    0.000000
    12  H    2.751174   0.000000
    13  H    6.076698   6.594858   0.000000
    14  H    5.479748   4.942849   2.488861   0.000000
    15  H    5.178030   6.708517   2.464926   4.325075   0.000000
    16  H    2.990815   5.192351   4.300045   5.027185   2.493903
                   16
    16  H    0.000000
 Stoichiometry    C8H7N
 Framework group  C1[X(C8H7N)]
 Deg. of freedom    42
 Full point group                 C1      NOp   1
 Largest Abelian subgroup         C1      NOp   1
 Largest concise Abelian subgroup C1      NOp   1
                         Standard orientation:                         
 ---------------------------------------------------------------------
 Center     Atomic      Atomic             Coordinates (Angstroms)
 Number     Number       Type             X           Y           Z
 ---------------------------------------------------------------------
      1          6           0       -2.181391    0.640656    0.000158
      2          6           0       -2.098305   -0.754042    0.000094
      3          6           0       -0.862751   -1.437897   -0.000035
      4          6           0        0.273715   -0.668523   -0.000230
      5          6           0        0.219224    0.754286    0.000017
      6          6           0       -1.028055    1.412959   -0.000304
      7          7           0        1.616965   -1.030317   -0.000192
      8          6           0        1.543817    1.210500    0.000092
      9          6           0        2.367441    0.050333    0.000258
     10          1           0        2.002857   -1.991831   -0.000155
     11          1           0        1.899794    2.234089    0.000056
     12          1           0        3.450615   -0.038335    0.000413
     13          1           0       -3.014438   -1.340345    0.000587
     14          1           0       -0.823472   -2.521063    0.000182
     15          1           0       -3.157063    1.120452    0.000067
     16          1           0       -1.079211    2.499614   -0.000116
 ---------------------------------------------------------------------
 Rotational constants (GHZ):           3.8877051           1.6503106           1.1585235

 **********************************************************************

            Population analysis using the CI Density.

 **********************************************************************

 Orbital symmetries:
       Occupied  (A) (A) (A) (A) (A) (A) (A) (A) (A) (A) (A) (A)
                 (A) (A) (A) (A) (A) (A) (A) (A) (A) (A) (A) (A)
                 (A) (A) (A) (A) (A) (A) (A)
       Virtual   (A) (A) (A) (A) (A) (A) (A) (A) (A) (A) (A) (A)
                 (A) (A) (A) (A) (A) (A) (A) (A) (A) (A) (A) (A)
                 (A) (A) (A) (A) (A) (A) (A) (A) (A) (A) (A) (A)
                 (A) (A) (A) (A) (A) (A) (A) (A) (A) (A) (A) (A)
                 (A) (A) (A) (A) (A) (A) (A) (A) (A) (A) (A) (A)
                 (A) (A) (A) (A) (A) (A) (A) (A) (A) (A) (A) (A)
                 (A) (A) (A) (A) (A) (A) (A) (A) (A) (A) (A) (A)
                 (A) (A) (A) (A) (A) (A) (A) (A) (A) (A) (A) (A)
                 (A) (A) (A) (A) (A) (A) (A) (A) (A) (A) (A) (A)
                 (A) (A) (A) (A) (A) (A) (A) (A) (A) (A) (A) (A)
                 (A) (A) (A) (A) (A) (A) (A) (A) (A) (A) (A) (A)
                 (A) (A) (A) (A) (A) (A) (A) (A) (A) (A) (A) (A)
                 (A) (A) (A) (A) (A) (A) (A) (A) (A) (A)
 The electronic state is 1-A.
 Alpha  occ. eigenvalues --  -14.46788 -10.29647 -10.29166 -10.26344 -10.25734
 Alpha  occ. eigenvalues --  -10.25668 -10.25662 -10.25363 -10.24605  -1.01163
 Alpha  occ. eigenvalues --   -0.85581  -0.79307  -0.75611  -0.72003  -0.64000
 Alpha  occ. eigenvalues --   -0.60883  -0.59189  -0.55307  -0.49219  -0.48145
 Alpha  occ. eigenvalues --   -0.45320  -0.44663  -0.44332  -0.41436  -0.39898
 Alpha  occ. eigenvalues --   -0.36482  -0.35220  -0.34859  -0.29067  -0.24407
 Alpha  occ. eigenvalues --   -0.20740
 Alpha virt. eigenvalues --   -0.03531  -0.01683  -0.01293  -0.00784   0.00324
 Alpha virt. eigenvalues --    0.00656   0.02175   0.02811   0.02986   0.03406
 Alpha virt. eigenvalues --    0.03899   0.04008   0.06486   0.06814   0.06926
 Alpha virt. eigenvalues --    0.06994   0.09412   0.10038   0.10907   0.11581
 Alpha virt. eigenvalues --    0.11866   0.12193   0.13088   0.13557   0.14963
 Alpha virt. eigenvalues --    0.15635   0.15855   0.16663   0.17426   0.17584
 Alpha virt. eigenvalues --    0.18318   0.19071   0.19306   0.19983   0.20869
 Alpha virt. eigenvalues --    0.21104   0.21442   0.21984   0.23067   0.23678
 Alpha virt. eigenvalues --    0.24527   0.25300   0.25682   0.27142   0.27730
 Alpha virt. eigenvalues --    0.29179   0.30090   0.31074   0.32751   0.34933
 Alpha virt. eigenvalues --    0.35449   0.39130   0.42709   0.43933   0.51204
 Alpha virt. eigenvalues --    0.57318   0.61756   0.65344   0.66231   0.67882
 Alpha virt. eigenvalues --    0.70144   0.70596   0.71419   0.71877   0.73213
 Alpha virt. eigenvalues --    0.73650   0.75477   0.75848   0.77350   0.78299
 Alpha virt. eigenvalues --    0.80355   0.83647   0.85757   0.87070   0.88365
 Alpha virt. eigenvalues --    0.90438   0.91165   0.92653   0.95308   0.95906
 Alpha virt. eigenvalues --    0.98469   1.00267   1.02494   1.02649   1.08126
 Alpha virt. eigenvalues --    1.10154   1.10804   1.16231   1.16837   1.18950
 Alpha virt. eigenvalues --    1.21368   1.23459   1.24485   1.30855   1.31777
 Alpha virt. eigenvalues --    1.34160   1.35191   1.39444   1.41140   1.41861
 Alpha virt. eigenvalues --    1.46254   1.46397   1.49493   1.50492   1.52171
 Alpha virt. eigenvalues --    1.55376   1.62739   1.75442   1.81940   1.86356
 Alpha virt. eigenvalues --    1.88030   1.88594   1.88738   1.94773   1.95419
 Alpha virt. eigenvalues --    1.99780   2.04209   2.07182   2.11742   2.13893
 Alpha virt. eigenvalues --    2.14462   2.16744   2.22190   2.24193   2.25934
 Alpha virt. eigenvalues --    2.28544   2.30615   2.36478   2.40618   2.42637
 Alpha virt. eigenvalues --    2.50719   2.55306   2.61507   2.62593   2.64831
 Alpha virt. eigenvalues --    2.66633   2.70831   2.78993   2.81013   2.83662
 Alpha virt. eigenvalues --    2.92369   2.95776   3.06533   3.23479   3.40458
 Alpha virt. eigenvalues --    4.14741   4.21904   4.25078   4.27502   4.32583
 Alpha virt. eigenvalues --    4.36942   4.44456   4.48557   4.75143
          Condensed to atoms (all electrons):
               1          2          3          4          5          6
     1  C   41.882675   7.896508  -5.955275 -24.506746 -24.748723 -19.214763
     2  C    7.896508  50.012823  13.825194 -49.511928  15.274140 -55.756724
     3  C   -5.955275  13.825194  35.253890 -26.520475  11.680586 -22.430593
     4  C  -24.506746 -49.511928 -26.520475 146.435829 -14.140953  66.266921
     5  C  -24.748723  15.274140  11.680586 -14.140953 139.458462 -53.172378
     6  C  -19.214763 -55.756724 -22.430593  66.266921 -53.172378 103.633597
     7  N    0.126432  -0.239589   3.339762   3.993780  -5.808492   2.198732
     8  C   47.998925  40.952251 -15.758244-180.886965-113.936232 -15.364799
     9  C  -17.852728 -16.092292  12.520332  86.242679  49.230716   0.070762
    10  H    0.000381  -0.079680  -0.300298   0.631268  -0.008746  -0.143562
    11  H   -0.038226   0.003945  -0.045519  -0.145856   0.436281   0.218379
    12  H    0.010687  -0.014554   0.211110   0.341706  -0.712410  -0.103276
    13  H    0.119006   0.047344  -0.064777   0.172130  -0.083938   0.136857
    14  H    0.106286  -0.026926   0.232575   0.563726  -0.570723  -0.055850
    15  H    0.157594   0.204037  -0.071990  -0.072901  -0.043844   0.122155
    16  H   -0.055571  -0.123861   0.005296   0.225654   0.653831  -0.287810
               7          8          9         10         11         12
     1  C    0.126432  47.998925 -17.852728   0.000381  -0.038226   0.010687
     2  C   -0.239589  40.952251 -16.092292  -0.079680   0.003945  -0.014554
     3  C    3.339762 -15.758244  12.520332  -0.300298  -0.045519   0.211110
     4  C    3.993780-180.886965  86.242679   0.631268  -0.145856   0.341706
     5  C   -5.808492-113.936232  49.230716  -0.008746   0.436281  -0.712410
     6  C    2.198732 -15.364799   0.070762  -0.143562   0.218379  -0.103276
     7  N   14.673638 -35.430290  23.575060  -0.717178  -0.004489  -0.055736
     8  C  -35.430290 602.926602-320.684962   2.562826  -0.608559   0.587073
     9  C   23.575060-320.684962 186.120717  -1.783181   0.484623   0.040666
    10  H   -0.717178   2.562826  -1.783181   0.557130  -0.000213  -0.001166
    11  H   -0.004489  -0.608559   0.484623  -0.000213   0.456397  -0.000208
    12  H   -0.055736   0.587073   0.040666  -0.001166  -0.000208   0.425634
    13  H    0.002775  -0.044151   0.020266  -0.000013   0.000000  -0.000000
    14  H    0.043531  -0.115658   0.095170   0.002027   0.000001   0.000005
    15  H   -0.001252   0.020158  -0.003498  -0.000000  -0.000001  -0.000000
    16  H    0.006474  -0.190998   0.058946   0.000002   0.001213   0.000000
              13         14         15         16
     1  C    0.119006   0.106286   0.157594  -0.055571
     2  C    0.047344  -0.026926   0.204037  -0.123861
     3  C   -0.064777   0.232575  -0.071990   0.005296
     4  C    0.172130   0.563726  -0.072901   0.225654
     5  C   -0.083938  -0.570723  -0.043844   0.653831
     6  C    0.136857  -0.055850   0.122155  -0.287810
     7  N    0.002775   0.043531  -0.001252   0.006474
     8  C   -0.044151  -0.115658   0.020158  -0.190998
     9  C    0.020266   0.095170  -0.003498   0.058946
    10  H   -0.000013   0.002027  -0.000000   0.000002
    11  H    0.000000   0.000001  -0.000001   0.001213
    12  H   -0.000000   0.000005  -0.000000   0.000000
    13  H    0.473570  -0.002544  -0.003969  -0.000114
    14  H   -0.002544   0.492177  -0.000134   0.000017
    15  H   -0.003969  -0.000134   0.478497  -0.003151
    16  H   -0.000114   0.000017  -0.003151   0.480126
 Mulliken charges:
               1
     1  C    0.073538
     2  C   -0.370688
     3  C    0.078427
     4  C   -3.087870
     5  C    2.492422
     6  C   -0.117648
     7  N    1.296843
     8  C   -6.026978
     9  C    3.956723
    10  H    0.280403
    11  H    0.242233
    12  H    0.270469
    13  H    0.227559
    14  H    0.236321
    15  H    0.218300
    16  H    0.229946
 Sum of Mulliken charges =  -0.00000
 Mulliken charges with hydrogens summed into heavy atoms:
               1
     1  C    0.291838
     2  C   -0.143129
     3  C    0.314748
     4  C   -3.087870
     5  C    2.492422
     6  C    0.112299
     7  N    1.577246
     8  C   -5.784745
     9  C    4.227192
 Electronic spatial extent (au):  <R**2>=           1044.7172
 Charge=             -0.0000 electrons
 Dipole moment (field-independent basis, Debye):
    X=             -7.3181    Y=              7.1334    Z=              0.0020  Tot=             10.2196
 Quadrupole moment (field-independent basis, Debye-Ang):
   XX=            -71.1908   YY=            -66.4355   ZZ=            -64.9496
   XY=             20.8706   XZ=              0.0008   YZ=             -0.0045
 Traceless Quadrupole moment (field-independent basis, Debye-Ang):
   XX=             -3.6655   YY=              1.0898   ZZ=              2.5757
   XY=             20.8706   XZ=              0.0008   YZ=             -0.0045
 Octapole moment (field-independent basis, Debye-Ang**2):
  XXX=           -159.7348  YYY=             91.0597  ZZZ=              0.0164  XYY=            -59.8824
  XXY=             72.9819  XXZ=              0.0067  XZZ=            -22.5479  YZZ=             22.7099
  YYZ=              0.0140  XYZ=             -0.0007
 Hexadecapole moment (field-independent basis, Debye-Ang**3):
 XXXX=          -1581.6138 YYYY=           -743.0205 ZZZZ=           -138.6454 XXXY=            316.1899
 XXXZ=             -0.0220 YYYX=            198.3446 YYYZ=             -0.0451 ZZZX=              0.0197
 ZZZY=             -0.0356 XXYY=           -403.7176 XXZZ=           -263.8355 YYZZ=           -160.8542
 XXYZ=             -0.0115 YYXZ=              0.0024 ZZXY=             53.7692
 N-N= 4.012984950898D+02 E-N=-1.640462099027D+03  KE= 3.594761753439D+02
 Unable to Open any file for archive entry.
 1\1\GINC-EXP-1-30\FOpt\RM06 TD-FC\6-31+G(d)\C8H7N1\SCAPARAS\09-Jun-202
 1\0\\# td= (nstates=6, root=1) M06/6-31+G* Opt density=current\\FuncsM
 06\\0,1\C,-2.1657305713,0.7027213875,0.003349979\C,-2.1217537915,-0.69
 37564899,0.002211658\C,-0.905846654,-1.4119594393,-0.0002731643\C,0.25
 17275718,-0.6747273805,-0.0016860827\C,0.2371228236,0.7490488004,-0.00
 03894624\C,-0.9912105649,1.4424077603,0.0016467959\N,1.5843122995,-1.0
 740129142,-0.0039508627\C,1.573976903,1.1679725031,-0.0020325646\C,2.3
 647711814,-0.0148139167,-0.0039159697\H,1.9431132035,-2.0459616514,-0.
 0051575798\H,1.9584923207,2.1811861351,-0.0019184768\H,3.4450348174,-0
 .1337945055,-0.005479668\H,-3.0539526201,-1.2541625211,0.0037087207\H,
 -0.8969305419,-2.4958003603,-0.0008518182\H,-3.1275753743,1.2096635656
 ,0.005078121\H,-1.0119010028,2.5300690268,0.0026503746\\Version=AS64L-
 G16RevC.01\State=1-A\HF=-363.5432027\RMSD=6.959e-09\RMSF=7.364e-05\Dip
 ole=-2.8791619,2.8065001,0.0008064\Quadrupole=-2.7251924,0.8102222,1.9
 149702,15.5167979,0.0005929,-0.003327\PG=C01 [X(C8H7N1)]\\@
 The archive entry for this job was punched.


 It is also a good rule not to put too much confidence in
 experimental results until they have been confirmed by
 Theory.
                             -- Sir Arthur Eddington
 Job cpu time:       0 days  4 hours 13 minutes 53.0 seconds.
 Elapsed time:       0 days  1 hours  3 minutes 50.5 seconds.
 File lengths (MBytes):  RWF=    238 Int=      0 D2E=      0 Chk=     16 Scr=      1
 Normal termination of Gaussian 16 at Wed Jun  9 09:35:23 2021.
