 Entering Gaussian System, Link 0=/cm/shared/apps/spack/cpu/opt/spack/linux-centos8-zen/gcc-8.3.1/gaussian-16.C.01-po5bqktfeugvmjyga3v7eigbecnokxng/g16/g16
 Initial command:
 /cm/shared/apps/spack/cpu/opt/spack/linux-centos8-zen/gcc-8.3.1/gaussian-16.C.01-po5bqktfeugvmjyga3v7eigbecnokxng/g16/l1.exe "/scratch/scaparas/job_3447308/Gau-76520.inp" -scrdir="/scratch/scaparas/job_3447308/"
 Entering Link 1 = /cm/shared/apps/spack/cpu/opt/spack/linux-centos8-zen/gcc-8.3.1/gaussian-16.C.01-po5bqktfeugvmjyga3v7eigbecnokxng/g16/l1.exe PID=     76521.
  
 Copyright (c) 1988-2019, Gaussian, Inc.  All Rights Reserved.
  
 This is part of the Gaussian(R) 16 program.  It is based on
 the Gaussian(R) 09 system (copyright 2009, Gaussian, Inc.),
 the Gaussian(R) 03 system (copyright 2003, Gaussian, Inc.),
 the Gaussian(R) 98 system (copyright 1998, Gaussian, Inc.),
 the Gaussian(R) 94 system (copyright 1995, Gaussian, Inc.),
 the Gaussian 92(TM) system (copyright 1992, Gaussian, Inc.),
 the Gaussian 90(TM) system (copyright 1990, Gaussian, Inc.),
 the Gaussian 88(TM) system (copyright 1988, Gaussian, Inc.),
 the Gaussian 86(TM) system (copyright 1986, Carnegie Mellon
 University), and the Gaussian 82(TM) system (copyright 1983,
 Carnegie Mellon University). Gaussian is a federally registered
 trademark of Gaussian, Inc.
  
 This software contains proprietary and confidential information,
 including trade secrets, belonging to Gaussian, Inc.
  
 This software is provided under written license and may be
 used, copied, transmitted, or stored only in accord with that
 written license.
  
 The following legend is applicable only to US Government
 contracts under FAR:
  
                    RESTRICTED RIGHTS LEGEND
  
 Use, reproduction and disclosure by the US Government is
 subject to restrictions as set forth in subparagraphs (a)
 and (c) of the Commercial Computer Software - Restricted
 Rights clause in FAR 52.227-19.
  
 Gaussian, Inc.
 340 Quinnipiac St., Bldg. 40, Wallingford CT 06492
  
  
 ---------------------------------------------------------------
 Warning -- This program may not be used in any manner that
 competes with the business of Gaussian, Inc. or will provide
 assistance to any competitor of Gaussian, Inc.  The licensee
 of this program is prohibited from giving any competitor of
 Gaussian, Inc. access to this program.  By using this program,
 the user acknowledges that Gaussian, Inc. is engaged in the
 business of creating and licensing software in the field of
 computational chemistry and represents and warrants to the
 licensee that it is not a competitor of Gaussian, Inc. and that
 it will not use this program in any manner prohibited above.
 ---------------------------------------------------------------
  

 Cite this work as:
 Gaussian 16, Revision C.01,
 M. J. Frisch, G. W. Trucks, H. B. Schlegel, G. E. Scuseria, 
 M. A. Robb, J. R. Cheeseman, G. Scalmani, V. Barone, 
 G. A. Petersson, H. Nakatsuji, X. Li, M. Caricato, A. V. Marenich, 
 J. Bloino, B. G. Janesko, R. Gomperts, B. Mennucci, H. P. Hratchian, 
 J. V. Ortiz, A. F. Izmaylov, J. L. Sonnenberg, D. Williams-Young, 
 F. Ding, F. Lipparini, F. Egidi, J. Goings, B. Peng, A. Petrone, 
 T. Henderson, D. Ranasinghe, V. G. Zakrzewski, J. Gao, N. Rega, 
 G. Zheng, W. Liang, M. Hada, M. Ehara, K. Toyota, R. Fukuda, 
 J. Hasegawa, M. Ishida, T. Nakajima, Y. Honda, O. Kitao, H. Nakai, 
 T. Vreven, K. Throssell, J. A. Montgomery, Jr., J. E. Peralta, 
 F. Ogliaro, M. J. Bearpark, J. J. Heyd, E. N. Brothers, K. N. Kudin, 
 V. N. Staroverov, T. A. Keith, R. Kobayashi, J. Normand, 
 K. Raghavachari, A. P. Rendell, J. C. Burant, S. S. Iyengar, 
 J. Tomasi, M. Cossi, J. M. Millam, M. Klene, C. Adamo, R. Cammi, 
 J. W. Ochterski, R. L. Martin, K. Morokuma, O. Farkas, 
 J. B. Foresman, and D. J. Fox, Gaussian, Inc., Wallingford CT, 2019.
 
 ******************************************
 Gaussian 16:  AS64L-G16RevC.01  3-Jul-2019
                16-Jun-2021 
 ******************************************
 %nprocshared=4
 Will use up to    4 processors via shared memory.
 %chk=FuncsN12SX-V-1st.chk
 %Mem=3GB
 -----------------------------------------------------------
 # td= (nstates=6, root=1) N12SX/6-31+G* Opt density=current
 -----------------------------------------------------------
 1/18=20,19=15,26=3,38=1/1,3;
 2/9=110,12=2,17=6,18=5,40=1/2;
 3/5=1,6=6,7=11,11=9,25=1,30=1,71=1,74=-69/1,2,3,8;
 4//1;
 5/5=2,38=5/2;
 8/6=1,10=2,107=1,108=6/1;
 9/8=1,15=2,41=6,42=1,70=2/14;
 10/5=4,28=1/2;
 6/7=2,8=2,9=2,10=2,22=-1/1;
 7/12=6,13=5,14=1/1,2,3,16;
 1/18=20,19=15,26=3/3(2);
 2/9=110/2;
 99//99;
 2/9=110/2;
 3/5=1,6=6,7=11,11=9,25=1,30=1,71=1,74=-69/1,2,3,8;
 4/5=5,16=3,69=1/1;
 5/5=2,38=5/2;
 8/6=1,10=2,107=1,108=6/1;
 9/8=1,15=2,41=6,42=1,49=4,70=2/14;
 10/5=4,28=1/2;
 7/12=6,13=5,14=1/1,2,3,16;
 1/18=20,19=15,26=3/3(-8);
 2/9=110/2;
 6/7=2,8=2,9=2,10=2,22=-1/1;
 99/9=10/99;
 ----------------
 FuncsN12SX-V-1st
 ----------------
 Symbolic Z-matrix:
 Charge =  0 Multiplicity = 1
 C                    -2.15106   0.68921   0.00009 
 C                    -2.12793  -0.71582   0.00008 
 C                    -0.9323   -1.4131   -0.00001 
 C                     0.24691  -0.6702   -0.00004 
 C                     0.24819   0.7483    0. 
 C                    -0.97947   1.42353   0.00003 
 N                     1.56177  -1.07759  -0.00029 
 C                     1.62013   1.1629   -0.00016 
 C                     2.38201   0.03081   0.00025 
 H                     1.87632  -2.03001   0.00044 
 H                     1.99217   2.17301  -0.00035 
 H                     3.45255  -0.08243   0.00041 
 H                    -3.06159  -1.26202   0.00009 
 H                    -0.91725  -2.49534  -0.00007 
 H                    -3.1042    1.20079   0.00009 
 H                    -1.00935   2.50542  -0.00002 
 

 GradGradGradGradGradGradGradGradGradGradGradGradGradGradGradGradGradGrad
 Berny optimization.
 Initialization pass.
                           ----------------------------
                           !    Initial Parameters    !
                           ! (Angstroms and Degrees)  !
 --------------------------                            --------------------------
 ! Name  Definition              Value          Derivative Info.                !
 --------------------------------------------------------------------------------
 ! R1    R(1,2)                  1.4052         estimate D2E/DX2                !
 ! R2    R(1,6)                  1.3827         estimate D2E/DX2                !
 ! R3    R(1,15)                 1.0818         estimate D2E/DX2                !
 ! R4    R(2,3)                  1.3841         estimate D2E/DX2                !
 ! R5    R(2,13)                 1.0817         estimate D2E/DX2                !
 ! R6    R(3,4)                  1.3937         estimate D2E/DX2                !
 ! R7    R(3,14)                 1.0823         estimate D2E/DX2                !
 ! R8    R(4,5)                  1.4185         estimate D2E/DX2                !
 ! R9    R(4,7)                  1.3765         estimate D2E/DX2                !
 ! R10   R(5,6)                  1.4011         estimate D2E/DX2                !
 ! R11   R(5,8)                  1.4332         estimate D2E/DX2                !
 ! R12   R(6,16)                 1.0823         estimate D2E/DX2                !
 ! R13   R(7,9)                  1.3789         estimate D2E/DX2                !
 ! R14   R(7,10)                 1.003          estimate D2E/DX2                !
 ! R15   R(8,9)                  1.3646         estimate D2E/DX2                !
 ! R16   R(8,11)                 1.0764         estimate D2E/DX2                !
 ! R17   R(9,12)                 1.0765         estimate D2E/DX2                !
 ! A1    A(2,1,6)              121.1349         estimate D2E/DX2                !
 ! A2    A(2,1,15)             119.1671         estimate D2E/DX2                !
 ! A3    A(6,1,15)             119.698          estimate D2E/DX2                !
 ! A4    A(1,2,3)              121.1938         estimate D2E/DX2                !
 ! A5    A(1,2,13)             119.3846         estimate D2E/DX2                !
 ! A6    A(3,2,13)             119.4217         estimate D2E/DX2                !
 ! A7    A(2,3,4)              117.5387         estimate D2E/DX2                !
 ! A8    A(2,3,14)             121.0469         estimate D2E/DX2                !
 ! A9    A(4,3,14)             121.4144         estimate D2E/DX2                !
 ! A10   A(3,4,5)              122.2626         estimate D2E/DX2                !
 ! A11   A(3,4,7)              130.5743         estimate D2E/DX2                !
 ! A12   A(5,4,7)              107.163          estimate D2E/DX2                !
 ! A13   A(4,5,6)              118.7594         estimate D2E/DX2                !
 ! A14   A(4,5,8)              106.8666         estimate D2E/DX2                !
 ! A15   A(6,5,8)              134.374          estimate D2E/DX2                !
 ! A16   A(1,6,5)              119.1105         estimate D2E/DX2                !
 ! A17   A(1,6,16)             120.4966         estimate D2E/DX2                !
 ! A18   A(5,6,16)             120.3928         estimate D2E/DX2                !
 ! A19   A(4,7,9)              109.2874         estimate D2E/DX2                !
 ! A20   A(4,7,10)             125.4909         estimate D2E/DX2                !
 ! A21   A(9,7,10)             125.2217         estimate D2E/DX2                !
 ! A22   A(5,8,9)              107.125          estimate D2E/DX2                !
 ! A23   A(5,8,11)             127.0344         estimate D2E/DX2                !
 ! A24   A(9,8,11)             125.8405         estimate D2E/DX2                !
 ! A25   A(7,9,8)              109.5578         estimate D2E/DX2                !
 ! A26   A(7,9,12)             120.4645         estimate D2E/DX2                !
 ! A27   A(8,9,12)             129.9776         estimate D2E/DX2                !
 ! D1    D(6,1,2,3)             -0.0008         estimate D2E/DX2                !
 ! D2    D(6,1,2,13)          -179.9981         estimate D2E/DX2                !
 ! D3    D(15,1,2,3)           179.996          estimate D2E/DX2                !
 ! D4    D(15,1,2,13)           -0.0013         estimate D2E/DX2                !
 ! D5    D(2,1,6,5)             -0.0018         estimate D2E/DX2                !
 ! D6    D(2,1,6,16)           179.9965         estimate D2E/DX2                !
 ! D7    D(15,1,6,5)          -179.9986         estimate D2E/DX2                !
 ! D8    D(15,1,6,16)           -0.0003         estimate D2E/DX2                !
 ! D9    D(1,2,3,4)              0.002          estimate D2E/DX2                !
 ! D10   D(1,2,3,14)          -179.9968         estimate D2E/DX2                !
 ! D11   D(13,2,3,4)           179.9992         estimate D2E/DX2                !
 ! D12   D(13,2,3,14)            0.0005         estimate D2E/DX2                !
 ! D13   D(2,3,4,5)             -0.0005         estimate D2E/DX2                !
 ! D14   D(2,3,4,7)           -179.9911         estimate D2E/DX2                !
 ! D15   D(14,3,4,5)           179.9982         estimate D2E/DX2                !
 ! D16   D(14,3,4,7)             0.0076         estimate D2E/DX2                !
 ! D17   D(3,4,5,6)             -0.002          estimate D2E/DX2                !
 ! D18   D(3,4,5,8)           -179.9955         estimate D2E/DX2                !
 ! D19   D(7,4,5,6)            179.9905         estimate D2E/DX2                !
 ! D20   D(7,4,5,8)             -0.003          estimate D2E/DX2                !
 ! D21   D(3,4,7,9)           -179.98           estimate D2E/DX2                !
 ! D22   D(3,4,7,10)            -0.0649         estimate D2E/DX2                !
 ! D23   D(5,4,7,9)              0.0284         estimate D2E/DX2                !
 ! D24   D(5,4,7,10)           179.9434         estimate D2E/DX2                !
 ! D25   D(4,5,6,1)              0.0031         estimate D2E/DX2                !
 ! D26   D(4,5,6,16)          -179.9951         estimate D2E/DX2                !
 ! D27   D(8,5,6,1)            179.9944         estimate D2E/DX2                !
 ! D28   D(8,5,6,16)            -0.0038         estimate D2E/DX2                !
 ! D29   D(4,5,8,9)             -0.0234         estimate D2E/DX2                !
 ! D30   D(4,5,8,11)           179.9883         estimate D2E/DX2                !
 ! D31   D(6,5,8,9)            179.9846         estimate D2E/DX2                !
 ! D32   D(6,5,8,11)            -0.0037         estimate D2E/DX2                !
 ! D33   D(4,7,9,8)             -0.0444         estimate D2E/DX2                !
 ! D34   D(4,7,9,12)           179.9847         estimate D2E/DX2                !
 ! D35   D(10,7,9,8)          -179.9597         estimate D2E/DX2                !
 ! D36   D(10,7,9,12)            0.0693         estimate D2E/DX2                !
 ! D37   D(5,8,9,7)              0.0414         estimate D2E/DX2                !
 ! D38   D(5,8,9,12)          -179.9913         estimate D2E/DX2                !
 ! D39   D(11,8,9,7)          -179.9702         estimate D2E/DX2                !
 ! D40   D(11,8,9,12)           -0.0029         estimate D2E/DX2                !
 --------------------------------------------------------------------------------
 Trust Radius=3.00D-01 FncErr=1.00D-07 GrdErr=1.00D-06 EigMax=2.50D+02 EigMin=1.00D-04
 Number of steps in this run=     94 maximum allowed number of steps=    100.
 GradGradGradGradGradGradGradGradGradGradGradGradGradGradGradGradGradGrad

                          Input orientation:                          
 ---------------------------------------------------------------------
 Center     Atomic      Atomic             Coordinates (Angstroms)
 Number     Number       Type             X           Y           Z
 ---------------------------------------------------------------------
      1          6           0       -2.151063    0.689208    0.000088
      2          6           0       -2.127927   -0.715818    0.000075
      3          6           0       -0.932297   -1.413100   -0.000011
      4          6           0        0.246911   -0.670201   -0.000042
      5          6           0        0.248193    0.748299    0.000000
      6          6           0       -0.979474    1.423526    0.000032
      7          7           0        1.561774   -1.077592   -0.000285
      8          6           0        1.620133    1.162900   -0.000157
      9          6           0        2.382013    0.030806    0.000248
     10          1           0        1.876315   -2.030011    0.000438
     11          1           0        1.992173    2.173010   -0.000348
     12          1           0        3.452549   -0.082425    0.000408
     13          1           0       -3.061594   -1.262020    0.000088
     14          1           0       -0.917252   -2.495342   -0.000073
     15          1           0       -3.104203    1.200785    0.000090
     16          1           0       -1.009348    2.505421   -0.000015
 ---------------------------------------------------------------------
                    Distance matrix (angstroms):
                    1          2          3          4          5
     1  C    0.000000
     2  C    1.405216   0.000000
     3  C    2.430039   1.384100   0.000000
     4  C    2.756496   2.375276   1.393711   0.000000
     5  C    2.399984   2.790983   2.462763   1.418501   0.000000
     6  C    1.382694   2.428114   2.837018   2.426461   1.401106
     7  N    4.111781   3.707395   2.516536   1.376529   2.249305
     8  C    3.800829   4.192557   3.626386   2.290414   1.433218
     9  C    4.580641   4.571324   3.615178   2.247236   2.251218
    10  H    4.859416   4.214387   2.875566   2.122273   3.220216
    11  H    4.400917   5.031953   4.627387   3.336134   2.251948
    12  H    5.656491   5.616307   4.582311   3.259079   3.310287
    13  H    2.153220   1.081698   2.134650   3.361020   3.872476
    14  H    3.415208   2.152310   1.082347   2.164813   3.446661
    15  H    1.081752   2.150926   3.398466   3.838040   3.382795
    16  H    2.145261   3.409927   3.919278   3.415079   2.160761
                    6          7          8          9         10
     6  C    0.000000
     7  N    3.565604   0.000000
     8  C    2.612639   2.241252   0.000000
     9  C    3.638580   1.378890   1.364587   0.000000
    10  H    4.481345   1.003015   3.203172   2.121956   0.000000
    11  H    3.064704   3.278972   1.076446   2.177387   4.204618
    12  H    4.680888   2.136677   2.215532   1.076508   2.505515
    13  H    3.398144   4.627045   5.272457   5.595021   4.997275
    14  H    3.919362   2.855798   4.452085   4.155307   2.832058
    15  H    2.136372   5.192528   4.724488   5.609583   5.936632
    16  H    1.082307   4.410062   2.952378   4.198220   5.375611
                   11         12         13         14         15
    11  H    0.000000
    12  H    2.686947   0.000000
    13  H    6.110646   6.620083   0.000000
    14  H    5.500751   4.991726   2.473719   0.000000
    15  H    5.188282   6.681139   2.463174   4.294661   0.000000
    16  H    3.019872   5.158049   4.290143   5.001611   2.467892
                   16
    16  H    0.000000
 Stoichiometry    C8H7N
 Framework group  C1[X(C8H7N)]
 Deg. of freedom    42
 Full point group                 C1      NOp   1
 Largest Abelian subgroup         C1      NOp   1
 Largest concise Abelian subgroup C1      NOp   1
                         Standard orientation:                         
 ---------------------------------------------------------------------
 Center     Atomic      Atomic             Coordinates (Angstroms)
 Number     Number       Type             X           Y           Z
 ---------------------------------------------------------------------
      1          6           0       -2.151063    0.689208    0.000088
      2          6           0       -2.127927   -0.715818    0.000075
      3          6           0       -0.932297   -1.413100   -0.000011
      4          6           0        0.246911   -0.670201   -0.000042
      5          6           0        0.248193    0.748299    0.000000
      6          6           0       -0.979474    1.423526    0.000032
      7          7           0        1.561774   -1.077592   -0.000285
      8          6           0        1.620133    1.162900   -0.000157
      9          6           0        2.382013    0.030806    0.000248
     10          1           0        1.876315   -2.030011    0.000438
     11          1           0        1.992173    2.173010   -0.000348
     12          1           0        3.452549   -0.082425    0.000408
     13          1           0       -3.061594   -1.262020    0.000088
     14          1           0       -0.917252   -2.495342   -0.000073
     15          1           0       -3.104203    1.200785    0.000090
     16          1           0       -1.009348    2.505421   -0.000015
 ---------------------------------------------------------------------
 Rotational constants (GHZ):           3.9080822           1.6429452           1.1566805
 Standard basis: 6-31+G(d) (6D, 7F)
 There are   185 symmetry adapted cartesian basis functions of A   symmetry.
 There are   185 symmetry adapted basis functions of A   symmetry.
   185 basis functions,   316 primitive gaussians,   185 cartesian basis functions
    31 alpha electrons       31 beta electrons
       nuclear repulsion energy       401.3368668897 Hartrees.
 NAtoms=   16 NActive=   16 NUniq=   16 SFac= 1.00D+00 NAtFMM=   60 NAOKFM=F Big=F
 Integral buffers will be    131072 words long.
 Regular integral format.
 Two-electron integral symmetry is turned on.
 One-electron integrals computed using PRISM.
 NBasis=   185 RedAO= T EigKep=  1.26D-06  NBF=   185
 NBsUse=   185 1.00D-06 EigRej= -1.00D+00 NBFU=   185
 ExpMin= 4.38D-02 ExpMax= 4.17D+03 ExpMxC= 6.27D+02 IAcc=3 IRadAn=         5 AccDes= 0.00D+00
 Harris functional with IExCor= 5547 and IRadAn=       5 diagonalized for initial guess.
 HarFok:  IExCor= 5547 AccDes= 0.00D+00 IRadAn=         5 IDoV= 1 UseB2=F ITyADJ=14
 ICtDFT=  3500011 ScaDFX=  1.000000  1.000000  1.000000  1.000000
 FoFCou: FMM=F IPFlag=           0 FMFlag=      100000 FMFlg1=           0
         NFxFlg=           0 DoJE=T BraDBF=F KetDBF=T FulRan=T
         wScrn=  0.000000 ICntrl=       500 IOpCl=  0 I1Cent=   200000004 NGrid=           0
         NMat0=    1 NMatS0=      1 NMatT0=    0 NMatD0=    1 NMtDS0=    0 NMtDT0=    0
 Petite list used in FoFCou.
 Keep R1 ints in memory in canonical form, NReq=303303409.
 Requested convergence on RMS density matrix=1.00D-08 within 128 cycles.
 Requested convergence on MAX density matrix=1.00D-06.
 Requested convergence on             energy=1.00D-06.
 No special actions if energy rises.
 SCF Done:  E(RN12SX) =  -363.666126635     A.U. after   15 cycles
            NFock= 15  Conv=0.54D-08     -V/T= 2.0107
 DoSCS=F DFT=T ScalE2(SS,OS)=  1.000000  1.000000
 ExpMin= 4.38D-02 ExpMax= 4.17D+03 ExpMxC= 6.27D+02 IAcc=3 IRadAn=         5 AccDes= 0.00D+00
 HarFok:  IExCor=  205 AccDes= 0.00D+00 IRadAn=         5 IDoV=-2 UseB2=F ITyADJ=14
 ICtDFT= 12500011 ScaDFX=  1.000000  1.000000  1.000000  1.000000
 Range of M.O.s used for correlation:    10   185
 NBasis=   185 NAE=    31 NBE=    31 NFC=     9 NFV=     0
 NROrb=    176 NOA=    22 NOB=    22 NVA=   154 NVB=   154

 **** Warning!!: The largest alpha MO coefficient is  0.17800257D+03

 Orbital symmetries:
       Occupied  (A) (A) (A) (A) (A) (A) (A) (A) (A) (A) (A) (A)
                 (A) (A) (A) (A) (A) (A) (A) (A) (A) (A) (A) (A)
                 (A) (A) (A) (A) (A) (A) (A)
       Virtual   (A) (A) (A) (A) (A) (A) (A) (A) (A) (A) (A) (A)
                 (A) (A) (A) (A) (A) (A) (A) (A) (A) (A) (A) (A)
                 (A) (A) (A) (A) (A) (A) (A) (A) (A) (A) (A) (A)
                 (A) (A) (A) (A) (A) (A) (A) (A) (A) (A) (A) (A)
                 (A) (A) (A) (A) (A) (A) (A) (A) (A) (A) (A) (A)
                 (A) (A) (A) (A) (A) (A) (A) (A) (A) (A) (A) (A)
                 (A) (A) (A) (A) (A) (A) (A) (A) (A) (A) (A) (A)
                 (A) (A) (A) (A) (A) (A) (A) (A) (A) (A) (A) (A)
                 (A) (A) (A) (A) (A) (A) (A) (A) (A) (A) (A) (A)
                 (A) (A) (A) (A) (A) (A) (A) (A) (A) (A) (A) (A)
                 (A) (A) (A) (A) (A) (A) (A) (A) (A) (A) (A) (A)
                 (A) (A) (A) (A) (A) (A) (A) (A) (A) (A) (A) (A)
                 (A) (A) (A) (A) (A) (A) (A) (A) (A) (A)
    24 initial guesses have been made.
 Convergence on wavefunction:    0.000001000000000
 Iteration     1 Dimension    24 NMult     0 NNew     24
 CISAX will form    24 AO SS matrices at one time.
 New state      1 was old state      2
 New state      2 was old state      3
 New state      3 was old state      1
 Iteration     2 Dimension    36 NMult    24 NNew     12
 New state      1 was old state      3
 New state      2 was old state      1
 New state      3 was old state      2
 Iteration     3 Dimension    48 NMult    36 NNew     12
 Iteration     4 Dimension    60 NMult    48 NNew     12
 Iteration     5 Dimension    72 NMult    60 NNew     12
 Iteration     6 Dimension    84 NMult    72 NNew     12
 Iteration     7 Dimension    96 NMult    84 NNew     12
 Iteration     8 Dimension   108 NMult    96 NNew     12
 Iteration     9 Dimension   120 NMult   108 NNew     12
 Iteration    10 Dimension   128 NMult   120 NNew      8
 Iteration    11 Dimension   132 NMult   128 NNew      4
 Iteration    12 Dimension   134 NMult   132 NNew      2
 ***********************************************************************
 Excited states from <AA,BB:AA,BB> singles matrix:
 ***********************************************************************
 
 Ground to excited state transition densities written to RWF  633
 Ground to excited state transition electric dipole moments (Au):
       state          X           Y           Z        Dip. S.      Osc.
         1        -0.5721      0.6212     -0.0006      0.7132      0.0844
         2         0.0024     -0.0030     -0.1119      0.0125      0.0015
         3        -0.5420     -0.1162     -0.0000      0.3072      0.0374
         4        -0.0002      0.0002     -0.1250      0.0156      0.0020
         5         0.0002     -0.0000      0.0052      0.0000      0.0000
         6         0.0003      0.0001      0.0784      0.0062      0.0008
 Ground to excited state transition velocity dipole moments (Au):
       state          X           Y           Z        Dip. S.      Osc.
         1         0.0929     -0.1186      0.0001      0.0227      0.0853
         2        -0.0004      0.0006      0.0109      0.0001      0.0004
         3         0.0936      0.0220      0.0000      0.0092      0.0337
         4         0.0001     -0.0000      0.0264      0.0007      0.0024
         5        -0.0000      0.0000      0.0004      0.0000      0.0000
         6        -0.0001     -0.0000     -0.0154      0.0002      0.0008
 Ground to excited state transition magnetic dipole moments (Au):
       state          X           Y           Z
         1         0.0008     -0.0002      0.1718
         2         0.1213     -0.0509     -0.0006
         3        -0.0002     -0.0002     -0.0340
         4         0.0247     -0.2090      0.0000
         5         0.2406     -0.1398      0.0001
         6         0.1122      0.2755      0.0003
 Ground to excited state transition velocity quadrupole moments (Au):
       state          XX          YY          ZZ          XY          XZ          YZ
         1         0.2022     -0.1167      0.0113      0.0418      0.0003      0.0003
         2        -0.0010      0.0005      0.0000     -0.0001      0.0492      0.0503
         3         0.0742     -0.1109      0.0244     -0.0011      0.0001     -0.0001
         4        -0.0000      0.0001     -0.0000     -0.0000      0.1443     -0.0276
         5        -0.0002     -0.0001      0.0000      0.0001      0.1636      0.2095
         6         0.0001     -0.0001      0.0001      0.0001     -0.2332      0.0260
 <0|del|b> * <b|rxdel|0> + <0|del|b> * <b|delr+rdel|0>
 Rotatory Strengths (R) in cgs (10**-40 erg-esu-cm/Gauss)
       state          XX          YY          ZZ    R(velocity)    E-M Angle
         1         0.1445      0.2049      0.0773      0.1422       89.76
         2        -0.1338     -0.1413     -0.0561     -0.1104       90.00
         3        -0.0117     -0.0452     -0.0173     -0.0247       90.00
         4         0.0242      0.0010      0.0098      0.0117       90.00
         5        -0.0040     -0.0353     -0.0021     -0.0138       90.00
         6        -0.0206     -0.0179     -0.0089     -0.0158       90.00
 1/2[<0|r|b>*<b|rxdel|0> + (<0|rxdel|b>*<b|r|0>)*]
 Rotatory Strengths (R) in cgs (10**-40 erg-esu-cm/Gauss)
       state          XX          YY          ZZ     R(length)
         1         0.3056      0.1001      0.0703      0.1587
         2        -0.2076     -0.1098     -0.0499     -0.1224
         3        -0.0607     -0.0146     -0.0007     -0.0253
         4         0.0043      0.0259      0.0011      0.0104
         5        -0.0396     -0.0042     -0.0004     -0.0147
         6        -0.0237     -0.0230     -0.0169     -0.0212
  1/2[<0|del|b>*<b|r|0> + (<0|r|b>*<b|del|0>)*] (Au)
       state          X           Y           Z        Dip. S.   Osc.(frdel)
         1        -0.0532     -0.0737     -0.0000      0.1269      0.0846
         2        -0.0000     -0.0000     -0.0012      0.0012      0.0008
         3        -0.0507     -0.0026     -0.0000      0.0533      0.0355
         4        -0.0000     -0.0000     -0.0033      0.0033      0.0022
         5        -0.0000     -0.0000      0.0000     -0.0000     -0.0000
         6        -0.0000     -0.0000     -0.0012      0.0012      0.0008

 Excitation energies and oscillator strengths:
 
 Excited State   1:      Singlet-A      4.8288 eV  256.76 nm  f=0.0844  <S**2>=0.000
      30 -> 32        -0.13176
      30 -> 36         0.15970
      31 -> 32         0.66329
 This state for optimization and/or second-order correction.
 Total Energy, E(TD-HF/TD-DFT) =  -363.488671431    
 Copying the excited state density for this state as the 1-particle RhoCI density.
 
 Excited State   2:      Singlet-A      4.8736 eV  254.40 nm  f=0.0015  <S**2>=0.000
      31 -> 33         0.70484
 
 Excited State   3:      Singlet-A      4.9714 eV  249.39 nm  f=0.0374  <S**2>=0.000
      30 -> 32         0.56622
      31 -> 32         0.10952
      31 -> 36        -0.39861
 
 Excited State   4:      Singlet-A      5.3489 eV  231.79 nm  f=0.0020  <S**2>=0.000
      30 -> 33         0.69650
 
 Excited State   5:      Singlet-A      5.4469 eV  227.62 nm  f=0.0000  <S**2>=0.000
      30 -> 33        -0.10066
      31 -> 34         0.69713
 
 Excited State   6:      Singlet-A      5.5640 eV  222.83 nm  f=0.0008  <S**2>=0.000
      31 -> 35         0.70274
 SavETr:  write IOETrn=   770 NScale= 10 NData=  16 NLR=1 NState=    6 LETran=     118.
          IDoAtm=1111111111111111
          Differentiating once with respect to electric field.
                with respect to dipole field.
          Differentiating once with respect to nuclear coordinates.
 Keep R1 ints in memory in canonical form, NReq=303315801.
          There are     1 degrees of freedom in the 1st order CPHF.  IDoFFX=0 NUNeed=     1.
 LinEq1:  Iter=  0 NonCon=     1 RMS=1.20D-02 Max=3.50D-01 NDo=     1
 AX will form     1 AO Fock derivatives at one time.
 LinEq1:  Iter=  1 NonCon=     1 RMS=5.20D-03 Max=1.17D-01 NDo=     1
 LinEq1:  Iter=  2 NonCon=     1 RMS=4.41D-03 Max=1.29D-01 NDo=     1
 LinEq1:  Iter=  3 NonCon=     1 RMS=1.77D-03 Max=4.96D-02 NDo=     1
 LinEq1:  Iter=  4 NonCon=     1 RMS=1.41D-03 Max=5.17D-02 NDo=     1
 LinEq1:  Iter=  5 NonCon=     1 RMS=6.94D-04 Max=1.35D-02 NDo=     1
 LinEq1:  Iter=  6 NonCon=     1 RMS=3.92D-04 Max=9.87D-03 NDo=     1
 LinEq1:  Iter=  7 NonCon=     1 RMS=2.42D-04 Max=5.65D-03 NDo=     1
 LinEq1:  Iter=  8 NonCon=     1 RMS=1.20D-04 Max=1.82D-03 NDo=     1
 LinEq1:  Iter=  9 NonCon=     1 RMS=7.04D-05 Max=1.66D-03 NDo=     1
 LinEq1:  Iter= 10 NonCon=     1 RMS=2.68D-05 Max=5.63D-04 NDo=     1
 LinEq1:  Iter= 11 NonCon=     1 RMS=1.68D-05 Max=3.59D-04 NDo=     1
 LinEq1:  Iter= 12 NonCon=     1 RMS=6.37D-06 Max=8.75D-05 NDo=     1
 LinEq1:  Iter= 13 NonCon=     1 RMS=2.45D-06 Max=6.52D-05 NDo=     1
 LinEq1:  Iter= 14 NonCon=     1 RMS=1.20D-06 Max=2.16D-05 NDo=     1
 LinEq1:  Iter= 15 NonCon=     1 RMS=2.15D-07 Max=3.55D-06 NDo=     1
 LinEq1:  Iter= 16 NonCon=     1 RMS=7.26D-08 Max=1.36D-06 NDo=     1
 LinEq1:  Iter= 17 NonCon=     1 RMS=3.94D-08 Max=8.19D-07 NDo=     1
 LinEq1:  Iter= 18 NonCon=     1 RMS=1.27D-08 Max=3.12D-07 NDo=     1
 LinEq1:  Iter= 19 NonCon=     1 RMS=2.51D-09 Max=2.79D-08 NDo=     1
 LinEq1:  Iter= 20 NonCon=     1 RMS=8.83D-10 Max=7.67D-09 NDo=     1
 LinEq1:  Iter= 21 NonCon=     1 RMS=1.53D-10 Max=2.41D-09 NDo=     1
 LinEq1:  Iter= 22 NonCon=     0 RMS=2.27D-11 Max=2.22D-10 NDo=     1
 Linear equations converged to 1.000D-10 1.000D-09 after    22 iterations.
 End of Minotr F.D. properties file   721 does not exist.
 End of Minotr F.D. properties file   722 does not exist.
 End of Minotr F.D. properties file   788 does not exist.

 **********************************************************************

            Population analysis using the CI Density.

 **********************************************************************

 Orbital symmetries:
       Occupied  (A) (A) (A) (A) (A) (A) (A) (A) (A) (A) (A) (A)
                 (A) (A) (A) (A) (A) (A) (A) (A) (A) (A) (A) (A)
                 (A) (A) (A) (A) (A) (A) (A)
       Virtual   (A) (A) (A) (A) (A) (A) (A) (A) (A) (A) (A) (A)
                 (A) (A) (A) (A) (A) (A) (A) (A) (A) (A) (A) (A)
                 (A) (A) (A) (A) (A) (A) (A) (A) (A) (A) (A) (A)
                 (A) (A) (A) (A) (A) (A) (A) (A) (A) (A) (A) (A)
                 (A) (A) (A) (A) (A) (A) (A) (A) (A) (A) (A) (A)
                 (A) (A) (A) (A) (A) (A) (A) (A) (A) (A) (A) (A)
                 (A) (A) (A) (A) (A) (A) (A) (A) (A) (A) (A) (A)
                 (A) (A) (A) (A) (A) (A) (A) (A) (A) (A) (A) (A)
                 (A) (A) (A) (A) (A) (A) (A) (A) (A) (A) (A) (A)
                 (A) (A) (A) (A) (A) (A) (A) (A) (A) (A) (A) (A)
                 (A) (A) (A) (A) (A) (A) (A) (A) (A) (A) (A) (A)
                 (A) (A) (A) (A) (A) (A) (A) (A) (A) (A) (A) (A)
                 (A) (A) (A) (A) (A) (A) (A) (A) (A) (A)
 The electronic state is 1-A.
 Alpha  occ. eigenvalues --  -14.43710 -10.27351 -10.27179 -10.24108 -10.23749
 Alpha  occ. eigenvalues --  -10.23587 -10.23582 -10.23079 -10.22844  -0.98260
 Alpha  occ. eigenvalues --   -0.84183  -0.78408  -0.73606  -0.71775  -0.62474
 Alpha  occ. eigenvalues --   -0.59440  -0.58132  -0.53988  -0.48116  -0.46969
 Alpha  occ. eigenvalues --   -0.43585  -0.42754  -0.42060  -0.40937  -0.38949
 Alpha  occ. eigenvalues --   -0.35230  -0.33167  -0.33118  -0.27495  -0.21828
 Alpha  occ. eigenvalues --   -0.20151
 Alpha virt. eigenvalues --   -0.02348  -0.01191   0.00704   0.01222   0.01276
 Alpha virt. eigenvalues --    0.02673   0.02793   0.03949   0.05117   0.05374
 Alpha virt. eigenvalues --    0.05546   0.05859   0.07974   0.08253   0.09552
 Alpha virt. eigenvalues --    0.09741   0.10674   0.11937   0.12851   0.13323
 Alpha virt. eigenvalues --    0.14543   0.14855   0.15758   0.15932   0.16479
 Alpha virt. eigenvalues --    0.17307   0.18138   0.18205   0.18964   0.19173
 Alpha virt. eigenvalues --    0.19594   0.19707   0.21115   0.21901   0.22408
 Alpha virt. eigenvalues --    0.22828   0.23152   0.23867   0.25144   0.25375
 Alpha virt. eigenvalues --    0.26389   0.26429   0.27299   0.29236   0.29937
 Alpha virt. eigenvalues --    0.30746   0.31351   0.32981   0.34947   0.36414
 Alpha virt. eigenvalues --    0.37603   0.39653   0.43364   0.44833   0.51378
 Alpha virt. eigenvalues --    0.58024   0.62595   0.67512   0.67524   0.69927
 Alpha virt. eigenvalues --    0.71570   0.72110   0.73133   0.73700   0.74077
 Alpha virt. eigenvalues --    0.75355   0.75536   0.77822   0.79239   0.79893
 Alpha virt. eigenvalues --    0.81472   0.85401   0.89161   0.89776   0.90989
 Alpha virt. eigenvalues --    0.93357   0.93963   0.95101   0.95446   0.98193
 Alpha virt. eigenvalues --    1.00013   1.03121   1.05013   1.06150   1.10055
 Alpha virt. eigenvalues --    1.11904   1.12132   1.17552   1.18508   1.21149
 Alpha virt. eigenvalues --    1.22828   1.23940   1.25751   1.32079   1.32722
 Alpha virt. eigenvalues --    1.34571   1.37438   1.42046   1.42196   1.45338
 Alpha virt. eigenvalues --    1.46663   1.47074   1.50232   1.50885   1.53975
 Alpha virt. eigenvalues --    1.59274   1.65637   1.79465   1.85345   1.89401
 Alpha virt. eigenvalues --    1.90064   1.93027   1.94937   2.00262   2.00808
 Alpha virt. eigenvalues --    2.01417   2.07473   2.10998   2.15031   2.18251
 Alpha virt. eigenvalues --    2.18275   2.20780   2.25967   2.26963   2.27509
 Alpha virt. eigenvalues --    2.29402   2.32388   2.39150   2.42066   2.45580
 Alpha virt. eigenvalues --    2.56013   2.57112   2.64506   2.66718   2.68200
 Alpha virt. eigenvalues --    2.71029   2.74618   2.82089   2.85740   2.86932
 Alpha virt. eigenvalues --    2.96940   2.98967   3.13074   3.25576   3.46477
 Alpha virt. eigenvalues --    4.15625   4.27598   4.30430   4.33914   4.37506
 Alpha virt. eigenvalues --    4.40858   4.49318   4.53263   4.80176
          Condensed to atoms (all electrons):
               1          2          3          4          5          6
     1  C    5.756915   0.471949   0.231744  -0.832314   0.184317  -0.300696
     2  C    0.471949   6.248789  -0.473346   0.571404  -0.951869   0.690378
     3  C    0.231744  -0.473346  15.256114  -3.103825  -4.347357  -3.348868
     4  C   -0.832314   0.571404  -3.103825  14.567965  -3.997627  -0.609004
     5  C    0.184317  -0.951869  -4.347357  -3.997627  16.758064  -0.898497
     6  C   -0.300696   0.690378  -3.348868  -0.609004  -0.898497  14.192157
     7  N   -0.019943   0.004254  -0.607365  -0.514802   1.067949   0.175486
     8  C    0.186889  -0.376954   3.991709   1.491912  -5.797267  -4.246295
     9  C   -0.102787   0.042186  -1.454446  -0.453138   2.050147   1.141618
    10  H   -0.001470  -0.010684  -0.130768  -0.061429   0.164789   0.023197
    11  H    0.003177   0.001013   0.001771   0.013578   0.002066   0.011077
    12  H    0.001157   0.000395   0.036388   0.105136  -0.110283  -0.025340
    13  H    0.020385   0.252875  -0.004767   0.019451   0.005351   0.007371
    14  H    0.011781   0.058350   0.151518   0.078472   0.010570  -0.017773
    15  H    0.264144   0.011843   0.029185  -0.027140   0.036426  -0.021892
    16  H    0.038288   0.012090  -0.033549   0.022706   0.109421   0.179511
               7          8          9         10         11         12
     1  C   -0.019943   0.186889  -0.102787  -0.001470   0.003177   0.001157
     2  C    0.004254  -0.376954   0.042186  -0.010684   0.001013   0.000395
     3  C   -0.607365   3.991709  -1.454446  -0.130768   0.001771   0.036388
     4  C   -0.514802   1.491912  -0.453138  -0.061429   0.013578   0.105136
     5  C    1.067949  -5.797267   2.050147   0.164789   0.002066  -0.110283
     6  C    0.175486  -4.246295   1.141618   0.023197   0.011077  -0.025340
     7  N    7.229332  -0.802112   0.626575   0.263252   0.005975  -0.056381
     8  C   -0.802112  13.745061  -2.697365   0.011910   0.275750   0.054500
     9  C    0.626575  -2.697365   6.921941  -0.035384  -0.020791   0.302551
    10  H    0.263252   0.011910  -0.035384   0.339634  -0.000072  -0.002272
    11  H    0.005975   0.275750  -0.020791  -0.000072   0.472361  -0.000730
    12  H   -0.056381   0.054500   0.302551  -0.002272  -0.000730   0.469806
    13  H   -0.000548  -0.000496   0.001415  -0.000002   0.000000  -0.000000
    14  H   -0.009129  -0.009678   0.010187   0.002269   0.000002   0.000003
    15  H    0.000319   0.008191  -0.000308  -0.000000  -0.000002  -0.000000
    16  H   -0.000962  -0.047658   0.005319   0.000005   0.001484  -0.000001
              13         14         15         16
     1  C    0.020385   0.011781   0.264144   0.038288
     2  C    0.252875   0.058350   0.011843   0.012090
     3  C   -0.004767   0.151518   0.029185  -0.033549
     4  C    0.019451   0.078472  -0.027140   0.022706
     5  C    0.005351   0.010570   0.036426   0.109421
     6  C    0.007371  -0.017773  -0.021892   0.179511
     7  N   -0.000548  -0.009129   0.000319  -0.000962
     8  C   -0.000496  -0.009678   0.008191  -0.047658
     9  C    0.001415   0.010187  -0.000308   0.005319
    10  H   -0.000002   0.002269  -0.000000   0.000005
    11  H    0.000000   0.000002  -0.000002   0.001484
    12  H   -0.000000   0.000003  -0.000000  -0.000001
    13  H    0.518096  -0.004547  -0.004445  -0.000160
    14  H   -0.004547   0.529342  -0.000161   0.000019
    15  H   -0.004445  -0.000161   0.518060  -0.004407
    16  H   -0.000160   0.000019  -0.004407   0.524279
 Mulliken charges:
               1
     1  C    0.086466
     2  C   -0.552673
     3  C   -0.194138
     4  C   -1.271346
     5  C    1.713799
     6  C   -0.952431
     7  N   -0.361898
     8  C    0.211901
     9  C   -0.337720
    10  H    0.437026
    11  H    0.233342
    12  H    0.225071
    13  H    0.190021
    14  H    0.188776
    15  H    0.190187
    16  H    0.193617
 Sum of Mulliken charges =  -0.00000
 Mulliken charges with hydrogens summed into heavy atoms:
               1
     1  C    0.276653
     2  C   -0.362653
     3  C   -0.005362
     4  C   -1.271346
     5  C    1.713799
     6  C   -0.758814
     7  N    0.075129
     8  C    0.445243
     9  C   -0.112649
 Electronic spatial extent (au):  <R**2>=           1006.9135
 Charge=             -0.0000 electrons
 Dipole moment (field-independent basis, Debye):
    X=              3.9293    Y=             -1.1195    Z=             -0.0109  Tot=              4.0857
 Quadrupole moment (field-independent basis, Debye-Ang):
   XX=            -45.6257   YY=            -45.3120   ZZ=            -60.0077
   XY=             -2.5182   XZ=             -0.0238   YZ=              0.0163
 Traceless Quadrupole moment (field-independent basis, Debye-Ang):
   XX=              4.6894   YY=              5.0031   ZZ=             -9.6925
   XY=             -2.5182   XZ=             -0.0238   YZ=              0.0163
 Octapole moment (field-independent basis, Debye-Ang**2):
  XXX=             23.4884  YYY=             -8.7117  ZZZ=             -0.0788  XYY=             15.5755
  XXY=             -5.4178  XXZ=             -0.0796  XZZ=              4.3964  YZZ=             -0.7091
  YYZ=             -0.0719  XYZ=              0.0240
 Hexadecapole moment (field-independent basis, Debye-Ang**3):
 XXXX=           -846.1893 YYYY=           -387.0906 ZZZZ=            -86.6139 XXXY=            -18.6313
 XXXZ=             -0.3838 YYYX=            -15.4104 YYYZ=              0.1625 ZZZX=             -0.1478
 ZZZY=              0.1151 XXYY=           -191.4707 XXZZ=           -199.9083 YYZZ=           -102.1036
 XXYZ=              0.0780 YYXZ=             -0.0531 ZZXY=             -1.8163
 N-N= 4.013368668897D+02 E-N=-1.644725461741D+03  KE= 3.599528378368D+02
 Calling FoFJK, ICntrl=  10005127 FMM=F ISym2X=0 I1Cent= 0 IOpClX= 0 NMat=1 NMatS=1 NMatT=0.
 ***** Axes restored to original set *****
 -------------------------------------------------------------------
 Center     Atomic                   Forces (Hartrees/Bohr)
 Number     Number              X              Y              Z
 -------------------------------------------------------------------
      1        6          -0.024778990   -0.036423639   -0.000003385
      2        6          -0.040438852    0.041142996   -0.000000799
      3        6           0.037872615   -0.032206493    0.000033394
      4        6          -0.011812773    0.018872374   -0.000029707
      5        6           0.013731720   -0.018532911   -0.000015689
      6        6           0.011496821    0.033127739    0.000017424
      7        7           0.013577299    0.027161506    0.000018723
      8        6          -0.036504884    0.019777885    0.000006730
      9        6           0.034343885   -0.051584867   -0.000017367
     10        1           0.001439151   -0.002008128    0.000014688
     11        1           0.000666520    0.000507165    0.000001521
     12        1          -0.000204029   -0.000342735   -0.000001080
     13        1          -0.000216215    0.000634461   -0.000002593
     14        1           0.000621563    0.000113345   -0.000016229
     15        1          -0.000078095   -0.000219166   -0.000001019
     16        1           0.000284264   -0.000019531   -0.000004614
 -------------------------------------------------------------------
 Cartesian Forces:  Max     0.051584867 RMS     0.018535999

 GradGradGradGradGradGradGradGradGradGradGradGradGradGradGradGradGradGrad
 Berny optimization.
 FormGI is forming the generalized inverse of G from B-inverse, IUseBI=4.
 Internal  Forces:  Max     0.046788261 RMS     0.009196052
 Search for a local minimum.
 Step number   1 out of a maximum of   94
 All quantities printed in internal units (Hartrees-Bohrs-Radians)
 Mixed Optimization -- RFO/linear search
 Second derivative matrix not updated -- first step.
 ITU=  0
     Eigenvalues ---    0.01853   0.01931   0.01986   0.02012   0.02070
     Eigenvalues ---    0.02113   0.02148   0.02153   0.02172   0.02209
     Eigenvalues ---    0.02233   0.02248   0.02338   0.16000   0.16000
     Eigenvalues ---    0.16000   0.16000   0.16000   0.16000   0.16000
     Eigenvalues ---    0.22000   0.22188   0.22662   0.24011   0.24651
     Eigenvalues ---    0.35712   0.35717   0.35783   0.35790   0.36420
     Eigenvalues ---    0.36427   0.37009   0.38432   0.42633   0.43465
     Eigenvalues ---    0.45769   0.46692   0.47162   0.47468   0.47567
     Eigenvalues ---    0.48125   0.50955
 RFO step:  Lambda=-1.57501539D-02 EMin= 1.85287394D-02
 Linear search not attempted -- first point.
 Iteration  1 RMS(Cart)=  0.02670449 RMS(Int)=  0.00030205
 Iteration  2 RMS(Cart)=  0.00035934 RMS(Int)=  0.00013582
 Iteration  3 RMS(Cart)=  0.00000007 RMS(Int)=  0.00013582
 Variable       Old X    -DE/DX   Delta X   Delta X   Delta X     New X
                                 (Linear)    (Quad)   (Total)
    R1        2.65547  -0.01704   0.00000  -0.03471  -0.03469   2.62079
    R2        2.61291   0.03226   0.00000   0.06536   0.06537   2.67828
    R3        2.04421  -0.00003   0.00000  -0.00009  -0.00009   2.04412
    R4        2.61557   0.04679   0.00000   0.09460   0.09461   2.71018
    R5        2.04411  -0.00013   0.00000  -0.00036  -0.00036   2.04376
    R6        2.63373   0.00496   0.00000   0.00916   0.00915   2.64288
    R7        2.04534  -0.00010   0.00000  -0.00028  -0.00028   2.04506
    R8        2.68058  -0.00996   0.00000  -0.02825  -0.02848   2.65210
    R9        2.60126   0.01524   0.00000   0.02700   0.02725   2.62851
   R10        2.64771   0.01877   0.00000   0.03901   0.03900   2.68671
   R11        2.70839  -0.00348   0.00000  -0.00719  -0.00755   2.70084
   R12        2.04526  -0.00003   0.00000  -0.00007  -0.00007   2.04519
   R13        2.60573  -0.02122   0.00000  -0.04030  -0.03994   2.56579
   R14        1.89542   0.00236   0.00000   0.00484   0.00484   1.90026
   R15        2.57870   0.03971   0.00000   0.07755   0.07753   2.65622
   R16        2.03419   0.00071   0.00000   0.00186   0.00186   2.03605
   R17        2.03430  -0.00017   0.00000  -0.00044  -0.00044   2.03387
    A1        2.11420   0.00035   0.00000   0.00671   0.00670   2.12090
    A2        2.07986  -0.00041   0.00000  -0.00470  -0.00469   2.07516
    A3        2.08912   0.00006   0.00000  -0.00201  -0.00201   2.08712
    A4        2.11523  -0.00108   0.00000   0.00027   0.00025   2.11548
    A5        2.08365  -0.00013   0.00000  -0.00395  -0.00394   2.07971
    A6        2.08430   0.00121   0.00000   0.00368   0.00369   2.08799
    A7        2.05144  -0.00348   0.00000  -0.01615  -0.01620   2.03524
    A8        2.11267   0.00238   0.00000   0.01170   0.01173   2.12440
    A9        2.11908   0.00110   0.00000   0.00444   0.00447   2.12355
   A10        2.13389   0.00395   0.00000   0.01448   0.01440   2.14828
   A11        2.27895  -0.00610   0.00000  -0.01367  -0.01363   2.26532
   A12        1.87035   0.00215   0.00000  -0.00082  -0.00076   1.86958
   A13        2.07274   0.00497   0.00000   0.01532   0.01553   2.08827
   A14        1.86517  -0.00330   0.00000  -0.01500  -0.01552   1.84965
   A15        2.34527  -0.00167   0.00000  -0.00032  -0.00001   2.34526
   A16        2.07887  -0.00472   0.00000  -0.02064  -0.02068   2.05819
   A17        2.10306   0.00265   0.00000   0.01196   0.01198   2.11505
   A18        2.10125   0.00207   0.00000   0.00867   0.00869   2.10994
   A19        1.90743   0.01130   0.00000   0.04338   0.04389   1.95132
   A20        2.19023  -0.00495   0.00000  -0.01771  -0.01797   2.17226
   A21        2.18553  -0.00635   0.00000  -0.02567  -0.02592   2.15961
   A22        1.86968   0.00658   0.00000   0.03531   0.03495   1.90463
   A23        2.21717  -0.00284   0.00000  -0.01506  -0.01487   2.20230
   A24        2.19633  -0.00375   0.00000  -0.02026  -0.02007   2.17626
   A25        1.91215  -0.01673   0.00000  -0.06287  -0.06256   1.84959
   A26        2.10250   0.00800   0.00000   0.02934   0.02919   2.13169
   A27        2.26854   0.00873   0.00000   0.03352   0.03337   2.30191
    D1       -0.00001   0.00000   0.00000   0.00003   0.00003   0.00002
    D2       -3.14156   0.00000   0.00000   0.00005   0.00005  -3.14151
    D3        3.14152   0.00000   0.00000   0.00002   0.00002   3.14154
    D4       -0.00002   0.00000   0.00000   0.00003   0.00003   0.00001
    D5       -0.00003   0.00000   0.00000   0.00012   0.00012   0.00008
    D6        3.14153  -0.00000   0.00000  -0.00005  -0.00005   3.14148
    D7       -3.14157   0.00001   0.00000   0.00013   0.00013  -3.14144
    D8       -0.00001  -0.00000   0.00000  -0.00004  -0.00004  -0.00004
    D9        0.00003  -0.00001   0.00000  -0.00015  -0.00015  -0.00012
   D10       -3.14154   0.00000   0.00000   0.00014   0.00015  -3.14139
   D11        3.14158  -0.00001   0.00000  -0.00017  -0.00017   3.14141
   D12        0.00001   0.00000   0.00000   0.00013   0.00013   0.00014
   D13       -0.00001   0.00000   0.00000   0.00014   0.00014   0.00013
   D14       -3.14144  -0.00000   0.00000  -0.00001  -0.00001  -3.14145
   D15        3.14156  -0.00001   0.00000  -0.00016  -0.00016   3.14140
   D16        0.00013  -0.00001   0.00000  -0.00031  -0.00031  -0.00018
   D17       -0.00004   0.00000   0.00000   0.00000  -0.00000  -0.00004
   D18       -3.14151   0.00000   0.00000  -0.00004  -0.00004  -3.14156
   D19        3.14143   0.00001   0.00000   0.00012   0.00012   3.14155
   D20       -0.00005   0.00001   0.00000   0.00008   0.00008   0.00003
   D21       -3.14124   0.00000   0.00000  -0.00010  -0.00011  -3.14135
   D22       -0.00113   0.00000   0.00000   0.00000  -0.00000  -0.00114
   D23        0.00049  -0.00000   0.00000  -0.00023  -0.00024   0.00025
   D24        3.14060   0.00000   0.00000  -0.00013  -0.00014   3.14047
   D25        0.00005  -0.00001   0.00000  -0.00013  -0.00013  -0.00007
   D26       -3.14151   0.00000   0.00000   0.00004   0.00004  -3.14147
   D27        3.14150  -0.00001   0.00000  -0.00008  -0.00007   3.14142
   D28       -0.00007   0.00000   0.00000   0.00009   0.00009   0.00003
   D29       -0.00041   0.00001   0.00000   0.00012   0.00012  -0.00028
   D30        3.14139  -0.00000   0.00000  -0.00000  -0.00000   3.14139
   D31        3.14132   0.00000   0.00000   0.00007   0.00007   3.14139
   D32       -0.00006  -0.00000   0.00000  -0.00005  -0.00005  -0.00012
   D33       -0.00077   0.00002   0.00000   0.00036   0.00035  -0.00042
   D34        3.14133   0.00001   0.00000   0.00013   0.00014   3.14146
   D35       -3.14089   0.00001   0.00000   0.00025   0.00024  -3.14065
   D36        0.00121   0.00000   0.00000   0.00003   0.00003   0.00124
   D37        0.00072  -0.00001   0.00000  -0.00029  -0.00029   0.00043
   D38       -3.14144  -0.00000   0.00000  -0.00005  -0.00005  -3.14149
   D39       -3.14107  -0.00001   0.00000  -0.00017  -0.00017  -3.14124
   D40       -0.00005   0.00000   0.00000   0.00007   0.00007   0.00002
         Item               Value     Threshold  Converged?
 Maximum Force            0.046788     0.000450     NO 
 RMS     Force            0.009196     0.000300     NO 
 Maximum Displacement     0.091835     0.001800     NO 
 RMS     Displacement     0.026695     0.001200     NO 
 Predicted change in Energy=-8.173774D-03
 GradGradGradGradGradGradGradGradGradGradGradGradGradGradGradGradGradGrad

                          Input orientation:                          
 ---------------------------------------------------------------------
 Center     Atomic      Atomic             Coordinates (Angstroms)
 Number     Number       Type             X           Y           Z
 ---------------------------------------------------------------------
      1          6           0       -2.186519    0.683278    0.000089
      2          6           0       -2.158828   -0.703306    0.000049
      3          6           0       -0.917607   -1.421776    0.000071
      4          6           0        0.250973   -0.653421   -0.000016
      5          6           0        0.245146    0.749997    0.000034
      6          6           0       -0.993361    1.448181    0.000136
      7          7           0        1.581983   -1.057341   -0.000172
      8          6           0        1.617512    1.149103   -0.000135
      9          6           0        2.430610    0.002534    0.000094
     10          1           0        1.885702   -2.015952    0.000696
     11          1           0        1.985431    2.161769   -0.000327
     12          1           0        3.499867   -0.120179    0.000145
     13          1           0       -3.092569   -1.249006   -0.000062
     14          1           0       -0.886353   -2.503523   -0.000147
     15          1           0       -3.143777    1.187002    0.000020
     16          1           0       -1.021308    2.530088    0.000063
 ---------------------------------------------------------------------
                    Distance matrix (angstroms):
                    1          2          3          4          5
     1  C    0.000000
     2  C    1.386860   0.000000
     3  C    2.457924   1.434165   0.000000
     4  C    2.779952   2.410317   1.398552   0.000000
     5  C    2.432581   2.809125   2.463452   1.403431   0.000000
     6  C    1.417287   2.446877   2.870956   2.442355   1.421746
     7  N    4.151067   3.757526   2.526017   1.390949   2.248022
     8  C    3.832447   4.206205   3.610575   2.261974   1.429221
     9  C    4.667044   4.643399   3.638573   2.276202   2.309752
    10  H    4.885573   4.252207   2.865586   2.128105   3.215882
    11  H    4.426184   5.038207   4.611878   3.306606   2.240913
    12  H    5.742868   5.688661   4.605239   3.292364   3.369037
    13  H    2.134162   1.081509   2.181814   3.396173   3.890547
    14  H    3.441821   2.204535   1.082198   2.171724   3.444661
    15  H    1.081702   2.131522   3.429512   3.861539   3.416983
    16  H    2.183673   3.427651   3.953224   3.428327   2.184634
                    6          7          8          9         10
     6  C    0.000000
     7  N    3.593054   0.000000
     8  C    2.627947   2.206730   0.000000
     9  C    3.716648   1.357757   1.405613   0.000000
    10  H    4.504355   1.005575   3.176397   2.090744   0.000000
    11  H    3.063072   3.244293   1.077430   2.204649   4.178910
    12  H    4.759081   2.134608   2.270316   1.076275   2.489876
    13  H    3.417819   4.678480   5.285432   5.663202   5.037002
    14  H    3.953152   2.860791   4.428433   4.157231   2.814608
    15  H    2.166218   5.231623   4.761440   5.698838   5.962765
    16  H    1.082268   4.432467   2.978337   4.278348   5.396034
                   11         12         13         14         15
    11  H    0.000000
    12  H    2.738759   0.000000
    13  H    6.117145   6.688383   0.000000
    14  H    5.478329   4.991919   2.537953   0.000000
    15  H    5.221010   6.771021   2.436546   4.326192   0.000000
    16  H    3.029214   5.240699   4.309486   5.035420   2.511724
                   16
    16  H    0.000000
 Stoichiometry    C8H7N
 Framework group  C1[X(C8H7N)]
 Deg. of freedom    42
 Full point group                 C1      NOp   1
 Largest Abelian subgroup         C1      NOp   1
 Largest concise Abelian subgroup C1      NOp   1
                         Standard orientation:                         
 ---------------------------------------------------------------------
 Center     Atomic      Atomic             Coordinates (Angstroms)
 Number     Number       Type             X           Y           Z
 ---------------------------------------------------------------------
      1          6           0       -2.195025    0.655016    0.000072
      2          6           0       -2.150638   -0.731133    0.000031
      3          6           0       -0.900855   -1.434605    0.000053
      4          6           0        0.258387   -0.652234   -0.000034
      5          6           0        0.235661    0.751013    0.000016
      6          6           0       -1.011164    1.434232    0.000118
      7          7           0        1.594165   -1.040096   -0.000190
      8          6           0        1.603122    1.166616   -0.000153
      9          6           0        2.429967    0.029921    0.000076
     10          1           0        1.909406   -1.994980    0.000678
     11          1           0        1.958819    2.183638   -0.000345
     12          1           0        3.500624   -0.079907    0.000127
     13          1           0       -3.077740   -1.288038   -0.000080
     14          1           0       -0.856577   -2.515897   -0.000165
     15          1           0       -3.158279    1.147176    0.000002
     16          1           0       -1.052137    2.515724    0.000045
 ---------------------------------------------------------------------
 Rotational constants (GHZ):           3.9210714           1.6022375           1.1374500
 Standard basis: 6-31+G(d) (6D, 7F)
 There are   185 symmetry adapted cartesian basis functions of A   symmetry.
 There are   185 symmetry adapted basis functions of A   symmetry.
   185 basis functions,   316 primitive gaussians,   185 cartesian basis functions
    31 alpha electrons       31 beta electrons
       nuclear repulsion energy       398.7435242715 Hartrees.
 NAtoms=   16 NActive=   16 NUniq=   16 SFac= 1.00D+00 NAtFMM=   60 NAOKFM=F Big=F
 Integral buffers will be    131072 words long.
 Regular integral format.
 Two-electron integral symmetry is turned on.
 One-electron integrals computed using PRISM.
 NBasis=   185 RedAO= T EigKep=  1.28D-06  NBF=   185
 NBsUse=   185 1.00D-06 EigRej= -1.00D+00 NBFU=   185
 Initial guess from the checkpoint file:  "FuncsN12SX-V-1st.chk"
 B after Tr=     0.000000   -0.000000   -0.000000
         Rot=    0.999982    0.000002   -0.000003   -0.006006 Ang=   0.69 deg.
 ExpMin= 4.38D-02 ExpMax= 4.17D+03 ExpMxC= 6.27D+02 IAcc=3 IRadAn=         5 AccDes= 0.00D+00
 Harris functional with IExCor= 5547 and IRadAn=       5 diagonalized for initial guess.
 HarFok:  IExCor= 5547 AccDes= 0.00D+00 IRadAn=         5 IDoV= 1 UseB2=F ITyADJ=14
 ICtDFT=  3500011 ScaDFX=  1.000000  1.000000  1.000000  1.000000
 FoFCou: FMM=F IPFlag=           0 FMFlag=      100000 FMFlg1=           0
         NFxFlg=           0 DoJE=T BraDBF=F KetDBF=T FulRan=T
         wScrn=  0.000000 ICntrl=       500 IOpCl=  0 I1Cent=   200000004 NGrid=           0
         NMat0=    1 NMatS0=      1 NMatT0=    0 NMatD0=    1 NMtDS0=    0 NMtDT0=    0
 Petite list used in FoFCou.
 Keep R1 ints in memory in canonical form, NReq=303303409.
 Requested convergence on RMS density matrix=1.00D-08 within 128 cycles.
 Requested convergence on MAX density matrix=1.00D-06.
 Requested convergence on             energy=1.00D-06.
 No special actions if energy rises.
 SCF Done:  E(RN12SX) =  -363.659246385     A.U. after   13 cycles
            NFock= 13  Conv=0.68D-08     -V/T= 2.0114
 DoSCS=F DFT=T ScalE2(SS,OS)=  1.000000  1.000000
 ExpMin= 4.38D-02 ExpMax= 4.17D+03 ExpMxC= 6.27D+02 IAcc=3 IRadAn=         5 AccDes= 0.00D+00
 HarFok:  IExCor=  205 AccDes= 0.00D+00 IRadAn=         5 IDoV=-2 UseB2=F ITyADJ=14
 ICtDFT= 12500011 ScaDFX=  1.000000  1.000000  1.000000  1.000000
 Range of M.O.s used for correlation:    10   185
 NBasis=   185 NAE=    31 NBE=    31 NFC=     9 NFV=     0
 NROrb=    176 NOA=    22 NOB=    22 NVA=   154 NVB=   154

 **** Warning!!: The largest alpha MO coefficient is  0.17845515D+03

 Orbital symmetries:
       Occupied  (A) (A) (A) (A) (A) (A) (A) (A) (A) (A) (A) (A)
                 (A) (A) (A) (A) (A) (A) (A) (A) (A) (A) (A) (A)
                 (A) (A) (A) (A) (A) (A) (A)
       Virtual   (A) (A) (A) (A) (A) (A) (A) (A) (A) (A) (A) (A)
                 (A) (A) (A) (A) (A) (A) (A) (A) (A) (A) (A) (A)
                 (A) (A) (A) (A) (A) (A) (A) (A) (A) (A) (A) (A)
                 (A) (A) (A) (A) (A) (A) (A) (A) (A) (A) (A) (A)
                 (A) (A) (A) (A) (A) (A) (A) (A) (A) (A) (A) (A)
                 (A) (A) (A) (A) (A) (A) (A) (A) (A) (A) (A) (A)
                 (A) (A) (A) (A) (A) (A) (A) (A) (A) (A) (A) (A)
                 (A) (A) (A) (A) (A) (A) (A) (A) (A) (A) (A) (A)
                 (A) (A) (A) (A) (A) (A) (A) (A) (A) (A) (A) (A)
                 (A) (A) (A) (A) (A) (A) (A) (A) (A) (A) (A) (A)
                 (A) (A) (A) (A) (A) (A) (A) (A) (A) (A) (A) (A)
                 (A) (A) (A) (A) (A) (A) (A) (A) (A) (A) (A) (A)
                 (A) (A) (A) (A) (A) (A) (A) (A) (A) (A)
 Generating guess from densities on rwf.
 Convergence on wavefunction:    0.000001000000000
 Iteration     1 Dimension    12 NMult     0 NNew     12
 CISAX will form    12 AO SS matrices at one time.
 New state      2 was old state      3
 New state      3 was old state      2
 New state      4 was old state      5
 New state      5 was old state      4
 Iteration     2 Dimension    24 NMult    12 NNew     12
 New state      2 was old state      3
 New state      3 was old state      2
 Iteration     3 Dimension    36 NMult    24 NNew     12
 Iteration     4 Dimension    48 NMult    36 NNew     12
 Iteration     5 Dimension    60 NMult    48 NNew     12
 Iteration     6 Dimension    72 NMult    60 NNew     12
 Iteration     7 Dimension    84 NMult    72 NNew     12
 Iteration     8 Dimension    96 NMult    84 NNew     12
 Iteration     9 Dimension   108 NMult    96 NNew     12
 Iteration    10 Dimension   120 NMult   108 NNew     12
 Iteration    11 Dimension   128 NMult   120 NNew      8
 Iteration    12 Dimension   132 NMult   128 NNew      4
 Iteration    13 Dimension   134 NMult   132 NNew      2
 ***********************************************************************
 Excited states from <AA,BB:AA,BB> singles matrix:
 ***********************************************************************
 
 Ground to excited state transition densities written to RWF  633
 Ground to excited state transition electric dipole moments (Au):
       state          X           Y           Z        Dip. S.      Osc.
         1        -0.7166      0.6747     -0.0001      0.9688      0.1043
         2         0.0007     -0.0007     -0.1159      0.0134      0.0015
         3        -0.3075     -0.1774     -0.0000      0.1260      0.0150
         4         0.0002     -0.0000     -0.0175      0.0003      0.0000
         5         0.0002      0.0001      0.0925      0.0086      0.0011
         6        -0.0006     -0.0000     -0.1087      0.0118      0.0016
 Ground to excited state transition velocity dipole moments (Au):
       state          X           Y           Z        Dip. S.      Osc.
         1         0.1063     -0.1181      0.0000      0.0252      0.1041
         2        -0.0001      0.0001      0.0110      0.0001      0.0005
         3         0.0514      0.0334      0.0000      0.0038      0.0140
         4        -0.0000      0.0000      0.0053      0.0000      0.0001
         5        -0.0000     -0.0000     -0.0173      0.0003      0.0010
         6         0.0001      0.0000      0.0242      0.0006      0.0019
 Ground to excited state transition magnetic dipole moments (Au):
       state          X           Y           Z
         1         0.0002     -0.0000      0.1548
         2         0.1295     -0.0531      0.0001
         3        -0.0001     -0.0001      0.0485
         4         0.2416     -0.1469      0.0001
         5         0.1000      0.2945      0.0002
         6         0.0045     -0.1553     -0.0001
 Ground to excited state transition velocity quadrupole moments (Au):
       state          XX          YY          ZZ          XY          XZ          YZ
         1         0.1886     -0.1243      0.0118      0.0654      0.0001      0.0000
         2        -0.0002      0.0002      0.0001      0.0000      0.0536      0.0476
         3         0.0328     -0.0807      0.0251      0.0085      0.0000     -0.0000
         4        -0.0001     -0.0001      0.0000      0.0000      0.1672      0.1955
         5         0.0001     -0.0001      0.0001      0.0001     -0.2514      0.0141
         6         0.0001     -0.0001     -0.0000     -0.0000      0.0917     -0.0537
 <0|del|b> * <b|rxdel|0> + <0|del|b> * <b|delr+rdel|0>
 Rotatory Strengths (R) in cgs (10**-40 erg-esu-cm/Gauss)
       state          XX          YY          ZZ    R(velocity)    E-M Angle
         1         0.0334      0.0445      0.0302      0.0360       90.00
         2        -0.0266     -0.0358     -0.0172     -0.0266       90.00
         3        -0.0074     -0.0094     -0.0114     -0.0094       90.00
         4        -0.0044     -0.0230     -0.0022     -0.0099       90.00
         5        -0.0187     -0.0112     -0.0060     -0.0120       90.00
         6        -0.0096     -0.0140      0.0114     -0.0040       90.00
 1/2[<0|r|b>*<b|rxdel|0> + (<0|rxdel|b>*<b|r|0>)*]
 Rotatory Strengths (R) in cgs (10**-40 erg-esu-cm/Gauss)
       state          XX          YY          ZZ     R(length)
         1         0.0912      0.0155      0.0146      0.0404
         2        -0.0646     -0.0250      0.0066     -0.0277
         3        -0.0174     -0.0125      0.0005     -0.0098
         4        -0.0308     -0.0045      0.0011     -0.0114
         5        -0.0137     -0.0211     -0.0136     -0.0161
         6         0.0018     -0.0043     -0.0089     -0.0038
  1/2[<0|del|b>*<b|r|0> + (<0|r|b>*<b|del|0>)*] (Au)
       state          X           Y           Z        Dip. S.   Osc.(frdel)
         1        -0.0762     -0.0797     -0.0000      0.1558      0.1039
         2        -0.0000     -0.0000     -0.0013      0.0013      0.0009
         3        -0.0158     -0.0059     -0.0000      0.0217      0.0145
         4        -0.0000     -0.0000     -0.0001      0.0001      0.0001
         5        -0.0000     -0.0000     -0.0016      0.0016      0.0011
         6        -0.0000     -0.0000     -0.0026      0.0026      0.0018

 Excitation energies and oscillator strengths:
 
 Excited State   1:      Singlet-A      4.3965 eV  282.00 nm  f=0.1043  <S**2>=0.000
      29 -> 32         0.10008
      30 -> 35        -0.10705
      31 -> 32         0.68280
 This state for optimization and/or second-order correction.
 Total Energy, E(TD-HF/TD-DFT) =  -363.497676259    
 Copying the excited state density for this state as the 1-particle RhoCI density.
 
 Excited State   2:      Singlet-A      4.6351 eV  267.49 nm  f=0.0015  <S**2>=0.000
      31 -> 33         0.70506
 
 Excited State   3:      Singlet-A      4.8585 eV  255.19 nm  f=0.0150  <S**2>=0.000
      30 -> 32         0.55571
      31 -> 35         0.42067
 
 Excited State   4:      Singlet-A      5.2302 eV  237.05 nm  f=0.0000  <S**2>=0.000
      31 -> 34         0.70334
 
 Excited State   5:      Singlet-A      5.3593 eV  231.34 nm  f=0.0011  <S**2>=0.000
      31 -> 35         0.10209
      31 -> 36         0.69478
 
 Excited State   6:      Singlet-A      5.5284 eV  224.27 nm  f=0.0016  <S**2>=0.000
      30 -> 33         0.70094
 SavETr:  write IOETrn=   770 NScale= 10 NData=  16 NLR=1 NState=    6 LETran=     118.
          IDoAtm=1111111111111111
          Differentiating once with respect to electric field.
                with respect to dipole field.
          Differentiating once with respect to nuclear coordinates.
 Keep R1 ints in memory in canonical form, NReq=303315801.
          There are     1 degrees of freedom in the 1st order CPHF.  IDoFFX=0 NUNeed=     1.
 LinEq1:  Iter=  0 NonCon=     1 RMS=1.47D-02 Max=4.72D-01 NDo=     1
 AX will form     1 AO Fock derivatives at one time.
 LinEq1:  Iter=  1 NonCon=     1 RMS=6.18D-03 Max=1.38D-01 NDo=     1
 LinEq1:  Iter=  2 NonCon=     1 RMS=5.73D-03 Max=2.04D-01 NDo=     1
 LinEq1:  Iter=  3 NonCon=     1 RMS=2.36D-03 Max=5.93D-02 NDo=     1
 LinEq1:  Iter=  4 NonCon=     1 RMS=2.05D-03 Max=6.55D-02 NDo=     1
 LinEq1:  Iter=  5 NonCon=     1 RMS=9.29D-04 Max=2.16D-02 NDo=     1
 LinEq1:  Iter=  6 NonCon=     1 RMS=5.66D-04 Max=1.43D-02 NDo=     1
 LinEq1:  Iter=  7 NonCon=     1 RMS=2.80D-04 Max=6.91D-03 NDo=     1
 LinEq1:  Iter=  8 NonCon=     1 RMS=1.61D-04 Max=2.63D-03 NDo=     1
 LinEq1:  Iter=  9 NonCon=     1 RMS=9.68D-05 Max=2.67D-03 NDo=     1
 LinEq1:  Iter= 10 NonCon=     1 RMS=4.08D-05 Max=7.49D-04 NDo=     1
 LinEq1:  Iter= 11 NonCon=     1 RMS=2.84D-05 Max=5.60D-04 NDo=     1
 LinEq1:  Iter= 12 NonCon=     1 RMS=1.16D-05 Max=3.02D-04 NDo=     1
 LinEq1:  Iter= 13 NonCon=     1 RMS=5.00D-06 Max=1.23D-04 NDo=     1
 LinEq1:  Iter= 14 NonCon=     1 RMS=2.17D-06 Max=2.58D-05 NDo=     1
 LinEq1:  Iter= 15 NonCon=     1 RMS=3.64D-07 Max=6.88D-06 NDo=     1
 LinEq1:  Iter= 16 NonCon=     1 RMS=1.67D-07 Max=3.92D-06 NDo=     1
 LinEq1:  Iter= 17 NonCon=     1 RMS=7.03D-08 Max=1.05D-06 NDo=     1
 LinEq1:  Iter= 18 NonCon=     1 RMS=1.70D-08 Max=3.87D-07 NDo=     1
 LinEq1:  Iter= 19 NonCon=     1 RMS=2.65D-09 Max=3.03D-08 NDo=     1
 LinEq1:  Iter= 20 NonCon=     1 RMS=6.08D-10 Max=8.04D-09 NDo=     1
 LinEq1:  Iter= 21 NonCon=     1 RMS=2.15D-10 Max=2.88D-09 NDo=     1
 LinEq1:  Iter= 22 NonCon=     1 RMS=5.59D-11 Max=1.13D-09 NDo=     1
 LinEq1:  Iter= 23 NonCon=     0 RMS=1.25D-11 Max=1.09D-10 NDo=     1
 Linear equations converged to 1.000D-10 1.000D-09 after    23 iterations.
 End of Minotr F.D. properties file   721 does not exist.
 End of Minotr F.D. properties file   722 does not exist.
 End of Minotr F.D. properties file   788 does not exist.
 Calling FoFJK, ICntrl=  10005127 FMM=F ISym2X=0 I1Cent= 0 IOpClX= 0 NMat=1 NMatS=1 NMatT=0.
 ***** Axes restored to original set *****
 -------------------------------------------------------------------
 Center     Atomic                   Forces (Hartrees/Bohr)
 Number     Number              X              Y              Z
 -------------------------------------------------------------------
      1        6          -0.000812508   -0.010781266   -0.000004584
      2        6          -0.001852782    0.012476118   -0.000000370
      3        6           0.006502188   -0.011207228    0.000001388
      4        6          -0.008975605    0.009356121   -0.000004111
      5        6           0.004975024   -0.007837294   -0.000012577
      6        6           0.003143801    0.009137038   -0.000003626
      7        7           0.012258537    0.005812131    0.000042866
      8        6          -0.012046862    0.012585268    0.000011832
      9        6          -0.002272371   -0.019428075   -0.000025749
     10        1          -0.000830706   -0.001080500   -0.000013582
     11        1           0.000774711    0.000568155    0.000001956
     12        1          -0.000924620    0.000927569    0.000000287
     13        1           0.000801799   -0.001365710    0.000001721
     14        1          -0.001102799    0.000892790   -0.000000772
     15        1           0.000419713    0.000993911    0.000001493
     16        1          -0.000057518   -0.001049030    0.000003830
 -------------------------------------------------------------------
 Cartesian Forces:  Max     0.019428075 RMS     0.005903696

 GradGradGradGradGradGradGradGradGradGradGradGradGradGradGradGradGradGrad
 Berny optimization.
 Using GEDIIS/GDIIS optimizer.
 FormGI is forming the generalized inverse of G from B-inverse, IUseBI=4.
 Internal  Forces:  Max     0.011573985 RMS     0.002492772
 Search for a local minimum.
 Step number   2 out of a maximum of   94
 All quantities printed in internal units (Hartrees-Bohrs-Radians)
 Mixed Optimization -- RFO/linear search
 Update second derivatives using D2CorX and points    1    2
 DE= -9.00D-03 DEPred=-8.17D-03 R= 1.10D+00
 TightC=F SS=  1.41D+00  RLast= 1.95D-01 DXNew= 5.0454D-01 5.8454D-01
 Trust test= 1.10D+00 RLast= 1.95D-01 DXMaxT set to 5.05D-01
 ITU=  1  0
 Use linear search instead of GDIIS.
     Eigenvalues ---    0.01852   0.01931   0.01986   0.02011   0.02069
     Eigenvalues ---    0.02113   0.02146   0.02151   0.02172   0.02210
     Eigenvalues ---    0.02234   0.02248   0.02340   0.15944   0.16000
     Eigenvalues ---    0.16000   0.16000   0.16000   0.16000   0.16018
     Eigenvalues ---    0.20409   0.22005   0.23908   0.24600   0.24903
     Eigenvalues ---    0.35486   0.35714   0.35783   0.35790   0.36082
     Eigenvalues ---    0.36425   0.36565   0.38573   0.40395   0.42766
     Eigenvalues ---    0.43935   0.46000   0.47051   0.47173   0.47678
     Eigenvalues ---    0.48912   0.52407
 RFO step:  Lambda=-1.53726679D-03 EMin= 1.85239362D-02
 Quartic linear search produced a step of  0.16583.
 Iteration  1 RMS(Cart)=  0.00946739 RMS(Int)=  0.00006055
 Iteration  2 RMS(Cart)=  0.00010420 RMS(Int)=  0.00001944
 Iteration  3 RMS(Cart)=  0.00000000 RMS(Int)=  0.00001944
 Variable       Old X    -DE/DX   Delta X   Delta X   Delta X     New X
                                 (Linear)    (Quad)   (Total)
    R1        2.62079  -0.00520  -0.00575  -0.01105  -0.01683   2.60396
    R2        2.67828   0.00273   0.01084   0.00169   0.01251   2.69079
    R3        2.04412   0.00009  -0.00002   0.00030   0.00029   2.04441
    R4        2.71018   0.00395   0.01569   0.00262   0.01830   2.72848
    R5        2.04376  -0.00000  -0.00006   0.00002  -0.00004   2.04371
    R6        2.64288  -0.00113   0.00152  -0.00339  -0.00185   2.64103
    R7        2.04506  -0.00092  -0.00005  -0.00298  -0.00303   2.04203
    R8        2.65210  -0.00219  -0.00472  -0.00409  -0.00880   2.64330
    R9        2.62851   0.00438   0.00452   0.00749   0.01205   2.64056
   R10        2.68671  -0.00071   0.00647  -0.00465   0.00182   2.68853
   R11        2.70084  -0.00590  -0.00125  -0.01563  -0.01693   2.68391
   R12        2.04519  -0.00105  -0.00001  -0.00340  -0.00341   2.04178
   R13        2.56579  -0.01066  -0.00662  -0.02242  -0.02901   2.53678
   R14        1.90026   0.00078   0.00080   0.00156   0.00237   1.90263
   R15        2.65622   0.01157   0.01286   0.02087   0.03371   2.68993
   R16        2.03605   0.00080   0.00031   0.00241   0.00272   2.03877
   R17        2.03387  -0.00102  -0.00007  -0.00323  -0.00331   2.03056
    A1        2.12090   0.00183   0.00111   0.00919   0.01025   2.13115
    A2        2.07516   0.00018  -0.00078   0.00342   0.00267   2.07783
    A3        2.08712  -0.00201  -0.00033  -0.01261  -0.01292   2.07420
    A4        2.11548   0.00254   0.00004   0.01357   0.01359   2.12907
    A5        2.07971   0.00035  -0.00065   0.00523   0.00460   2.08431
    A6        2.08799  -0.00289   0.00061  -0.01881  -0.01818   2.06981
    A7        2.03524  -0.00531  -0.00269  -0.02596  -0.02862   2.00661
    A8        2.12440   0.00156   0.00195   0.00475   0.00668   2.13108
    A9        2.12355   0.00375   0.00074   0.02121   0.02194   2.14549
   A10        2.14828   0.00318   0.00239   0.01518   0.01759   2.16588
   A11        2.26532  -0.00368  -0.00226  -0.01561  -0.01791   2.24741
   A12        1.86958   0.00050  -0.00013   0.00044   0.00032   1.86990
   A13        2.08827   0.00189   0.00258   0.00771   0.01034   2.09861
   A14        1.84965   0.00181  -0.00257   0.01025   0.00762   1.85727
   A15        2.34526  -0.00369  -0.00000  -0.01796  -0.01796   2.32730
   A16        2.05819  -0.00412  -0.00343  -0.01969  -0.02314   2.03505
   A17        2.11505   0.00197   0.00199   0.00907   0.01106   2.12611
   A18        2.10994   0.00215   0.00144   0.01063   0.01208   2.12202
   A19        1.95132  -0.00065   0.00728  -0.00849  -0.00114   1.95018
   A20        2.17226  -0.00073  -0.00298  -0.00374  -0.00675   2.16551
   A21        2.15961   0.00139  -0.00430   0.01223   0.00789   2.16750
   A22        1.90463  -0.00311   0.00580  -0.01609  -0.01034   1.89429
   A23        2.20230   0.00210  -0.00247   0.01173   0.00929   2.21158
   A24        2.17626   0.00102  -0.00333   0.00436   0.00105   2.17731
   A25        1.84959   0.00146  -0.01037   0.01389   0.00355   1.85313
   A26        2.13169   0.00010   0.00484  -0.00076   0.00407   2.13576
   A27        2.30191  -0.00156   0.00553  -0.01314  -0.00762   2.29429
    D1        0.00002  -0.00000   0.00000  -0.00002  -0.00002  -0.00000
    D2       -3.14151  -0.00000   0.00001  -0.00008  -0.00007  -3.14158
    D3        3.14154   0.00000   0.00000   0.00008   0.00008  -3.14157
    D4        0.00001   0.00000   0.00001   0.00002   0.00003   0.00004
    D5        0.00008   0.00000   0.00002   0.00002   0.00004   0.00012
    D6        3.14148   0.00000  -0.00001   0.00013   0.00013  -3.14158
    D7       -3.14144  -0.00000   0.00002  -0.00008  -0.00006  -3.14150
    D8       -0.00004   0.00000  -0.00001   0.00003   0.00003  -0.00001
    D9       -0.00012   0.00000  -0.00003   0.00003   0.00000  -0.00012
   D10       -3.14139  -0.00000   0.00002  -0.00002   0.00000  -3.14139
   D11        3.14141   0.00000  -0.00003   0.00009   0.00006   3.14146
   D12        0.00014   0.00000   0.00002   0.00004   0.00006   0.00019
   D13        0.00013  -0.00000   0.00002  -0.00004  -0.00002   0.00011
   D14       -3.14145  -0.00000  -0.00000  -0.00002  -0.00002  -3.14147
   D15        3.14140  -0.00000  -0.00003   0.00001  -0.00002   3.14138
   D16       -0.00018  -0.00000  -0.00005   0.00003  -0.00002  -0.00020
   D17       -0.00004   0.00000  -0.00000   0.00004   0.00004   0.00001
   D18       -3.14156  -0.00000  -0.00001  -0.00003  -0.00004   3.14159
   D19        3.14155   0.00000   0.00002   0.00002   0.00004   3.14159
   D20        0.00003  -0.00000   0.00001  -0.00005  -0.00004  -0.00001
   D21       -3.14135  -0.00000  -0.00002  -0.00025  -0.00027   3.14157
   D22       -0.00114   0.00001  -0.00000   0.00034   0.00034  -0.00080
   D23        0.00025  -0.00000  -0.00004  -0.00023  -0.00027  -0.00002
   D24        3.14047   0.00001  -0.00002   0.00037   0.00034   3.14080
   D25       -0.00007  -0.00000  -0.00002  -0.00003  -0.00005  -0.00013
   D26       -3.14147  -0.00000   0.00001  -0.00014  -0.00014   3.14158
   D27        3.14142   0.00000  -0.00001   0.00007   0.00006   3.14148
   D28        0.00003  -0.00000   0.00002  -0.00004  -0.00003  -0.00000
   D29       -0.00028   0.00001   0.00002   0.00030   0.00032   0.00003
   D30        3.14139   0.00000  -0.00000   0.00006   0.00006   3.14145
   D31        3.14139   0.00000   0.00001   0.00021   0.00022  -3.14157
   D32       -0.00012  -0.00000  -0.00001  -0.00003  -0.00004  -0.00016
   D33       -0.00042   0.00001   0.00006   0.00041   0.00046   0.00004
   D34        3.14146   0.00000   0.00002   0.00018   0.00020  -3.14153
   D35       -3.14065  -0.00000   0.00004  -0.00017  -0.00013  -3.14078
   D36        0.00124  -0.00001   0.00000  -0.00039  -0.00039   0.00084
   D37        0.00043  -0.00001  -0.00005  -0.00043  -0.00048  -0.00004
   D38       -3.14149  -0.00000  -0.00001  -0.00017  -0.00018   3.14151
   D39       -3.14124  -0.00000  -0.00003  -0.00019  -0.00022  -3.14146
   D40        0.00002   0.00000   0.00001   0.00007   0.00008   0.00010
         Item               Value     Threshold  Converged?
 Maximum Force            0.011574     0.000450     NO 
 RMS     Force            0.002493     0.000300     NO 
 Maximum Displacement     0.027619     0.001800     NO 
 RMS     Displacement     0.009525     0.001200     NO 
 Predicted change in Energy=-9.606979D-04
 GradGradGradGradGradGradGradGradGradGradGradGradGradGradGradGradGradGrad

                          Input orientation:                          
 ---------------------------------------------------------------------
 Center     Atomic      Atomic             Coordinates (Angstroms)
 Number     Number       Type             X           Y           Z
 ---------------------------------------------------------------------
      1          6           0       -2.178907    0.680373   -0.000008
      2          6           0       -2.149422   -0.697267    0.000004
      3          6           0       -0.908705   -1.435726    0.000119
      4          6           0        0.246254   -0.648785    0.000068
      5          6           0        0.242023    0.749981    0.000050
      6          6           0       -0.989235    1.462796    0.000092
      7          7           0        1.582779   -1.056484    0.000017
      8          6           0        1.603184    1.155434    0.000004
      9          6           0        2.422128   -0.008845   -0.000053
     10          1           0        1.879001   -2.018749    0.000676
     11          1           0        1.974426    2.168418   -0.000148
[...]
 ! D10   D(1,2,3,14)          -179.9909         -DE/DX =    0.0                 !
 ! D11   D(13,2,3,4)           179.9998         -DE/DX =    0.0                 !
 ! D12   D(13,2,3,14)            0.0086         -DE/DX =    0.0                 !
 ! D13   D(2,3,4,5)             -0.0014         -DE/DX =    0.0                 !
 ! D14   D(2,3,4,7)           -179.998          -DE/DX =    0.0                 !
 ! D15   D(14,3,4,5)           179.9897         -DE/DX =    0.0                 !
 ! D16   D(14,3,4,7)            -0.0069         -DE/DX =    0.0                 !
 ! D17   D(3,4,5,6)              0.0018         -DE/DX =    0.0                 !
 ! D18   D(3,4,5,8)           -179.9957         -DE/DX =    0.0                 !
 ! D19   D(7,4,5,6)            179.9991         -DE/DX =    0.0                 !
 ! D20   D(7,4,5,8)              0.0016         -DE/DX =    0.0                 !
 ! D21   D(3,4,7,9)            180.0072         -DE/DX =    0.0                 !
 ! D22   D(3,4,7,10)            -0.0104         -DE/DX =    0.0                 !
 ! D23   D(5,4,7,9)              0.0101         -DE/DX =    0.0                 !
 ! D24   D(5,4,7,10)           179.9925         -DE/DX =    0.0                 !
 ! D25   D(4,5,6,1)             -0.001          -DE/DX =    0.0                 !
 ! D26   D(4,5,6,16)           179.9991         -DE/DX =    0.0                 !
 ! D27   D(8,5,6,1)            179.9957         -DE/DX =    0.0                 !
 ! D28   D(8,5,6,16)            -0.0042         -DE/DX =    0.0                 !
 ! D29   D(4,5,8,9)             -0.0119         -DE/DX =    0.0                 !
 ! D30   D(4,5,8,11)           179.999          -DE/DX =    0.0                 !
 ! D31   D(6,5,8,9)           -180.0089         -DE/DX =    0.0                 !
 ! D32   D(6,5,8,11)             0.002          -DE/DX =    0.0                 !
 ! D33   D(4,7,9,8)             -0.0173         -DE/DX =    0.0                 !
 ! D34   D(4,7,9,12)          -180.0084         -DE/DX =    0.0                 !
 ! D35   D(10,7,9,8)          -179.9995         -DE/DX =    0.0                 !
 ! D36   D(10,7,9,12)            0.0094         -DE/DX =    0.0                 !
 ! D37   D(5,8,9,7)              0.0179         -DE/DX =    0.0                 !
 ! D38   D(5,8,9,12)           180.0081         -DE/DX =    0.0                 !
 ! D39   D(11,8,9,7)          -179.9927         -DE/DX =    0.0                 !
 ! D40   D(11,8,9,12)           -0.0025         -DE/DX =    0.0                 !
 --------------------------------------------------------------------------------
 GradGradGradGradGradGradGradGradGradGradGradGradGradGradGradGradGradGrad

                          Input orientation:                          
 ---------------------------------------------------------------------
 Center     Atomic      Atomic             Coordinates (Angstroms)
 Number     Number       Type             X           Y           Z
 ---------------------------------------------------------------------
      1          6           0       -2.175748    0.683043    0.000030
      2          6           0       -2.143740   -0.696909    0.000072
      3          6           0       -0.911990   -1.442019    0.000083
      4          6           0        0.242925   -0.650458    0.000055
      5          6           0        0.238913    0.745541   -0.000009
      6          6           0       -0.988017    1.465031   -0.000013
      7          7           0        1.587241   -1.057204    0.000019
      8          6           0        1.600128    1.156234   -0.000121
      9          6           0        2.419435   -0.009856    0.000157
     10          1           0        1.879984   -2.019902    0.000161
     11          1           0        1.975477    2.166794   -0.000208
     12          1           0        3.489822   -0.114295    0.000288
     13          1           0       -3.075781   -1.247235    0.000088
     14          1           0       -0.894215   -2.521241   -0.000029
     15          1           0       -3.134247    1.185405    0.000011
     16          1           0       -1.013283    2.544518   -0.000047
 ---------------------------------------------------------------------
                    Distance matrix (angstroms):
                    1          2          3          4          5
     1  C    0.000000
     2  C    1.380323   0.000000
     3  C    2.472443   1.439582   0.000000
     4  C    2.761920   2.387117   1.400142   0.000000
     5  C    2.415469   2.785264   2.471841   1.396004   0.000000
     6  C    1.422044   2.451465   2.908044   2.447552   1.422330
     7  N    4.145907   3.748337   2.528683   1.404503   2.251195
     8  C    3.805410   4.177402   3.614092   2.259676   1.421821
     9  C    4.647130   4.614608   3.626222   2.268825   2.307662
    10  H    4.873897   4.235642   2.851152   2.134324   3.215709
    11  H    4.408422   5.016845   4.621796   3.307362   2.244017
    12  H    5.721401   5.663608   4.597695   3.290868   3.362696
    13  H    2.129796   1.082386   2.172540   3.371936   3.867603
    14  H    3.451053   2.211222   1.079368   2.189273   3.457722
    15  H    1.082168   2.127019   3.441190   3.843915   3.401718
    16  H    2.194633   3.432897   3.987824   3.433064   2.191874
                    6          7          8          9         10
     6  C    0.000000
     7  N    3.604667   0.000000
     8  C    2.606502   2.213476   0.000000
     9  C    3.712953   1.337716   1.425142   0.000000
    10  H    4.513334   1.006223   3.188441   2.081176   0.000000
    11  H    3.045450   3.247289   1.078015   2.221464   4.187784
    12  H    4.748190   2.123415   2.277101   1.075470   2.494577
    13  H    3.422739   4.666893   5.257451   5.632806   5.015637
    14  H    3.987376   2.881150   4.443599   4.157804   2.819134
    15  H    2.164369   5.227021   4.734465   5.680848   5.951176
    16  H    1.079783   4.442424   2.959265   4.278829   5.404158
                   11         12         13         14         15
    11  H    0.000000
    12  H    2.737993   0.000000
    13  H    6.096786   6.662634   0.000000
    14  H    5.496617   5.001317   2.526326   0.000000
    15  H    5.203114   6.750371   2.433343   4.330932   0.000000
    16  H    3.012534   5.229459   4.316398   5.067158   2.519062
                   16
    16  H    0.000000
 Stoichiometry    C8H7N
 Framework group  C1[X(C8H7N)]
 Deg. of freedom    42
 Full point group                 C1      NOp   1
 Largest Abelian subgroup         C1      NOp   1
 Largest concise Abelian subgroup C1      NOp   1
                         Standard orientation:                         
 ---------------------------------------------------------------------
 Center     Atomic      Atomic             Coordinates (Angstroms)
 Number     Number       Type             X           Y           Z
 ---------------------------------------------------------------------
      1          6           0       -2.186523    0.647689   -0.000001
      2          6           0       -2.133147   -0.731601    0.000041
      3          6           0       -0.890006   -1.457546    0.000052
      4          6           0        0.252512   -0.648193    0.000024
      5          6           0        0.226880    0.747576   -0.000040
      6          6           0       -1.011045    1.447978   -0.000043
      7          7           0        1.602966   -1.034072   -0.000012
      8          6           0        1.581572    1.179301   -0.000152
      9          6           0        2.418840    0.026039    0.000126
     10          1           0        1.910583   -1.992120    0.000130
     11          1           0        1.941225    2.195552   -0.000239
     12          1           0        3.490716   -0.061810    0.000257
     13          1           0       -3.056554   -1.296296    0.000057
     14          1           0       -0.855519   -2.536364   -0.000060
     15          1           0       -3.152687    1.135147   -0.000019
     16          1           0       -1.053026    2.526944   -0.000077
 ---------------------------------------------------------------------
 Rotational constants (GHZ):           3.8785378           1.6178544           1.1416415

 **********************************************************************

            Population analysis using the CI Density.

 **********************************************************************

 Orbital symmetries:
       Occupied  (A) (A) (A) (A) (A) (A) (A) (A) (A) (A) (A) (A)
                 (A) (A) (A) (A) (A) (A) (A) (A) (A) (A) (A) (A)
                 (A) (A) (A) (A) (A) (A) (A)
       Virtual   (A) (A) (A) (A) (A) (A) (A) (A) (A) (A) (A) (A)
                 (A) (A) (A) (A) (A) (A) (A) (A) (A) (A) (A) (A)
                 (A) (A) (A) (A) (A) (A) (A) (A) (A) (A) (A) (A)
                 (A) (A) (A) (A) (A) (A) (A) (A) (A) (A) (A) (A)
                 (A) (A) (A) (A) (A) (A) (A) (A) (A) (A) (A) (A)
                 (A) (A) (A) (A) (A) (A) (A) (A) (A) (A) (A) (A)
                 (A) (A) (A) (A) (A) (A) (A) (A) (A) (A) (A) (A)
                 (A) (A) (A) (A) (A) (A) (A) (A) (A) (A) (A) (A)
                 (A) (A) (A) (A) (A) (A) (A) (A) (A) (A) (A) (A)
                 (A) (A) (A) (A) (A) (A) (A) (A) (A) (A) (A) (A)
                 (A) (A) (A) (A) (A) (A) (A) (A) (A) (A) (A) (A)
                 (A) (A) (A) (A) (A) (A) (A) (A) (A) (A) (A) (A)
                 (A) (A) (A) (A) (A) (A) (A) (A) (A) (A)
 The electronic state is 1-A.
 Alpha  occ. eigenvalues --  -14.43926 -10.27820 -10.27436 -10.25019 -10.24341
 Alpha  occ. eigenvalues --  -10.24007 -10.23932 -10.23600 -10.22806  -0.98593
 Alpha  occ. eigenvalues --   -0.83958  -0.77653  -0.74044  -0.70819  -0.62877
 Alpha  occ. eigenvalues --   -0.59455  -0.57616  -0.54077  -0.48151  -0.47098
 Alpha  occ. eigenvalues --   -0.43628  -0.43091  -0.42109  -0.40023  -0.38957
 Alpha  occ. eigenvalues --   -0.34704  -0.34083  -0.33080  -0.26795  -0.22730
 Alpha  occ. eigenvalues --   -0.18962
 Alpha virt. eigenvalues --   -0.03423  -0.01286   0.00673   0.01282   0.01336
 Alpha virt. eigenvalues --    0.02622   0.02803   0.03675   0.05043   0.05400
 Alpha virt. eigenvalues --    0.05487   0.05867   0.07931   0.08164   0.09535
 Alpha virt. eigenvalues --    0.09649   0.10637   0.12021   0.12708   0.13217
 Alpha virt. eigenvalues --    0.14382   0.14695   0.15647   0.15870   0.16720
 Alpha virt. eigenvalues --    0.17077   0.18055   0.18140   0.18873   0.19167
 Alpha virt. eigenvalues --    0.19433   0.19543   0.21076   0.21489   0.22507
 Alpha virt. eigenvalues --    0.22624   0.22995   0.23648   0.24668   0.25486
 Alpha virt. eigenvalues --    0.26096   0.26614   0.27201   0.28755   0.29524
 Alpha virt. eigenvalues --    0.30346   0.31438   0.33058   0.34921   0.35019
 Alpha virt. eigenvalues --    0.36524   0.38864   0.42144   0.44885   0.50820
 Alpha virt. eigenvalues --    0.57567   0.60722   0.66894   0.67496   0.69848
 Alpha virt. eigenvalues --    0.71724   0.72358   0.72784   0.73414   0.73430
 Alpha virt. eigenvalues --    0.75536   0.75629   0.77462   0.78613   0.79160
 Alpha virt. eigenvalues --    0.80895   0.85211   0.88536   0.89109   0.90219
 Alpha virt. eigenvalues --    0.93732   0.94480   0.95198   0.95281   0.98059
 Alpha virt. eigenvalues --    0.99673   1.02976   1.04908   1.05842   1.09360
 Alpha virt. eigenvalues --    1.11744   1.12990   1.17487   1.17968   1.21394
 Alpha virt. eigenvalues --    1.22631   1.23986   1.24901   1.31928   1.32326
 Alpha virt. eigenvalues --    1.34957   1.36567   1.40434   1.40788   1.43956
 Alpha virt. eigenvalues --    1.47109   1.47975   1.49284   1.50176   1.54265
 Alpha virt. eigenvalues --    1.58287   1.63549   1.79632   1.82924   1.88716
 Alpha virt. eigenvalues --    1.90362   1.91304   1.94202   2.00053   2.00812
 Alpha virt. eigenvalues --    2.01066   2.04432   2.07837   2.13505   2.16880
 Alpha virt. eigenvalues --    2.17118   2.21057   2.22585   2.24912   2.28264
 Alpha virt. eigenvalues --    2.28399   2.31577   2.37560   2.40460   2.46504
 Alpha virt. eigenvalues --    2.53352   2.56131   2.61874   2.65500   2.65978
 Alpha virt. eigenvalues --    2.67735   2.73897   2.80477   2.83767   2.85216
 Alpha virt. eigenvalues --    2.95461   2.98601   3.09983   3.24348   3.42255
 Alpha virt. eigenvalues --    4.15514   4.26195   4.29463   4.32765   4.37015
 Alpha virt. eigenvalues --    4.41103   4.48713   4.53020   4.78740
          Condensed to atoms (all electrons):
               1          2          3          4          5          6
     1  C    5.678463   0.411358   0.392605  -0.496132  -0.143057  -0.237991
     2  C    0.411358   5.928523  -0.421688   0.245398  -0.524703   0.769067
     3  C    0.392605  -0.421688  14.831963  -1.313148  -5.611867  -3.331366
     4  C   -0.496132   0.245398  -1.313148  14.974618  -5.842534  -2.011277
     5  C   -0.143057  -0.524703  -5.611867  -5.842534  18.544819   0.628759
     6  C   -0.237991   0.769067  -3.331366  -2.011277   0.628759  13.833638
     7  N   -0.027312   0.014045  -0.583014  -0.551765   1.145892   0.170683
     8  C    0.193086  -0.395992   3.657157   3.046911  -6.286067  -4.265863
     9  C   -0.096452   0.045520  -1.218147  -0.867388   2.024252   1.049220
    10  H   -0.003677  -0.004392  -0.145626  -0.072945   0.191184   0.021598
    11  H    0.002663   0.001080   0.004737   0.012566  -0.022760   0.020711
    12  H    0.001329  -0.000207   0.033546   0.105102  -0.111669  -0.021171
    13  H    0.028242   0.256950  -0.015950   0.013051   0.006411   0.009705
    14  H    0.011324   0.038862   0.195734   0.054302   0.013464  -0.013990
    15  H    0.262019   0.021722   0.024732  -0.022847   0.034337  -0.027404
    16  H    0.023670   0.012209  -0.030312   0.016960   0.098072   0.214848
               7          8          9         10         11         12
     1  C   -0.027312   0.193086  -0.096452  -0.003677   0.002663   0.001329
     2  C    0.014045  -0.395992   0.045520  -0.004392   0.001080  -0.000207
     3  C   -0.583014   3.657157  -1.218147  -0.145626   0.004737   0.033546
     4  C   -0.551765   3.046911  -0.867388  -0.072945   0.012566   0.105102
     5  C    1.145892  -6.286067   2.024252   0.191184  -0.022760  -0.111669
     6  C    0.170683  -4.265863   1.049220   0.021598   0.020711  -0.021171
     7  N    7.162244  -0.818649   0.627543   0.264351   0.006998  -0.054392
     8  C   -0.818649  12.649268  -2.117911  -0.003138   0.305314   0.045278
     9  C    0.627543  -2.117911   6.528980  -0.025388  -0.035970   0.314153
    10  H    0.264351  -0.003138  -0.025388   0.340724  -0.000084  -0.002461
    11  H    0.006998   0.305314  -0.035970  -0.000084   0.469697  -0.000558
    12  H   -0.054392   0.045278   0.314153  -0.002461  -0.000558   0.457928
    13  H   -0.000479  -0.000366   0.001384  -0.000002  -0.000000  -0.000000
    14  H   -0.007515  -0.009137   0.008638   0.002209   0.000002   0.000002
    15  H    0.000285   0.007461  -0.000239  -0.000000  -0.000002  -0.000000
    16  H   -0.000693  -0.048830   0.004632   0.000004   0.001507  -0.000001
              13         14         15         16
     1  C    0.028242   0.011324   0.262019   0.023670
     2  C    0.256950   0.038862   0.021722   0.012209
     3  C   -0.015950   0.195734   0.024732  -0.030312
     4  C    0.013051   0.054302  -0.022847   0.016960
     5  C    0.006411   0.013464   0.034337   0.098072
     6  C    0.009705  -0.013990  -0.027404   0.214848
     7  N   -0.000479  -0.007515   0.000285  -0.000693
     8  C   -0.000366  -0.009137   0.007461  -0.048830
     9  C    0.001384   0.008638  -0.000239   0.004632
    10  H   -0.000002   0.002209  -0.000000   0.000004
    11  H   -0.000000   0.000002  -0.000002   0.001507
    12  H   -0.000000   0.000002  -0.000000  -0.000001
    13  H    0.521567  -0.003647  -0.005065  -0.000144
    14  H   -0.003647   0.520776  -0.000136   0.000014
    15  H   -0.005065  -0.000136   0.522308  -0.003519
    16  H   -0.000144   0.000014  -0.003519   0.518844
 Mulliken charges:
               1
     1  C   -0.000138
     2  C   -0.397752
     3  C   -0.469356
     4  C   -1.290873
     5  C    1.855467
     6  C   -0.809167
     7  N   -0.348222
     8  C    0.041477
     9  C   -0.242826
    10  H    0.437642
    11  H    0.234099
    12  H    0.233121
    13  H    0.188343
    14  H    0.189099
    15  H    0.186348
    16  H    0.192738
 Sum of Mulliken charges =  -0.00000
 Mulliken charges with hydrogens summed into heavy atoms:
               1
     1  C    0.186211
     2  C   -0.209409
     3  C   -0.280257
     4  C   -1.290873
     5  C    1.855467
     6  C   -0.616429
     7  N    0.089420
     8  C    0.275576
     9  C   -0.009706
 Electronic spatial extent (au):  <R**2>=           1017.5405
 Charge=              0.0000 electrons
 Dipole moment (field-independent basis, Debye):
    X=              4.6585    Y=             -1.1660    Z=             -0.0005  Tot=              4.8022
 Quadrupole moment (field-independent basis, Debye-Ang):
   XX=            -43.6240   YY=            -46.2055   ZZ=            -60.0627
   XY=             -2.1751   XZ=             -0.0001   YZ=              0.0004
 Traceless Quadrupole moment (field-independent basis, Debye-Ang):
   XX=              6.3401   YY=              3.7585   ZZ=            -10.0986
   XY=             -2.1751   XZ=             -0.0001   YZ=              0.0004
 Octapole moment (field-independent basis, Debye-Ang**2):
  XXX=             29.7495  YYY=             -8.3432  ZZZ=             -0.0047  XYY=             16.2446
  XXY=             -6.7570  XXZ=             -0.0008  XZZ=              5.6461  YZZ=             -1.1145
  YYZ=             -0.0054  XYZ=             -0.0006
 Hexadecapole moment (field-independent basis, Debye-Ang**3):
 XXXX=           -827.0336 YYYY=           -395.3834 ZZZZ=            -85.0815 XXXY=            -16.8836
 XXXZ=             -0.0059 YYYX=            -14.8799 YYYZ=              0.0141 ZZZX=             -0.0078
 ZZZY=              0.0153 XXYY=           -195.2682 XXZZ=           -197.8579 YYZZ=           -104.3990
 XXYZ=              0.0032 YYXZ=             -0.0013 ZZXY=             -1.7360
 N-N= 3.989784822251D+02 E-N=-1.639856029993D+03  KE= 3.596949397063D+02
 Unable to Open any file for archive entry.
 1\1\GINC-EXP-6-55\FOpt\RN12SX TD-FC\6-31+G(d)\C8H7N1\SCAPARAS\16-Jun-2
 021\0\\# td= (nstates=6, root=1) N12SX/6-31+G* Opt density=current\\Fu
 ncsN12SX-V-1st\\0,1\C,-2.1757479714,0.6830427766,0.0000302155\C,-2.143
 7399467,-0.6969090315,0.00007152\C,-0.911990209,-1.4420194957,0.000082
 8414\C,0.2429247343,-0.6504576638,0.000054845\C,0.2389127676,0.7455409
 251,-0.0000092348\C,-0.9880171772,1.4650309343,-0.0000126029\N,1.58724
 10967,-1.0572040741,0.0000187331\C,1.600127965,1.1562340225,-0.0001212
 976\C,2.419435083,-0.009855942,0.0001565118\H,1.8799837222,-2.01990181
 48,0.0001608075\H,1.9754765265,2.1667935798,-0.0002078259\H,3.48982183
 02,-0.1142948724,0.0002879326\H,-3.0757810581,-1.2472351865,0.00008806
 77\H,-0.8942146106,-2.5212414293,-0.0000294668\H,-3.1342467058,1.18540
 53801,0.0000114957\H,-1.0132830468,2.5445178919,-0.0000465424\\Version
 =AS64L-G16RevC.01\State=1-A\HF=-363.6555154\RMSD=4.411e-09\RMSF=3.641e
 -05\Dipole=1.8327797,-0.4587393,-0.0002143\Quadrupole=4.7137099,2.7943
 847,-7.5080945,-1.6171323,-0.0000837,0.0002957\PG=C01 [X(C8H7N1)]\\@
 The archive entry for this job was punched.


 HE THAT WALD REACHE THE SWEITE ROSE
 SULD NOW AND THEN BE SCRATCHED WT THE SCHARPE BREERES.
 -- PROVERBS AND REASONS OF THE YEAR 1585
           AS REPRINTED IN PAISLEY MAGAZINE 1828.
 Job cpu time:       0 days  2 hours  8 minutes 59.7 seconds.
 Elapsed time:       0 days  0 hours 32 minutes 57.2 seconds.
 File lengths (MBytes):  RWF=    238 Int=      0 D2E=      0 Chk=     11 Scr=      1
 Normal termination of Gaussian 16 at Wed Jun 16 10:45:35 2021.
