 Entering Gaussian System, Link 0=/opt/gaussian/16.C.01/g16/g16
 Initial command:
 /opt/gaussian/16.C.01/g16/l1.exe "/scratch/scaparas/34198257/Gau-24947.inp" -scrdir="/scratch/scaparas/34198257/"
 Entering Link 1 = /opt/gaussian/16.C.01/g16/l1.exe PID=     24949.
  
 Copyright (c) 1988-2019, Gaussian, Inc.  All Rights Reserved.
  
 This is part of the Gaussian(R) 16 program.  It is based on
 the Gaussian(R) 09 system (copyright 2009, Gaussian, Inc.),
 the Gaussian(R) 03 system (copyright 2003, Gaussian, Inc.),
 the Gaussian(R) 98 system (copyright 1998, Gaussian, Inc.),
 the Gaussian(R) 94 system (copyright 1995, Gaussian, Inc.),
 the Gaussian 92(TM) system (copyright 1992, Gaussian, Inc.),
 the Gaussian 90(TM) system (copyright 1990, Gaussian, Inc.),
 the Gaussian 88(TM) system (copyright 1988, Gaussian, Inc.),
 the Gaussian 86(TM) system (copyright 1986, Carnegie Mellon
 University), and the Gaussian 82(TM) system (copyright 1983,
 Carnegie Mellon University). Gaussian is a federally registered
 trademark of Gaussian, Inc.
  
 This software contains proprietary and confidential information,
 including trade secrets, belonging to Gaussian, Inc.
  
 This software is provided under written license and may be
 used, copied, transmitted, or stored only in accord with that
 written license.
  
 The following legend is applicable only to US Government
 contracts under FAR:
  
                    RESTRICTED RIGHTS LEGEND
  
 Use, reproduction and disclosure by the US Government is
 subject to restrictions as set forth in subparagraphs (a)
 and (c) of the Commercial Computer Software - Restricted
 Rights clause in FAR 52.227-19.
  
 Gaussian, Inc.
 340 Quinnipiac St., Bldg. 40, Wallingford CT 06492
  
  
 ---------------------------------------------------------------
 Warning -- This program may not be used in any manner that
 competes with the business of Gaussian, Inc. or will provide
 assistance to any competitor of Gaussian, Inc.  The licensee
 of this program is prohibited from giving any competitor of
 Gaussian, Inc. access to this program.  By using this program,
 the user acknowledges that Gaussian, Inc. is engaged in the
 business of creating and licensing software in the field of
 computational chemistry and represents and warrants to the
 licensee that it is not a competitor of Gaussian, Inc. and that
 it will not use this program in any manner prohibited above.
 ---------------------------------------------------------------
  

 Cite this work as:
 Gaussian 16, Revision C.01,
 M. J. Frisch, G. W. Trucks, H. B. Schlegel, G. E. Scuseria, 
 M. A. Robb, J. R. Cheeseman, G. Scalmani, V. Barone, 
 G. A. Petersson, H. Nakatsuji, X. Li, M. Caricato, A. V. Marenich, 
 J. Bloino, B. G. Janesko, R. Gomperts, B. Mennucci, H. P. Hratchian, 
 J. V. Ortiz, A. F. Izmaylov, J. L. Sonnenberg, D. Williams-Young, 
 F. Ding, F. Lipparini, F. Egidi, J. Goings, B. Peng, A. Petrone, 
 T. Henderson, D. Ranasinghe, V. G. Zakrzewski, J. Gao, N. Rega, 
 G. Zheng, W. Liang, M. Hada, M. Ehara, K. Toyota, R. Fukuda, 
 J. Hasegawa, M. Ishida, T. Nakajima, Y. Honda, O. Kitao, H. Nakai, 
 T. Vreven, K. Throssell, J. A. Montgomery, Jr., J. E. Peralta, 
 F. Ogliaro, M. J. Bearpark, J. J. Heyd, E. N. Brothers, K. N. Kudin, 
 V. N. Staroverov, T. A. Keith, R. Kobayashi, J. Normand, 
 K. Raghavachari, A. P. Rendell, J. C. Burant, S. S. Iyengar, 
 J. Tomasi, M. Cossi, J. M. Millam, M. Klene, C. Adamo, R. Cammi, 
 J. W. Ochterski, R. L. Martin, K. Morokuma, O. Farkas, 
 J. B. Foresman, and D. J. Fox, Gaussian, Inc., Wallingford CT, 2019.
 
 ******************************************
 Gaussian 16:  ES64L-G16RevC.01  3-Jul-2019
                17-Jun-2020 
 ******************************************
 %nprocshared=2
 Will use up to    2 processors via shared memory.
 %Chk=FuncsBVP86.chk
 -----------------------------------------------------------
 # td=(nstates=6, root=1) BVP86/6-31G(d) Opt density=current
 -----------------------------------------------------------
 1/18=20,19=15,26=3,38=1/1,3;
 2/9=110,12=2,17=6,18=5,40=1/2;
 3/5=1,6=6,7=1,11=9,25=1,30=1,71=1,74=418/1,2,3,8;
 4//1;
 5/5=2,38=5/2;
 8/6=1,10=2,107=1,108=6/1;
 9/8=1,15=2,41=6,42=1,70=2/14;
 10/5=4,28=1/2;
 6/7=2,8=2,9=2,10=2,22=-1/1;
 7/12=6,13=5,14=1/1,2,3,16;
 1/18=20,19=15,26=3/3(2);
 2/9=110/2;
 99//99;
 2/9=110/2;
 3/5=1,6=6,7=1,11=9,25=1,30=1,71=1,74=418/1,2,3,8;
 4/5=5,16=3,69=1/1;
 5/5=2,38=5/2;
 8/6=1,10=2,107=1,108=6/1;
 9/8=1,15=2,41=6,42=1,49=4,70=2/14;
 10/5=4,28=1/2;
 7/12=6,13=5,14=1/1,2,3,16;
 1/18=20,19=15,26=3/3(-8);
 2/9=110/2;
 6/7=2,8=2,9=2,10=2,22=-1/1;
 99/9=10/99;
 ----------
 FuncsBVP86
 ----------
 Symbolic Z-matrix:
 Charge =  0 Multiplicity = 1
 C                    -2.15886   0.68918   0.02974 
 C                    -2.1332   -0.71621  -0.0157 
 C                    -0.93572  -1.41751  -0.00819 
 C                     0.2487   -0.67115   0.00319 
 C                     0.25025   0.7522   -0.00266 
 C                    -0.98322   1.4256   -0.0173 
 N                     1.5657   -1.08029   0.00974 
 C                     1.62609   1.16684  -0.00626 
 C                     2.39038   0.03059   0.00688 
 H                     1.87967  -2.03756   0.01447 
 H                     1.9972    2.18233  -0.0192 
 H                     3.46481  -0.08787   0.00753 
 H                    -3.075    -1.264    -0.03434 
 H                    -0.91687  -2.50699  -0.02386 
 H                    -3.12254   1.20382   0.09559 
 H                    -1.01374   2.5151   -0.04664 
 

 GradGradGradGradGradGradGradGradGradGradGradGradGradGradGradGradGradGrad
 Berny optimization.
 Initialization pass.
                           ----------------------------
                           !    Initial Parameters    !
                           ! (Angstroms and Degrees)  !
 --------------------------                            --------------------------
 ! Name  Definition              Value          Derivative Info.                !
 --------------------------------------------------------------------------------
 ! R1    R(1,2)                  1.4064         estimate D2E/DX2                !
 ! R2    R(1,6)                  1.388          estimate D2E/DX2                !
 ! R3    R(1,15)                 1.0945         estimate D2E/DX2                !
 ! R4    R(2,3)                  1.3877         estimate D2E/DX2                !
 ! R5    R(2,13)                 1.0897         estimate D2E/DX2                !
 ! R6    R(3,4)                  1.4            estimate D2E/DX2                !
 ! R7    R(3,14)                 1.0898         estimate D2E/DX2                !
 ! R8    R(4,5)                  1.4234         estimate D2E/DX2                !
 ! R9    R(4,7)                  1.3791         estimate D2E/DX2                !
 ! R10   R(5,6)                  1.4054         estimate D2E/DX2                !
 ! R11   R(5,8)                  1.437          estimate D2E/DX2                !
 ! R12   R(6,16)                 1.0903         estimate D2E/DX2                !
 ! R13   R(7,9)                  1.3835         estimate D2E/DX2                !
 ! R14   R(7,10)                 1.0075         estimate D2E/DX2                !
 ! R15   R(8,9)                  1.3694         estimate D2E/DX2                !
 ! R16   R(8,11)                 1.0813         estimate D2E/DX2                !
 ! R17   R(9,12)                 1.0809         estimate D2E/DX2                !
 ! A1    A(2,1,6)              120.9061         estimate D2E/DX2                !
 ! A2    A(2,1,15)             119.2028         estimate D2E/DX2                !
 ! A3    A(6,1,15)             119.8895         estimate D2E/DX2                !
 ! A4    A(1,2,3)              121.3707         estimate D2E/DX2                !
 ! A5    A(1,2,13)             119.153          estimate D2E/DX2                !
 ! A6    A(3,2,13)             119.4616         estimate D2E/DX2                !
 ! A7    A(2,3,4)              117.4292         estimate D2E/DX2                !
 ! A8    A(2,3,14)             121.3371         estimate D2E/DX2                !
 ! A9    A(4,3,14)             121.2289         estimate D2E/DX2                !
 ! A10   A(3,4,5)              122.2756         estimate D2E/DX2                !
 ! A11   A(3,4,7)              130.5258         estimate D2E/DX2                !
 ! A12   A(5,4,7)              107.1964         estimate D2E/DX2                !
 ! A13   A(4,5,6)              118.5703         estimate D2E/DX2                !
 ! A14   A(4,5,8)              106.8342         estimate D2E/DX2                !
 ! A15   A(6,5,8)              134.5914         estimate D2E/DX2                !
 ! A16   A(1,6,5)              119.2617         estimate D2E/DX2                !
 ! A17   A(1,6,16)             120.4875         estimate D2E/DX2                !
 ! A18   A(5,6,16)             120.2412         estimate D2E/DX2                !
 ! A19   A(4,7,9)              109.3301         estimate D2E/DX2                !
 ! A20   A(4,7,10)             125.4173         estimate D2E/DX2                !
 ! A21   A(9,7,10)             125.2525         estimate D2E/DX2                !
 ! A22   A(5,8,9)              107.1528         estimate D2E/DX2                !
 ! A23   A(5,8,11)             126.8451         estimate D2E/DX2                !
 ! A24   A(9,8,11)             126.002          estimate D2E/DX2                !
 ! A25   A(7,9,8)              109.4848         estimate D2E/DX2                !
 ! A26   A(7,9,12)             120.2971         estimate D2E/DX2                !
 ! A27   A(8,9,12)             130.2163         estimate D2E/DX2                !
 ! D1    D(6,1,2,3)              4.8678         estimate D2E/DX2                !
 ! D2    D(6,1,2,13)          -176.5353         estimate D2E/DX2                !
 ! D3    D(15,1,2,3)          -175.5899         estimate D2E/DX2                !
 ! D4    D(15,1,2,13)            3.0069         estimate D2E/DX2                !
 ! D5    D(2,1,6,5)             -5.0972         estimate D2E/DX2                !
 ! D6    D(2,1,6,16)           176.0299         estimate D2E/DX2                !
 ! D7    D(15,1,6,5)           175.3637         estimate D2E/DX2                !
 ! D8    D(15,1,6,16)           -3.5093         estimate D2E/DX2                !
 ! D9    D(1,2,3,4)             -1.9941         estimate D2E/DX2                !
 ! D10   D(1,2,3,14)           178.7955         estimate D2E/DX2                !
 ! D11   D(13,2,3,4)           179.4132         estimate D2E/DX2                !
 ! D12   D(13,2,3,14)            0.2029         estimate D2E/DX2                !
 ! D13   D(2,3,4,5)             -0.4651         estimate D2E/DX2                !
 ! D14   D(2,3,4,7)           -179.8522         estimate D2E/DX2                !
 ! D15   D(14,3,4,5)           178.7462         estimate D2E/DX2                !
 ! D16   D(14,3,4,7)            -0.641          estimate D2E/DX2                !
 ! D17   D(3,4,5,6)              0.1482         estimate D2E/DX2                !
 ! D18   D(3,4,5,8)           -179.2217         estimate D2E/DX2                !
 ! D19   D(7,4,5,6)            179.6606         estimate D2E/DX2                !
 ! D20   D(7,4,5,8)              0.2907         estimate D2E/DX2                !
 ! D21   D(3,4,7,9)            179.3989         estimate D2E/DX2                !
 ! D22   D(3,4,7,10)            -0.5167         estimate D2E/DX2                !
 ! D23   D(5,4,7,9)             -0.0587         estimate D2E/DX2                !
 ! D24   D(5,4,7,10)          -179.9743         estimate D2E/DX2                !
 ! D25   D(4,5,6,1)              2.618          estimate D2E/DX2                !
 ! D26   D(4,5,6,16)          -178.5062         estimate D2E/DX2                !
 ! D27   D(8,5,6,1)           -178.2289         estimate D2E/DX2                !
 ! D28   D(8,5,6,16)             0.6469         estimate D2E/DX2                !
 ! D29   D(4,5,8,9)             -0.4171         estimate D2E/DX2                !
 ! D30   D(4,5,8,11)           179.4533         estimate D2E/DX2                !
 ! D31   D(6,5,8,9)           -179.64           estimate D2E/DX2                !
 ! D32   D(6,5,8,11)             0.2304         estimate D2E/DX2                !
 ! D33   D(4,7,9,8)             -0.2113         estimate D2E/DX2                !
 ! D34   D(4,7,9,12)          -179.7792         estimate D2E/DX2                !
 ! D35   D(10,7,9,8)           179.7044         estimate D2E/DX2                !
 ! D36   D(10,7,9,12)            0.1366         estimate D2E/DX2                !
 ! D37   D(5,8,9,7)              0.3888         estimate D2E/DX2                !
 ! D38   D(5,8,9,12)           179.9002         estimate D2E/DX2                !
 ! D39   D(11,8,9,7)          -179.483          estimate D2E/DX2                !
 ! D40   D(11,8,9,12)            0.0284         estimate D2E/DX2                !
 --------------------------------------------------------------------------------
 Trust Radius=3.00D-01 FncErr=1.00D-07 GrdErr=1.00D-06 EigMax=2.50D+02 EigMin=1.00D-04
 Number of steps in this run=     94 maximum allowed number of steps=    100.
 GradGradGradGradGradGradGradGradGradGradGradGradGradGradGradGradGradGrad

                          Input orientation:                          
 ---------------------------------------------------------------------
 Center     Atomic      Atomic             Coordinates (Angstroms)
 Number     Number       Type             X           Y           Z
 ---------------------------------------------------------------------
      1          6           0       -2.158860    0.689180    0.029740
      2          6           0       -2.133200   -0.716210   -0.015700
      3          6           0       -0.935720   -1.417510   -0.008190
      4          6           0        0.248700   -0.671150    0.003190
      5          6           0        0.250250    0.752200   -0.002660
      6          6           0       -0.983220    1.425600   -0.017300
      7          7           0        1.565700   -1.080290    0.009740
      8          6           0        1.626090    1.166840   -0.006260
      9          6           0        2.390380    0.030590    0.006880
     10          1           0        1.879670   -2.037560    0.014470
     11          1           0        1.997200    2.182330   -0.019200
     12          1           0        3.464810   -0.087870    0.007530
     13          1           0       -3.075000   -1.264000   -0.034340
     14          1           0       -0.916870   -2.506990   -0.023860
     15          1           0       -3.122540    1.203820    0.095590
     16          1           0       -1.013740    2.515100   -0.046640
 ---------------------------------------------------------------------
                    Distance matrix (angstroms):
                    1          2          3          4          5
     1  C    0.000000
     2  C    1.406359   0.000000
     3  C    2.436320   1.387745   0.000000
     4  C    2.765420   2.382401   1.400012   0.000000
     5  C    2.410152   2.799506   2.472690   1.423363   0.000000
     6  C    1.388041   2.431009   2.843521   2.431955   1.405393
     7  N    4.123563   3.716862   2.524112   1.379104   2.255789
     8  C    3.815141   4.204548   3.638920   2.296846   1.436967
     9  C    4.596721   4.584866   3.627694   2.253718   2.258532
    10  H    4.872891   4.224926   2.882949   2.127737   3.230799
    11  H    4.416416   5.045964   4.643381   3.346655   2.257738
    12  H    5.677144   5.633211   4.597048   3.268577   3.322532
    13  H    2.158317   1.089683   2.144940   3.376368   3.888876
    14  H    3.429419   2.164814   1.089756   2.174763   3.461927
    15  H    1.094472   2.162798   3.415307   3.858667   3.404310
    16  H    2.156645   3.419870   3.933572   3.427598   2.169659
                    6          7          8          9         10
     6  C    0.000000
     7  N    3.574522   0.000000
     8  C    2.622132   2.247998   0.000000
     9  C    3.650728   1.383532   1.369444   0.000000
    10  H    4.493398   1.007455   3.214485   2.130288   0.000000
    11  H    3.074987   3.291158   1.081254   2.187523   4.221661
    12  H    4.698529   2.142784   2.226068   1.080941   2.512769
    13  H    3.407313   4.644544   5.292449   5.616764   5.014931
    14  H    3.933155   2.863522   4.468107   4.168712   2.835925
    15  H    2.153746   5.215757   4.749866   5.637076   5.961143
    16  H    1.090322   4.425327   2.964479   4.214699   5.394652
                   11         12         13         14         15
    11  H    0.000000
    12  H    2.703406   0.000000
    13  H    6.132262   6.644859   0.000000
    14  H    5.521010   5.005222   2.490514   0.000000
    15  H    5.213674   6.713375   2.471695   4.318490   0.000000
    16  H    3.029397   5.180328   4.304711   5.023076   2.487312
                   16
    16  H    0.000000
 Stoichiometry    C8H7N
 Framework group  C1[X(C8H7N)]
 Deg. of freedom    42
 Full point group                 C1      NOp   1
 Largest Abelian subgroup         C1      NOp   1
 Largest concise Abelian subgroup C1      NOp   1
                         Standard orientation:                         
 ---------------------------------------------------------------------
 Center     Atomic      Atomic             Coordinates (Angstroms)
 Number     Number       Type             X           Y           Z
 ---------------------------------------------------------------------
      1          6           0       -2.158858    0.689183    0.029741
      2          6           0       -2.133200   -0.716207   -0.015699
      3          6           0       -0.935722   -1.417509   -0.008189
      4          6           0        0.248700   -0.671151    0.003191
      5          6           0        0.250252    0.752199   -0.002659
      6          6           0       -0.983217    1.425601   -0.017299
      7          7           0        1.565699   -1.080293    0.009741
      8          6           0        1.626093    1.166837   -0.006259
      9          6           0        2.390381    0.030585    0.006881
     10          1           0        1.879667   -2.037564    0.014471
     11          1           0        1.997205    2.182326   -0.019199
     12          1           0        3.464811   -0.087877    0.007531
     13          1           0       -3.075001   -1.263995   -0.034339
     14          1           0       -0.916873   -2.506989   -0.023859
     15          1           0       -3.122537    1.203825    0.095591
     16          1           0       -1.013735    2.515101   -0.046639
 ---------------------------------------------------------------------
 Rotational constants (GHZ):           3.8861076           1.6317910           1.1494058
 Standard basis: 6-31G(d) (6D, 7F)
 There are   149 symmetry adapted cartesian basis functions of A   symmetry.
 There are   149 symmetry adapted basis functions of A   symmetry.
   149 basis functions,   280 primitive gaussians,   149 cartesian basis functions
    31 alpha electrons       31 beta electrons
       nuclear repulsion energy       400.0099183022 Hartrees.
 NAtoms=   16 NActive=   16 NUniq=   16 SFac= 1.00D+00 NAtFMM=   60 NAOKFM=F Big=F
 Integral buffers will be    131072 words long.
 Regular integral format.
 Two-electron integral symmetry is turned on.
 One-electron integrals computed using PRISM.
 NBasis=   149 RedAO= T EigKep=  4.13D-04  NBF=   149
 NBsUse=   149 1.00D-06 EigRej= -1.00D+00 NBFU=   149
 ExpMin= 1.61D-01 ExpMax= 4.17D+03 ExpMxC= 6.27D+02 IAcc=3 IRadAn=         5 AccDes= 0.00D+00
 Harris functional with IExCor=  418 and IRadAn=       5 diagonalized for initial guess.
 HarFok:  IExCor=  418 AccDes= 0.00D+00 IRadAn=         5 IDoV= 1 UseB2=F ITyADJ=14
 ICtDFT=  3500011 ScaDFX=  1.000000  1.000000  1.000000  1.000000
 FoFCou: FMM=F IPFlag=           0 FMFlag=      100000 FMFlg1=           0
         NFxFlg=           0 DoJE=T BraDBF=F KetDBF=T FulRan=T
         wScrn=  0.000000 ICntrl=       500 IOpCl=  0 I1Cent=   200000004 NGrid=           0
         NMat0=    1 NMatS0=      1 NMatT0=    0 NMatD0=    1 NMtDS0=    0 NMtDT0=    0
 Petite list used in FoFCou.
 Keep J ints in memory in canonical form, NReq=64400683.
 Requested convergence on RMS density matrix=1.00D-08 within 128 cycles.
 Requested convergence on MAX density matrix=1.00D-06.
 Requested convergence on             energy=1.00D-06.
 No special actions if energy rises.
 Integral accuracy reduced to 1.0D-05 until final iterations.
 Initial convergence to 1.0D-05 achieved.  Increase integral accuracy.
 SCF Done:  E(RB-VP86) =  -363.833068071     A.U. after   16 cycles
            NFock= 16  Conv=0.33D-08     -V/T= 2.0102
 DoSCS=F DFT=T ScalE2(SS,OS)=  1.000000  1.000000
 ExpMin= 1.61D-01 ExpMax= 4.17D+03 ExpMxC= 6.27D+02 IAcc=3 IRadAn=         5 AccDes= 0.00D+00
 HarFok:  IExCor=  205 AccDes= 0.00D+00 IRadAn=         5 IDoV=-2 UseB2=F ITyADJ=14
 ICtDFT= 12500011 ScaDFX=  1.000000  1.000000  1.000000  1.000000
 Range of M.O.s used for correlation:    10   149
 NBasis=   149 NAE=    31 NBE=    31 NFC=     9 NFV=     0
 NROrb=    140 NOA=    22 NOB=    22 NVA=   118 NVB=   118
 Keep J ints in memory in canonical form, NReq=70866525.
 Orbital symmetries:
       Occupied  (A) (A) (A) (A) (A) (A) (A) (A) (A) (A) (A) (A)
                 (A) (A) (A) (A) (A) (A) (A) (A) (A) (A) (A) (A)
                 (A) (A) (A) (A) (A) (A) (A)
       Virtual   (A) (A) (A) (A) (A) (A) (A) (A) (A) (A) (A) (A)
                 (A) (A) (A) (A) (A) (A) (A) (A) (A) (A) (A) (A)
                 (A) (A) (A) (A) (A) (A) (A) (A) (A) (A) (A) (A)
                 (A) (A) (A) (A) (A) (A) (A) (A) (A) (A) (A) (A)
                 (A) (A) (A) (A) (A) (A) (A) (A) (A) (A) (A) (A)
                 (A) (A) (A) (A) (A) (A) (A) (A) (A) (A) (A) (A)
                 (A) (A) (A) (A) (A) (A) (A) (A) (A) (A) (A) (A)
                 (A) (A) (A) (A) (A) (A) (A) (A) (A) (A) (A) (A)
                 (A) (A) (A) (A) (A) (A) (A) (A) (A) (A) (A) (A)
                 (A) (A) (A) (A) (A) (A) (A) (A) (A) (A)
    24 initial guesses have been made.
 Convergence on wavefunction:    0.000001000000000
 Iteration     1 Dimension    24 NMult     0 NNew     24
 CISAX will form    24 AO SS matrices at one time.
 New state      2 was old state      3
 New state      3 was old state      5
 New state      4 was old state      8
 New state      5 was old state      9
 New state      6 was old state     10
 Iteration     2 Dimension    48 NMult    24 NNew     24
 New state      4 was old state      5
 New state      5 was old state      4
 New state      6 was old state      9
 Iteration     3 Dimension    54 NMult    48 NNew      6
 Iteration     4 Dimension    60 NMult    54 NNew      6
 Iteration     5 Dimension    66 NMult    60 NNew      6
 Iteration     6 Dimension    72 NMult    66 NNew      6
 Iteration     7 Dimension    78 NMult    72 NNew      6
 Iteration     8 Dimension    84 NMult    78 NNew      6
 Iteration     9 Dimension    90 NMult    84 NNew      6
 Iteration    10 Dimension    96 NMult    90 NNew      6
 Iteration    11 Dimension   102 NMult    96 NNew      6
 Iteration    12 Dimension   108 NMult   102 NNew      6
 Iteration    13 Dimension   114 NMult   108 NNew      6
 Iteration    14 Dimension   120 NMult   114 NNew      6
 Iteration    15 Dimension   126 NMult   120 NNew      6
 Iteration    16 Dimension   132 NMult   126 NNew      6
 Iteration    17 Dimension   137 NMult   132 NNew      5
 Iteration    18 Dimension   139 NMult   137 NNew      2
 Iteration    19 Dimension   140 NMult   139 NNew      1
 ***********************************************************************
 Excited states from <AA,BB:AA,BB> singles matrix:
 ***********************************************************************
 
 Ground to excited state transition densities written to RWF  633
 Ground to excited state transition electric dipole moments (Au):
       state          X           Y           Z        Dip. S.      Osc.
         1        -0.3719      0.5429     -0.0104      0.4332      0.0482
         2        -0.3744     -0.0878     -0.0024      0.1479      0.0173
         3         0.8818      0.0881      0.0086      0.7854      0.1124
         4        -1.4780     -0.5765     -0.0005      2.5168      0.3760
         5        -0.0072      0.0776      0.0183      0.0064      0.0010
         6         0.8122     -0.5556     -0.0087      0.9684      0.1522
 Ground to excited state transition velocity dipole moments (Au):
       state          X           Y           Z        Dip. S.      Osc.
         1         0.0556     -0.1016      0.0026      0.0134      0.0536
         2         0.0626      0.0156      0.0004      0.0042      0.0158
         3        -0.1889     -0.0201     -0.0025      0.0361      0.1120
         4         0.3235      0.1325     -0.0010      0.1222      0.3635
         5         0.0023     -0.0181     -0.0159      0.0006      0.0017
         6        -0.1920      0.1322      0.0027      0.0543      0.1537
 Ground to excited state transition magnetic dipole moments (Au):
       state          X           Y           Z
         1         0.0031      0.0027      0.0980
         2         0.0035     -0.0027      0.0059
         3         0.0002      0.0014      0.3466
         4         0.0022      0.0038     -0.2015
         5         0.1653      0.0087      0.0070
         6         0.0155      0.0080      0.1221
 Ground to excited state transition velocity quadrupole moments (Au):
       state          XX          YY          ZZ          XY          XZ          YZ
         1         0.1191     -0.0787     -0.0056      0.0063     -0.0059      0.0038
         2         0.0580     -0.1103      0.0073      0.0197      0.0022      0.0048
         3        -0.1438      0.0998      0.0011      0.1958      0.0062     -0.0007
         4         0.0259     -0.0078     -0.0138     -0.1316     -0.0006     -0.0027
         5        -0.0419     -0.0054     -0.0040      0.0202     -0.0467      0.1017
         6         0.3956      0.0055      0.0360     -0.0580     -0.0175      0.0114
 <0|del|b> * <b|rxdel|0> + <0|del|b> * <b|delr+rdel|0>
 Rotatory Strengths (R) in cgs (10**-40 erg-esu-cm/Gauss)
       state          XX          YY          ZZ    R(velocity)    E-M Angle
         1        -1.2618      1.3221      0.5988      0.2197       89.22
         2        -0.1349      1.0395     -0.1709      0.2446       67.62
         3        -2.0689     -0.4596     -0.5451     -1.0245       90.81
         4         1.4592     -0.1309      3.1369      1.4884       88.85
         5        -2.1620      1.2404      1.2567      0.1117       88.41
         6         5.2972     -7.0562     -3.0565     -1.6052       93.20
 1/2[<0|r|b>*<b|rxdel|0> + (<0|rxdel|b>*<b|r|0>)*]
 Rotatory Strengths (R) in cgs (10**-40 erg-esu-cm/Gauss)
       state          XX          YY          ZZ     R(length)
         1         0.8195     -1.0428      0.7210      0.1659
         2         0.9349     -0.1652      0.0101      0.2599
         3        -0.1349     -0.0873     -2.1011     -0.7744
         4         2.2791      1.5546     -0.0738      1.2533
         5         0.8458     -0.4746     -0.0907      0.0935
         6        -8.9289      3.1380      0.7470     -1.6813
  1/2[<0|del|b>*<b|r|0> + (<0|r|b>*<b|del|0>)*] (Au)
       state          X           Y           Z        Dip. S.   Osc.(frdel)
         1        -0.0207     -0.0551     -0.0000      0.0758      0.0506
         2        -0.0234     -0.0014     -0.0000      0.0248      0.0165
         3        -0.1665     -0.0018     -0.0000      0.1683      0.1122
         4        -0.4781     -0.0764      0.0000      0.5545      0.3697
         5        -0.0000     -0.0014     -0.0003      0.0017      0.0011
         6        -0.1560     -0.0734     -0.0000      0.2294      0.1529

 Excitation energies and oscillator strengths:
 
 Excited State   1:      Singlet-A      4.5404 eV  273.07 nm  f=0.0482  <S**2>=0.000
      29 -> 32         0.14176
      30 -> 32        -0.12312
      30 -> 33         0.12656
      31 -> 32         0.65516
 This state for optimization and/or second-order correction.
 Total Energy, E(TD-HF/TD-DFT) =  -363.666212574    
 Copying the excited state density for this state as the 1-particle RhoCI density.
 
 Excited State   2:      Singlet-A      4.7632 eV  260.30 nm  f=0.0173  <S**2>=0.000
      30 -> 32         0.53762
      31 -> 33        -0.44757
 
 Excited State   3:      Singlet-A      5.8424 eV  212.22 nm  f=0.1124  <S**2>=0.000
      29 -> 32         0.43482
      30 -> 32        -0.21421
      30 -> 33        -0.25921
      31 -> 32        -0.11328
      31 -> 33        -0.26641
      31 -> 34         0.31761
 
 Excited State   4:      Singlet-A      6.0984 eV  203.30 nm  f=0.3760  <S**2>=0.000
      29 -> 32         0.25333
      29 -> 33         0.24229
      30 -> 32         0.32305
      31 -> 33         0.41049
      31 -> 34         0.29853
 
 Excited State   5:      Singlet-A      6.3766 eV  194.44 nm  f=0.0010  <S**2>=0.000
      31 -> 35         0.70103
 
 Excited State   6:      Singlet-A      6.4152 eV  193.27 nm  f=0.1522  <S**2>=0.000
      29 -> 34        -0.14565
      30 -> 33         0.55207
      30 -> 34        -0.29508
      31 -> 32        -0.11426
      31 -> 33        -0.11286
      31 -> 34         0.15770
 SavETr:  write IOETrn=   770 NScale= 10 NData=  16 NLR=1 NState=    6 LETran=     118.
          IDoAtm=1111111111111111
          Differentiating once with respect to electric field.
                with respect to dipole field.
          Differentiating once with respect to nuclear coordinates.
 Keep J ints in memory in canonical form, NReq=64412969.
          There are     1 degrees of freedom in the 1st order CPHF.  IDoFFX=0 NUNeed=     1.
 LinEq1:  Iter=  0 NonCon=     1 RMS=2.42D-02 Max=7.35D-01 NDo=     1
 AX will form     1 AO Fock derivatives at one time.
 LinEq1:  Iter=  1 NonCon=     1 RMS=1.19D-02 Max=3.19D-01 NDo=     1
 LinEq1:  Iter=  2 NonCon=     1 RMS=1.29D-02 Max=3.91D-01 NDo=     1
 LinEq1:  Iter=  3 NonCon=     1 RMS=5.95D-03 Max=1.43D-01 NDo=     1
 LinEq1:  Iter=  4 NonCon=     1 RMS=7.10D-03 Max=1.76D-01 NDo=     1
 LinEq1:  Iter=  5 NonCon=     1 RMS=2.67D-03 Max=5.69D-02 NDo=     1
 LinEq1:  Iter=  6 NonCon=     1 RMS=1.90D-03 Max=3.04D-02 NDo=     1
 LinEq1:  Iter=  7 NonCon=     1 RMS=9.76D-04 Max=1.98D-02 NDo=     1
 LinEq1:  Iter=  8 NonCon=     1 RMS=6.02D-04 Max=1.15D-02 NDo=     1
 LinEq1:  Iter=  9 NonCon=     1 RMS=4.28D-04 Max=7.55D-03 NDo=     1
 LinEq1:  Iter= 10 NonCon=     1 RMS=2.52D-04 Max=3.84D-03 NDo=     1
 LinEq1:  Iter= 11 NonCon=     1 RMS=1.37D-04 Max=1.58D-03 NDo=     1
 LinEq1:  Iter= 12 NonCon=     1 RMS=5.31D-05 Max=8.35D-04 NDo=     1
 LinEq1:  Iter= 13 NonCon=     1 RMS=4.01D-05 Max=7.76D-04 NDo=     1
 LinEq1:  Iter= 14 NonCon=     1 RMS=9.02D-06 Max=9.58D-05 NDo=     1
 LinEq1:  Iter= 15 NonCon=     1 RMS=2.55D-06 Max=4.74D-05 NDo=     1
 LinEq1:  Iter= 16 NonCon=     1 RMS=1.88D-06 Max=2.86D-05 NDo=     1
 LinEq1:  Iter= 17 NonCon=     1 RMS=6.57D-07 Max=6.81D-06 NDo=     1
 LinEq1:  Iter= 18 NonCon=     1 RMS=1.95D-07 Max=1.45D-06 NDo=     1
 LinEq1:  Iter= 19 NonCon=     1 RMS=4.78D-08 Max=4.71D-07 NDo=     1
 LinEq1:  Iter= 20 NonCon=     1 RMS=7.74D-09 Max=1.24D-07 NDo=     1
 LinEq1:  Iter= 21 NonCon=     1 RMS=1.29D-09 Max=1.65D-08 NDo=     1
 LinEq1:  Iter= 22 NonCon=     1 RMS=2.29D-10 Max=2.06D-09 NDo=     1
 LinEq1:  Iter= 23 NonCon=     0 RMS=3.52D-11 Max=2.71D-10 NDo=     1
 Linear equations converged to 1.000D-10 1.000D-09 after    23 iterations.
 End of Minotr F.D. properties file   721 does not exist.
 End of Minotr F.D. properties file   722 does not exist.
 End of Minotr F.D. properties file   788 does not exist.

 **********************************************************************

            Population analysis using the CI Density.

 **********************************************************************

 Orbital symmetries:
       Occupied  (A) (A) (A) (A) (A) (A) (A) (A) (A) (A) (A) (A)
                 (A) (A) (A) (A) (A) (A) (A) (A) (A) (A) (A) (A)
                 (A) (A) (A) (A) (A) (A) (A)
       Virtual   (A) (A) (A) (A) (A) (A) (A) (A) (A) (A) (A) (A)
                 (A) (A) (A) (A) (A) (A) (A) (A) (A) (A) (A) (A)
                 (A) (A) (A) (A) (A) (A) (A) (A) (A) (A) (A) (A)
                 (A) (A) (A) (A) (A) (A) (A) (A) (A) (A) (A) (A)
                 (A) (A) (A) (A) (A) (A) (A) (A) (A) (A) (A) (A)
                 (A) (A) (A) (A) (A) (A) (A) (A) (A) (A) (A) (A)
                 (A) (A) (A) (A) (A) (A) (A) (A) (A) (A) (A) (A)
                 (A) (A) (A) (A) (A) (A) (A) (A) (A) (A) (A) (A)
                 (A) (A) (A) (A) (A) (A) (A) (A) (A) (A) (A) (A)
                 (A) (A) (A) (A) (A) (A) (A) (A) (A) (A)
 The electronic state is 1-A.
 Alpha  occ. eigenvalues --  -14.06459  -9.94146  -9.93879  -9.91059  -9.90565
 Alpha  occ. eigenvalues --   -9.90458  -9.90441  -9.90071  -9.89854  -0.89487
 Alpha  occ. eigenvalues --   -0.75678  -0.70510  -0.66027  -0.64321  -0.56011
 Alpha  occ. eigenvalues --   -0.53335  -0.51862  -0.48162  -0.42816  -0.41600
 Alpha  occ. eigenvalues --   -0.38495  -0.37616  -0.36982  -0.35882  -0.34168
 Alpha  occ. eigenvalues --   -0.30695  -0.28975  -0.28680  -0.23975  -0.19170
 Alpha  occ. eigenvalues --   -0.17511
 Alpha virt. eigenvalues --   -0.03185   0.00293   0.03999   0.05749   0.08075
 Alpha virt. eigenvalues --    0.11125   0.12020   0.14236   0.14394   0.15431
 Alpha virt. eigenvalues --    0.16353   0.19031   0.21553   0.23572   0.27160
 Alpha virt. eigenvalues --    0.30169   0.31536   0.35316   0.38418   0.46045
 Alpha virt. eigenvalues --    0.48079   0.48579   0.48896   0.51872   0.52001
 Alpha virt. eigenvalues --    0.52771   0.54897   0.55165   0.55887   0.57315
 Alpha virt. eigenvalues --    0.57910   0.58235   0.58535   0.60168   0.61073
 Alpha virt. eigenvalues --    0.65384   0.66872   0.72704   0.76584   0.76888
 Alpha virt. eigenvalues --    0.77504   0.79408   0.80095   0.80223   0.81463
 Alpha virt. eigenvalues --    0.84093   0.86292   0.89307   0.92071   0.93225
 Alpha virt. eigenvalues --    0.93733   1.00109   1.01971   1.07538   1.08348
 Alpha virt. eigenvalues --    1.15273   1.18356   1.20294   1.24629   1.26871
 Alpha virt. eigenvalues --    1.28445   1.32274   1.35511   1.38140   1.39927
 Alpha virt. eigenvalues --    1.40791   1.43287   1.44969   1.45349   1.49791
 Alpha virt. eigenvalues --    1.55073   1.68624   1.73716   1.75238   1.81796
 Alpha virt. eigenvalues --    1.82666   1.84155   1.87859   1.88491   1.92841
 Alpha virt. eigenvalues --    1.93257   1.97813   2.02327   2.06098   2.06996
 Alpha virt. eigenvalues --    2.09791   2.15455   2.17240   2.18118   2.19105
 Alpha virt. eigenvalues --    2.21211   2.30379   2.31163   2.33018   2.40959
 Alpha virt. eigenvalues --    2.48252   2.51131   2.54264   2.58973   2.59211
 Alpha virt. eigenvalues --    2.64240   2.69215   2.71779   2.75718   2.81591
 Alpha virt. eigenvalues --    2.87926   2.99094   3.13853   3.34730   3.90042
 Alpha virt. eigenvalues --    4.00969   4.02213   4.06946   4.11703   4.23636
 Alpha virt. eigenvalues --    4.31354   4.36755   4.66970
          Condensed to atoms (all electrons):
               1          2          3          4          5          6
     1  C    4.940223   0.562494  -0.036213  -0.046726   0.013817   0.424211
     2  C    0.562494   4.973529   0.406405   0.023728  -0.035712  -0.037716
     3  C   -0.036213   0.406405   5.289377   0.445794  -0.072541  -0.044998
     4  C   -0.046726   0.023728   0.445794   4.837624   0.502335  -0.052589
     5  C    0.013817  -0.035712  -0.072541   0.502335   4.770619   0.440452
     6  C    0.424211  -0.037716  -0.044998  -0.052589   0.440452   5.315739
     7  N   -0.000100   0.006586  -0.096147   0.177041  -0.023554   0.011911
     8  C    0.009765  -0.000099   0.015348  -0.013070   0.362630  -0.113237
     9  C   -0.000426  -0.000222   0.006456  -0.120156  -0.031998   0.014168
    10  H   -0.000005  -0.000079  -0.003518  -0.022861   0.006407  -0.000119
    11  H   -0.000017   0.000004  -0.000138   0.007106  -0.029627  -0.005744
    12  H    0.000005   0.000001  -0.000130   0.005784   0.001988  -0.000175
    13  H   -0.040305   0.350955  -0.043325   0.003299   0.001325   0.005045
    14  H    0.005134  -0.040655   0.345448  -0.047776   0.004913   0.000757
    15  H    0.351835  -0.040935   0.005121   0.001196   0.002895  -0.042235
    16  H   -0.047209   0.005381   0.000780   0.005865  -0.047341   0.351372
               7          8          9         10         11         12
     1  C   -0.000100   0.009765  -0.000426  -0.000005  -0.000017   0.000005
     2  C    0.006586  -0.000099  -0.000222  -0.000079   0.000004   0.000001
     3  C   -0.096147   0.015348   0.006456  -0.003518  -0.000138  -0.000130
     4  C    0.177041  -0.013070  -0.120156  -0.022861   0.007106   0.005784
     5  C   -0.023554   0.362630  -0.031998   0.006407  -0.029627   0.001988
     6  C    0.011911  -0.113237   0.014168  -0.000119  -0.005744  -0.000175
     7  N    6.985932  -0.066408   0.347856   0.310845   0.004313  -0.046600
     8  C   -0.066408   5.262561   0.410310   0.005249   0.362342  -0.031930
     9  C    0.347856   0.410310   5.067539  -0.033338  -0.055836   0.366236
    10  H    0.310845   0.005249  -0.033338   0.383028  -0.000061  -0.001827
    11  H    0.004313   0.362342  -0.055836  -0.000061   0.542891  -0.000983
    12  H   -0.046600  -0.031930   0.366236  -0.001827  -0.000983   0.537500
    13  H   -0.000128   0.000013   0.000003  -0.000003  -0.000000  -0.000000
    14  H   -0.007632  -0.000356  -0.000007   0.003240   0.000003   0.000004
    15  H    0.000004  -0.000191   0.000005  -0.000000  -0.000002  -0.000000
    16  H   -0.000152  -0.008534  -0.000054   0.000005   0.002477   0.000000
              13         14         15         16
     1  C   -0.040305   0.005134   0.351835  -0.047209
     2  C    0.350955  -0.040655  -0.040935   0.005381
     3  C   -0.043325   0.345448   0.005121   0.000780
     4  C    0.003299  -0.047776   0.001196   0.005865
     5  C    0.001325   0.004913   0.002895  -0.047341
     6  C    0.005045   0.000757  -0.042235   0.351372
     7  N   -0.000128  -0.007632   0.000004  -0.000152
     8  C    0.000013  -0.000356  -0.000191  -0.008534
     9  C    0.000003  -0.000007   0.000005  -0.000054
    10  H   -0.000003   0.003240  -0.000000   0.000005
    11  H   -0.000000   0.000003  -0.000002   0.002477
    12  H   -0.000000   0.000004  -0.000000   0.000000
    13  H    0.621999  -0.006887  -0.006366  -0.000216
    14  H   -0.006887   0.642349  -0.000201   0.000021
    15  H   -0.006366  -0.000201   0.618074  -0.006562
    16  H   -0.000216   0.000021  -0.006562   0.637595
 Mulliken charges:
               1
     1  C   -0.136484
     2  C   -0.173664
     3  C   -0.217720
     4  C    0.293404
     5  C    0.133394
     6  C   -0.266842
     7  N   -0.603767
     8  C   -0.194394
     9  C    0.029465
    10  H    0.353036
    11  H    0.173273
    12  H    0.170125
    13  H    0.114591
    14  H    0.101648
    15  H    0.117363
    16  H    0.106571
 Sum of Mulliken charges =  -0.00000
 Mulliken charges with hydrogens summed into heavy atoms:
               1
     1  C   -0.019121
     2  C   -0.059073
     3  C   -0.116072
     4  C    0.293404
     5  C    0.133394
     6  C   -0.160271
     7  N   -0.250731
     8  C   -0.021121
     9  C    0.199590
 Electronic spatial extent (au):  <R**2>=           1007.8084
 Charge=             -0.0000 electrons
 Dipole moment (field-independent basis, Debye):
    X=              4.2642    Y=             -1.2551    Z=              0.0224  Tot=              4.4451
 Quadrupole moment (field-independent basis, Debye-Ang):
   XX=            -43.6313   YY=            -44.0798   ZZ=            -56.4581
   XY=             -2.8493   XZ=             -0.0775   YZ=              0.0024
 Traceless Quadrupole moment (field-independent basis, Debye-Ang):
   XX=              4.4251   YY=              3.9766   ZZ=             -8.4017
   XY=             -2.8493   XZ=             -0.0775   YZ=              0.0024
 Octapole moment (field-independent basis, Debye-Ang**2):
  XXX=             25.3743  YYY=             -9.4676  ZZZ=              0.0714  XYY=             15.5587
  XXY=             -6.0512  XXZ=              0.3872  XZZ=              4.2201  YZZ=             -1.2618
  YYZ=             -0.1568  XYZ=             -0.4481
 Hexadecapole moment (field-independent basis, Debye-Ang**3):
 XXXX=           -804.4641 YYYY=           -368.4241 ZZZZ=            -57.9332 XXXY=            -19.3007
 XXXZ=             -1.0108 YYYX=            -17.6484 YYYZ=             -0.4533 ZZZX=             -0.0602
 ZZZY=             -0.0151 XXYY=           -186.0745 XXZZ=           -176.3930 YYZZ=            -86.9520
 XXYZ=              0.6853 YYXZ=              0.1055 ZZXY=             -2.6480
 N-N= 4.000099183022D+02 E-N=-1.643188751549D+03  KE= 3.603396026856D+02
 Calling FoFJK, ICntrl=  10005527 FMM=F ISym2X=0 I1Cent= 0 IOpClX= 0 NMat=1 NMatS=1 NMatT=0.
 ***** Axes restored to original set *****
 -------------------------------------------------------------------
 Center     Atomic                   Forces (Hartrees/Bohr)
 Number     Number              X              Y              Z
 -------------------------------------------------------------------
      1        6          -0.027234420   -0.030181510   -0.002043021
      2        6          -0.040211887    0.033915915    0.003224000
      3        6           0.029822568   -0.038800718   -0.002076776
      4        6          -0.020509370    0.028504102   -0.000009509
      5        6          -0.001428518   -0.025348905   -0.001504072
      6        6           0.010409520    0.038852024    0.001808891
      7        7           0.020002654    0.023850101    0.000368037
      8        6          -0.024201920    0.023114333   -0.000040066
      9        6           0.044123504   -0.047171728    0.000174617
     10        1           0.004146522   -0.009753639   -0.000022027
     11        1           0.002820283    0.005400119    0.000135879
     12        1           0.004906635   -0.000864844    0.000006723
     13        1          -0.003005747   -0.001756639    0.001333060
     14        1           0.000397548   -0.003215827    0.000046999
     15        1          -0.000433215    0.000371909   -0.002029932
     16        1           0.000395842    0.003085306    0.000627196
 -------------------------------------------------------------------
 Cartesian Forces:  Max     0.047171728 RMS     0.018713378

 GradGradGradGradGradGradGradGradGradGradGradGradGradGradGradGradGradGrad
 Berny optimization.
 FormGI is forming the generalized inverse of G from B-inverse, IUseBI=4.
 Internal  Forces:  Max     0.049046571 RMS     0.010870066
 Search for a local minimum.
 Step number   1 out of a maximum of   94
 All quantities printed in internal units (Hartrees-Bohrs-Radians)
 Mixed Optimization -- RFO/linear search
 Second derivative matrix not updated -- first step.
 ITU=  0
     Eigenvalues ---    0.01796   0.01876   0.01936   0.01957   0.02014
     Eigenvalues ---    0.02077   0.02091   0.02104   0.02135   0.02150
     Eigenvalues ---    0.02171   0.02192   0.02277   0.15995   0.15997
     Eigenvalues ---    0.15999   0.15999   0.16000   0.16000   0.16000
     Eigenvalues ---    0.21967   0.22184   0.22640   0.24007   0.24641
     Eigenvalues ---    0.34301   0.34775   0.34841   0.34849   0.35843
     Eigenvalues ---    0.35881   0.36568   0.37979   0.41971   0.43107
     Eigenvalues ---    0.45016   0.46141   0.46401   0.46720   0.46776
     Eigenvalues ---    0.47290   0.50149
 RFO step:  Lambda=-2.25520157D-02 EMin= 1.79641872D-02
 Linear search not attempted -- first point.
 Iteration  1 RMS(Cart)=  0.03896256 RMS(Int)=  0.00047507
 Iteration  2 RMS(Cart)=  0.00057767 RMS(Int)=  0.00018242
 Iteration  3 RMS(Cart)=  0.00000024 RMS(Int)=  0.00018242
 Variable       Old X    -DE/DX   Delta X   Delta X   Delta X     New X
                                 (Linear)    (Quad)   (Total)
    R1        2.65763  -0.00569   0.00000  -0.00989  -0.00990   2.64773
    R2        2.62302   0.03788   0.00000   0.07695   0.07694   2.69995
    R3        2.06825   0.00043   0.00000   0.00119   0.00119   2.06944
    R4        2.62246   0.04905   0.00000   0.09932   0.09933   2.72179
    R5        2.05920   0.00346   0.00000   0.00932   0.00932   2.06852
    R6        2.64564   0.01759   0.00000   0.03564   0.03566   2.68130
    R7        2.05934   0.00322   0.00000   0.00868   0.00868   2.06802
    R8        2.68977  -0.00759   0.00000  -0.02339  -0.02364   2.66613
    R9        2.60613   0.03372   0.00000   0.06327   0.06352   2.66965
   R10        2.65581   0.02497   0.00000   0.05195   0.05194   2.70775
   R11        2.71547   0.01743   0.00000   0.04158   0.04119   2.75666
   R12        2.06041   0.00306   0.00000   0.00825   0.00825   2.06866
   R13        2.61450  -0.01008   0.00000  -0.01798  -0.01757   2.59692
   R14        1.90381   0.01056   0.00000   0.02170   0.02170   1.92552
   R15        2.58787   0.04570   0.00000   0.08898   0.08899   2.67687
   R16        2.04327   0.00604   0.00000   0.01585   0.01585   2.05912
   R17        2.04268   0.00497   0.00000   0.01304   0.01304   2.05572
    A1        2.11021   0.00185   0.00000   0.01363   0.01342   2.12363
    A2        2.08048  -0.00079   0.00000  -0.00606  -0.00600   2.07448
    A3        2.09247  -0.00105   0.00000  -0.00747  -0.00741   2.08506
    A4        2.11832  -0.00160   0.00000  -0.00038  -0.00057   2.11775
    A5        2.07961   0.00078   0.00000   0.00018   0.00024   2.07985
    A6        2.08500   0.00083   0.00000   0.00047   0.00053   2.08553
    A7        2.04953  -0.00515   0.00000  -0.02147  -0.02163   2.02790
    A8        2.11773   0.00293   0.00000   0.01270   0.01276   2.13049
    A9        2.11584   0.00223   0.00000   0.00890   0.00895   2.12479
   A10        2.13411   0.00532   0.00000   0.01900   0.01887   2.15298
   A11        2.27810  -0.00626   0.00000  -0.01410  -0.01401   2.26410
   A12        1.87093   0.00094   0.00000  -0.00484  -0.00483   1.86610
   A13        2.06944   0.00601   0.00000   0.01903   0.01917   2.08861
   A14        1.86461  -0.00382   0.00000  -0.01782  -0.01839   1.84622
   A15        2.34906  -0.00219   0.00000  -0.00116  -0.00074   2.34833
   A16        2.08151  -0.00630   0.00000  -0.02667  -0.02691   2.05460
   A17        2.10290   0.00364   0.00000   0.01608   0.01615   2.11905
   A18        2.09860   0.00268   0.00000   0.01086   0.01093   2.10953
   A19        1.90817   0.01361   0.00000   0.05335   0.05390   1.96207
   A20        2.18895  -0.00595   0.00000  -0.02198  -0.02226   2.16669
   A21        2.18607  -0.00766   0.00000  -0.03137  -0.03164   2.15443
   A22        1.87017   0.00887   0.00000   0.04198   0.04160   1.91177
   A23        2.21386  -0.00362   0.00000  -0.01654  -0.01635   2.19752
   A24        2.19915  -0.00525   0.00000  -0.02545  -0.02526   2.17389
   A25        1.91087  -0.01961   0.00000  -0.07262  -0.07225   1.83862
   A26        2.09958   0.00947   0.00000   0.03453   0.03434   2.13392
   A27        2.27270   0.01013   0.00000   0.03813   0.03794   2.31064
    D1        0.08496  -0.00197   0.00000  -0.04434  -0.04451   0.04045
    D2       -3.08112  -0.00141   0.00000  -0.03122  -0.03134  -3.11247
    D3       -3.06462  -0.00138   0.00000  -0.03061  -0.03064  -3.09526
    D4        0.05248  -0.00082   0.00000  -0.01749  -0.01748   0.03500
    D5       -0.08896   0.00172   0.00000   0.04039   0.04042  -0.04854
    D6        3.07230   0.00096   0.00000   0.02392   0.02410   3.09641
    D7        3.06067   0.00113   0.00000   0.02656   0.02647   3.08715
    D8       -0.06125   0.00036   0.00000   0.01009   0.01015  -0.05110
    D9       -0.03480   0.00096   0.00000   0.02318   0.02308  -0.01173
   D10        3.12057   0.00045   0.00000   0.01266   0.01273   3.13330
   D11        3.13135   0.00040   0.00000   0.01002   0.00988   3.14123
   D12        0.00354  -0.00011   0.00000  -0.00050  -0.00047   0.00307
   D13       -0.00812  -0.00014   0.00000   0.00081   0.00104  -0.00708
   D14       -3.13901  -0.00044   0.00000  -0.00614  -0.00589   3.13828
   D15        3.11971   0.00038   0.00000   0.01135   0.01139   3.13110
   D16       -0.01119   0.00008   0.00000   0.00440   0.00445  -0.00673
   D17        0.00259  -0.00029   0.00000  -0.00502  -0.00487  -0.00228
   D18       -3.12801  -0.00043   0.00000  -0.00904  -0.00894  -3.13695
   D19        3.13567  -0.00010   0.00000   0.00043   0.00062   3.13629
   D20        0.00507  -0.00024   0.00000  -0.00360  -0.00346   0.00162
   D21        3.13110   0.00038   0.00000   0.00641   0.00617   3.13727
   D22       -0.00902   0.00032   0.00000   0.00624   0.00609  -0.00293
   D23       -0.00102   0.00008   0.00000   0.00013  -0.00001  -0.00104
   D24       -3.14114   0.00002   0.00000  -0.00004  -0.00009  -3.14124
   D25        0.04569  -0.00088   0.00000  -0.01661  -0.01633   0.02936
   D26       -3.11552  -0.00010   0.00000  -0.00012  -0.00004  -3.11556
   D27       -3.11068  -0.00068   0.00000  -0.01126  -0.01090  -3.12158
   D28        0.01129   0.00010   0.00000   0.00523   0.00539   0.01668
   D29       -0.00728   0.00029   0.00000   0.00557   0.00557  -0.00171
   D30        3.13205   0.00019   0.00000   0.00425   0.00427   3.13632
   D31       -3.13531   0.00005   0.00000   0.00045   0.00045  -3.13486
   D32        0.00402  -0.00005   0.00000  -0.00087  -0.00085   0.00317
   D33       -0.00369   0.00016   0.00000   0.00371   0.00365  -0.00004
   D34       -3.13774  -0.00004   0.00000  -0.00035  -0.00029  -3.13803
   D35        3.13643   0.00022   0.00000   0.00389   0.00373   3.14017
   D36        0.00238   0.00002   0.00000  -0.00017  -0.00021   0.00218
   D37        0.00679  -0.00030   0.00000  -0.00581  -0.00570   0.00108
   D38        3.13985  -0.00009   0.00000  -0.00132  -0.00130   3.13855
   D39       -3.13257  -0.00020   0.00000  -0.00451  -0.00444  -3.13701
   D40        0.00050   0.00000   0.00000  -0.00002  -0.00004   0.00046
         Item               Value     Threshold  Converged?
 Maximum Force            0.049047     0.000450     NO 
 RMS     Force            0.010870     0.000300     NO 
 Maximum Displacement     0.152970     0.001800     NO 
 RMS     Displacement     0.038852     0.001200     NO 
 Predicted change in Energy=-1.198065D-02
 GradGradGradGradGradGradGradGradGradGradGradGradGradGradGradGradGradGrad

                          Input orientation:                          
 ---------------------------------------------------------------------
 Center     Atomic      Atomic             Coordinates (Angstroms)
 Number     Number       Type             X           Y           Z
 ---------------------------------------------------------------------
      1          6           0       -2.207996    0.687352    0.016213
      2          6           0       -2.181083   -0.713341   -0.005528
      3          6           0       -0.936774   -1.438722   -0.007406
      4          6           0        0.245455   -0.654173   -0.001028
      5          6           0        0.240246    0.756673   -0.001566
      6          6           0       -1.007358    1.461320   -0.011688
      7          7           0        1.598525   -1.060319    0.002652
      8          6           0        1.642555    1.158565   -0.000329
      9          6           0        2.465711    0.005750    0.003203
     10          1           0        1.903807   -2.032451    0.003508
     11          1           0        2.013752    2.183020   -0.004997
     12          1           0        3.545758   -0.124221    0.002601
     13          1           0       -3.126476   -1.265054   -0.010554
     14          1           0       -0.901862   -2.532477   -0.016584
     15          1           0       -3.176353    1.196768    0.061235
     16          1           0       -1.034258    2.555391   -0.036742
 ---------------------------------------------------------------------
                    Distance matrix (angstroms):
                    1          2          3          4          5
     1  C    0.000000
     2  C    1.401120   0.000000
     3  C    2.477247   1.440308   0.000000
     4  C    2.796321   2.427264   1.418881   0.000000
     5  C    2.449287   2.832629   2.491017   1.410856   0.000000
     6  C    1.428754   2.471198   2.900904   2.458651   1.432880
     7  N    4.188573   3.795510   2.563402   1.412716   2.268568
     8  C    3.879312   4.257261   3.660449   2.288648   1.458764
     9  C    4.723165   4.702112   3.696419   2.316258   2.348745
    10  H    4.929951   4.292605   2.901988   2.156340   3.247565
    11  H    4.478909   5.097602   4.671468   3.343135   2.275918
    12  H    5.810725   5.757068   4.671306   3.342583   3.420878
    13  H    2.157825   1.094615   2.196581   3.426834   3.927121
    14  H    3.474818   2.223911   1.094351   2.201046   3.481830
    15  H    1.095101   2.154887   3.459224   3.890839   3.445398
    16  H    2.206816   3.464216   3.995410   3.455466   2.204764
                    6          7          8          9         10
     6  C    0.000000
     7  N    3.626224   0.000000
     8  C    2.667176   2.219323   0.000000
     9  C    3.765782   1.374233   1.416538   0.000000
    10  H    4.547697   1.018940   3.201695   2.114238   0.000000
    11  H    3.106122   3.269820   1.089640   2.223699   4.216913
    12  H    4.821308   2.160555   2.295154   1.087840   2.517408
    13  H    3.453083   4.729453   5.349551   5.734779   5.088502
    14  H    3.995193   2.901647   4.483092   4.217053   2.849949
    15  H    2.186285   5.281792   4.819453   5.766695   6.019901
    16  H    1.094688   4.472858   3.019566   4.330363   5.448132
                   11         12         13         14         15
    11  H    0.000000
    12  H    2.769561   0.000000
    13  H    6.189603   6.769076   0.000000
    14  H    5.544082   5.057805   2.560333   0.000000
    15  H    5.283395   6.850929   2.463373   4.368825   0.000000
    16  H    3.070835   5.306451   4.355900   5.089630   2.538508
                   16
    16  H    0.000000
 Stoichiometry    C8H7N
 Framework group  C1[X(C8H7N)]
 Deg. of freedom    42
 Full point group                 C1      NOp   1
 Largest Abelian subgroup         C1      NOp   1
 Largest concise Abelian subgroup C1      NOp   1
                         Standard orientation:                         
 ---------------------------------------------------------------------
 Center     Atomic      Atomic             Coordinates (Angstroms)
 Number     Number       Type             X           Y           Z
 ---------------------------------------------------------------------
      1          6           0       -2.213284    0.666709    0.015590
      2          6           0       -2.174702   -0.733723   -0.005365
      3          6           0       -0.924396   -1.448719   -0.006415
      4          6           0        0.251258   -0.654350   -0.000068
      5          6           0        0.234302    0.756403   -0.001390
      6          6           0       -1.019122    1.450632   -0.012329
      7          7           0        1.607661   -1.049215    0.004300
      8          6           0        1.633216    1.169957    0.000104
      9          6           0        2.465940    0.024038    0.004556
     10          1           0        1.921026   -2.018770    0.005799
     11          1           0        1.995872    2.197465   -0.005005
     12          1           0        3.547032   -0.096937    0.004396
     13          1           0       -3.115468   -1.293290   -0.010408
     14          1           0       -0.880376   -2.542150   -0.014975
     15          1           0       -3.185864    1.168070    0.059999
     16          1           0       -1.055122    2.544427   -0.037999
 ---------------------------------------------------------------------
 Rotational constants (GHZ):           3.8526514           1.5637941           1.1123643
 Standard basis: 6-31G(d) (6D, 7F)
 There are   149 symmetry adapted cartesian basis functions of A   symmetry.
 There are   149 symmetry adapted basis functions of A   symmetry.
   149 basis functions,   280 primitive gaussians,   149 cartesian basis functions
    31 alpha electrons       31 beta electrons
       nuclear repulsion energy       394.4580387441 Hartrees.
 NAtoms=   16 NActive=   16 NUniq=   16 SFac= 1.00D+00 NAtFMM=   60 NAOKFM=F Big=F
 Integral buffers will be    131072 words long.
 Regular integral format.
 Two-electron integral symmetry is turned on.
 One-electron integrals computed using PRISM.
 NBasis=   149 RedAO= T EigKep=  4.80D-04  NBF=   149
 NBsUse=   149 1.00D-06 EigRej= -1.00D+00 NBFU=   149
 Initial guess from the checkpoint file:  "FuncsBVP86.chk"
 B after Tr=    -0.000000    0.000000   -0.000000
         Rot=    0.999991   -0.000054   -0.000004   -0.004276 Ang=  -0.49 deg.
 ExpMin= 1.61D-01 ExpMax= 4.17D+03 ExpMxC= 6.27D+02 IAcc=3 IRadAn=         5 AccDes= 0.00D+00
 Harris functional with IExCor=  418 and IRadAn=       5 diagonalized for initial guess.
 HarFok:  IExCor=  418 AccDes= 0.00D+00 IRadAn=         5 IDoV= 1 UseB2=F ITyADJ=14
 ICtDFT=  3500011 ScaDFX=  1.000000  1.000000  1.000000  1.000000
 FoFCou: FMM=F IPFlag=           0 FMFlag=      100000 FMFlg1=           0
         NFxFlg=           0 DoJE=T BraDBF=F KetDBF=T FulRan=T
         wScrn=  0.000000 ICntrl=       500 IOpCl=  0 I1Cent=   200000004 NGrid=           0
         NMat0=    1 NMatS0=      1 NMatT0=    0 NMatD0=    1 NMtDS0=    0 NMtDT0=    0
 Petite list used in FoFCou.
 Keep J ints in memory in canonical form, NReq=64400683.
 Requested convergence on RMS density matrix=1.00D-08 within 128 cycles.
 Requested convergence on MAX density matrix=1.00D-06.
 Requested convergence on             energy=1.00D-06.
 No special actions if energy rises.
 Integral accuracy reduced to 1.0D-05 until final iterations.
 Initial convergence to 1.0D-05 achieved.  Increase integral accuracy.
 SCF Done:  E(RB-VP86) =  -363.826936563     A.U. after   13 cycles
            NFock= 13  Conv=0.43D-08     -V/T= 2.0118
 DoSCS=F DFT=T ScalE2(SS,OS)=  1.000000  1.000000
 ExpMin= 1.61D-01 ExpMax= 4.17D+03 ExpMxC= 6.27D+02 IAcc=3 IRadAn=         5 AccDes= 0.00D+00
 HarFok:  IExCor=  205 AccDes= 0.00D+00 IRadAn=         5 IDoV=-2 UseB2=F ITyADJ=14
 ICtDFT= 12500011 ScaDFX=  1.000000  1.000000  1.000000  1.000000
 Range of M.O.s used for correlation:    10   149
 NBasis=   149 NAE=    31 NBE=    31 NFC=     9 NFV=     0
 NROrb=    140 NOA=    22 NOB=    22 NVA=   118 NVB=   118
 Keep J ints in memory in canonical form, NReq=66017397.
 Orbital symmetries:
       Occupied  (A) (A) (A) (A) (A) (A) (A) (A) (A) (A) (A) (A)
                 (A) (A) (A) (A) (A) (A) (A) (A) (A) (A) (A) (A)
                 (A) (A) (A) (A) (A) (A) (A)
       Virtual   (A) (A) (A) (A) (A) (A) (A) (A) (A) (A) (A) (A)
                 (A) (A) (A) (A) (A) (A) (A) (A) (A) (A) (A) (A)
                 (A) (A) (A) (A) (A) (A) (A) (A) (A) (A) (A) (A)
                 (A) (A) (A) (A) (A) (A) (A) (A) (A) (A) (A) (A)
                 (A) (A) (A) (A) (A) (A) (A) (A) (A) (A) (A) (A)
                 (A) (A) (A) (A) (A) (A) (A) (A) (A) (A) (A) (A)
                 (A) (A) (A) (A) (A) (A) (A) (A) (A) (A) (A) (A)
                 (A) (A) (A) (A) (A) (A) (A) (A) (A) (A) (A) (A)
                 (A) (A) (A) (A) (A) (A) (A) (A) (A) (A) (A) (A)
                 (A) (A) (A) (A) (A) (A) (A) (A) (A) (A)
 Generating guess from densities on rwf.
 Convergence on wavefunction:    0.000001000000000
 Iteration     1 Dimension     6 NMult     0 NNew      6
 CISAX will form     6 AO SS matrices at one time.
 Iteration     2 Dimension    12 NMult     6 NNew      6
 Iteration     3 Dimension    18 NMult    12 NNew      6
 Iteration     4 Dimension    24 NMult    18 NNew      6
 Iteration     5 Dimension    30 NMult    24 NNew      6
 Iteration     6 Dimension    36 NMult    30 NNew      6
 Iteration     7 Dimension    42 NMult    36 NNew      6
 Iteration     8 Dimension    48 NMult    42 NNew      6
 Iteration     9 Dimension    54 NMult    48 NNew      6
 Iteration    10 Dimension    60 NMult    54 NNew      6
 Iteration    11 Dimension    66 NMult    60 NNew      6
 Iteration    12 Dimension    72 NMult    66 NNew      6
 Iteration    13 Dimension    78 NMult    72 NNew      6
 Iteration    14 Dimension    84 NMult    78 NNew      6
 Iteration    15 Dimension    90 NMult    84 NNew      6
 Iteration    16 Dimension    96 NMult    90 NNew      6
 Iteration    17 Dimension   102 NMult    96 NNew      6
 Iteration    18 Dimension   107 NMult   102 NNew      5
 Iteration    19 Dimension   111 NMult   107 NNew      4
 Iteration    20 Dimension   114 NMult   111 NNew      3
 Iteration    21 Dimension   116 NMult   114 NNew      2
 Iteration    22 Dimension   118 NMult   116 NNew      2
 Iteration    23 Dimension   119 NMult   118 NNew      1
 Iteration    24 Dimension   120 NMult   119 NNew      1
 ***********************************************************************
 Excited states from <AA,BB:AA,BB> singles matrix:
 ***********************************************************************
 
 Ground to excited state transition densities written to RWF  633
 Ground to excited state transition electric dipole moments (Au):
       state          X           Y           Z        Dip. S.      Osc.
         1        -0.4457      0.5407     -0.0040      0.4910      0.0485
         2        -0.2054     -0.1546     -0.0001      0.0661      0.0074
         3         0.6333     -0.2697      0.0033      0.4738      0.0640
         4        -1.7180     -0.4854     -0.0007      3.1871      0.4531
         5         0.0439      0.0104      0.0234      0.0026      0.0004
         6         0.5182     -0.3936     -0.0051      0.4235      0.0659
 Ground to excited state transition velocity dipole moments (Au):
       state          X           Y           Z        Dip. S.      Osc.
         1         0.0591     -0.0913      0.0010      0.0118      0.0532
         2         0.0328      0.0278     -0.0001      0.0018      0.0073
         3        -0.1284      0.0550     -0.0010      0.0195      0.0642
         4         0.3575      0.1067     -0.0005      0.1392      0.4350
         5        -0.0096     -0.0022     -0.0176      0.0004      0.0012
         6        -0.1219      0.0949      0.0023      0.0239      0.0682
 Ground to excited state transition magnetic dipole moments (Au):
       state          X           Y           Z
         1         0.0028      0.0016      0.0980
         2         0.0005     -0.0017      0.0658
         3         0.0014      0.0018      0.2250
         4         0.0009     -0.0005     -0.2891
         5         0.1847      0.0155      0.0156
         6        -0.0018      0.0034      0.2822
 Ground to excited state transition velocity quadrupole moments (Au):
       state          XX          YY          ZZ          XY          XZ          YZ
         1         0.1105     -0.0849     -0.0038      0.0199     -0.0019      0.0025
         2         0.0202     -0.0851      0.0093      0.0230      0.0021      0.0019
         3        -0.0873      0.0922      0.0017      0.0899      0.0020     -0.0010
         4         0.0409     -0.0319     -0.0152     -0.1540      0.0011     -0.0004
         5        -0.0050     -0.0017     -0.0001      0.0095     -0.0559      0.1059
         6         0.2416      0.0550      0.0329      0.0822     -0.0072      0.0019
 <0|del|b> * <b|rxdel|0> + <0|del|b> * <b|delr+rdel|0>
 Rotatory Strengths (R) in cgs (10**-40 erg-esu-cm/Gauss)
       state          XX          YY          ZZ    R(velocity)    E-M Angle
         1        -0.5025      0.9195      0.0993      0.1721       89.42
         2        -0.2433      0.1560     -0.0694     -0.0522       90.00
         3        -0.5440     -0.3142     -0.1838     -0.3473       90.54
         4         0.1220      0.4454      0.8890      0.4854       89.77
         5        -0.9355     -4.5270     -1.0444     -2.1689      123.61
         6         2.8143      0.6935      0.1310      1.2130       88.42
 1/2[<0|r|b>*<b|rxdel|0> + (<0|rxdel|b>*<b|r|0>)*]
 Rotatory Strengths (R) in cgs (10**-40 erg-esu-cm/Gauss)
       state          XX          YY          ZZ     R(length)
         1         0.8678     -0.6243      0.2787      0.1741
         2         0.0757     -0.1848      0.0056     -0.0345
         3        -0.6461      0.3521     -0.5330     -0.2756
         4         1.1369     -0.1600     -0.1486      0.2761
         5        -5.7323     -0.1138     -0.2584     -2.0348
         6         0.6666      0.9539      1.0226      0.8810
  1/2[<0|del|b>*<b|r|0> + (<0|r|b>*<b|del|0>)*] (Au)
       state          X           Y           Z        Dip. S.   Osc.(frdel)
         1        -0.0263     -0.0494     -0.0000      0.0757      0.0505
         2        -0.0067     -0.0043      0.0000      0.0110      0.0074
         3        -0.0813     -0.0148     -0.0000      0.0961      0.0641
         4        -0.6141     -0.0518      0.0000      0.6659      0.4439
         5        -0.0004     -0.0000     -0.0004      0.0009      0.0006
         6        -0.0632     -0.0374     -0.0000      0.1005      0.0670

 Excitation energies and oscillator strengths:
 
 Excited State   1:      Singlet-A      4.0304 eV  307.62 nm  f=0.0485  <S**2>=0.000
      29 -> 32         0.16301
      31 -> 32         0.66701
 This state for optimization and/or second-order correction.
 Total Energy, E(TD-HF/TD-DFT) =  -363.678820895    
 Copying the excited state density for this state as the 1-particle RhoCI density.
 
 Excited State   2:      Singlet-A      4.5761 eV  270.94 nm  f=0.0074  <S**2>=0.000
      30 -> 32         0.52996
      31 -> 33        -0.46200
 
 Excited State   3:      Singlet-A      5.5153 eV  224.80 nm  f=0.0640  <S**2>=0.000
      29 -> 32         0.50831
      29 -> 34        -0.11364
      30 -> 32        -0.11896
      30 -> 33        -0.16455
      31 -> 32        -0.14508
      31 -> 33        -0.15342
      31 -> 34         0.36745
 
 Excited State   4:      Singlet-A      5.8030 eV  213.65 nm  f=0.4531  <S**2>=0.000
      29 -> 32         0.10509
      29 -> 33         0.27194
      30 -> 32         0.39104
      31 -> 33         0.45278
      31 -> 34         0.20337
 
 Excited State   5:      Singlet-A      6.1313 eV  202.22 nm  f=0.0004  <S**2>=0.000
      31 -> 35         0.70554
 
 Excited State   6:      Singlet-A      6.3490 eV  195.28 nm  f=0.0659  <S**2>=0.000
      29 -> 32        -0.10573
      29 -> 34        -0.15849
      30 -> 33         0.55446
      30 -> 34        -0.24831
      31 -> 34         0.23570
 SavETr:  write IOETrn=   770 NScale= 10 NData=  16 NLR=1 NState=    6 LETran=     118.
          IDoAtm=1111111111111111
          Differentiating once with respect to electric field.
                with respect to dipole field.
          Differentiating once with respect to nuclear coordinates.
 Keep J ints in memory in canonical form, NReq=64412969.
          There are     1 degrees of freedom in the 1st order CPHF.  IDoFFX=0 NUNeed=     1.
 LinEq1:  Iter=  0 NonCon=     1 RMS=3.19D-02 Max=1.02D+00 NDo=     1
 AX will form     1 AO Fock derivatives at one time.
 LinEq1:  Iter=  1 NonCon=     1 RMS=1.45D-02 Max=4.37D-01 NDo=     1
 LinEq1:  Iter=  2 NonCon=     1 RMS=1.77D-02 Max=6.42D-01 NDo=     1
 LinEq1:  Iter=  3 NonCon=     1 RMS=9.63D-03 Max=2.21D-01 NDo=     1
 LinEq1:  Iter=  4 NonCon=     1 RMS=1.17D-02 Max=2.59D-01 NDo=     1
 LinEq1:  Iter=  5 NonCon=     1 RMS=4.56D-03 Max=1.04D-01 NDo=     1
 LinEq1:  Iter=  6 NonCon=     1 RMS=3.10D-03 Max=3.72D-02 NDo=     1
 LinEq1:  Iter=  7 NonCon=     1 RMS=1.25D-03 Max=2.38D-02 NDo=     1
 LinEq1:  Iter=  8 NonCon=     1 RMS=8.08D-04 Max=1.19D-02 NDo=     1
 LinEq1:  Iter=  9 NonCon=     1 RMS=4.77D-04 Max=1.43D-02 NDo=     1
 LinEq1:  Iter= 10 NonCon=     1 RMS=3.09D-04 Max=4.73D-03 NDo=     1
 LinEq1:  Iter= 11 NonCon=     1 RMS=1.73D-04 Max=2.94D-03 NDo=     1
 LinEq1:  Iter= 12 NonCon=     1 RMS=1.03D-04 Max=1.50D-03 NDo=     1
 LinEq1:  Iter= 13 NonCon=     1 RMS=5.78D-05 Max=8.82D-04 NDo=     1
 LinEq1:  Iter= 14 NonCon=     1 RMS=1.36D-05 Max=1.40D-04 NDo=     1
 LinEq1:  Iter= 15 NonCon=     1 RMS=3.44D-06 Max=6.22D-05 NDo=     1
 LinEq1:  Iter= 16 NonCon=     1 RMS=2.59D-06 Max=5.94D-05 NDo=     1
 LinEq1:  Iter= 17 NonCon=     1 RMS=8.68D-07 Max=9.72D-06 NDo=     1
 LinEq1:  Iter= 18 NonCon=     1 RMS=2.72D-07 Max=3.03D-06 NDo=     1
 LinEq1:  Iter= 19 NonCon=     1 RMS=6.91D-08 Max=6.32D-07 NDo=     1
 LinEq1:  Iter= 20 NonCon=     1 RMS=1.31D-08 Max=2.03D-07 NDo=     1
 LinEq1:  Iter= 21 NonCon=     1 RMS=2.45D-09 Max=3.31D-08 NDo=     1
 LinEq1:  Iter= 22 NonCon=     1 RMS=3.82D-10 Max=3.27D-09 NDo=     1
 LinEq1:  Iter= 23 NonCon=     0 RMS=5.46D-11 Max=4.98D-10 NDo=     1
 Linear equations converged to 1.000D-10 1.000D-09 after    23 iterations.
 End of Minotr F.D. properties file   721 does not exist.
 End of Minotr F.D. properties file   722 does not exist.
 End of Minotr F.D. properties file   788 does not exist.
 Calling FoFJK, ICntrl=  10005527 FMM=F ISym2X=0 I1Cent= 0 IOpClX= 0 NMat=1 NMatS=1 NMatT=0.
 ***** Axes restored to original set *****
 -------------------------------------------------------------------
 Center     Atomic                   Forces (Hartrees/Bohr)
 Number     Number              X              Y              Z
 -------------------------------------------------------------------
      1        6          -0.001133313   -0.012039640   -0.000997160
      2        6           0.000220918    0.012586025    0.001599585
      3        6           0.002384432   -0.014776848   -0.001082647
      4        6          -0.010874715    0.019906763    0.000123786
      5        6          -0.001584412   -0.015737665   -0.001172201
      6        6           0.004314347    0.012280140    0.001434743
      7        7           0.018492391    0.005788796    0.000270690
      8        6          -0.006632075    0.011932641   -0.000182925
      9        6          -0.004603935   -0.019360522    0.000024758
     10        1          -0.000479165   -0.001618317   -0.000033826
     11        1           0.000843418    0.000875000    0.000133519
     12        1          -0.001113424    0.000651771    0.000001007
     13        1           0.000665593   -0.001210489    0.000775741
     14        1          -0.000832562    0.001190314   -0.000071167
     15        1           0.000401351    0.000908151   -0.001430334
     16        1          -0.000068848   -0.001376120    0.000606431
 -------------------------------------------------------------------
 Cartesian Forces:  Max     0.019906763 RMS     0.007136997

 GradGradGradGradGradGradGradGradGradGradGradGradGradGradGradGradGradGrad
 Berny optimization.
 Using GEDIIS/GDIIS optimizer.
 FormGI is forming the generalized inverse of G from B-inverse, IUseBI=4.
 Internal  Forces:  Max     0.013133543 RMS     0.002940169
 Search for a local minimum.
 Step number   2 out of a maximum of   94
 All quantities printed in internal units (Hartrees-Bohrs-Radians)
 Mixed Optimization -- RFO/linear search
 Update second derivatives using D2CorX and points    1    2
 DE= -1.26D-02 DEPred=-1.20D-02 R= 1.05D+00
 TightC=F SS=  1.41D+00  RLast= 2.50D-01 DXNew= 5.0454D-01 7.5109D-01
 Trust test= 1.05D+00 RLast= 2.50D-01 DXMaxT set to 5.05D-01
 ITU=  1  0
 Use linear search instead of GDIIS.
     Eigenvalues ---    0.01795   0.01877   0.01936   0.01956   0.02012
     Eigenvalues ---    0.02075   0.02086   0.02102   0.02133   0.02149
     Eigenvalues ---    0.02168   0.02191   0.02280   0.15942   0.15999
     Eigenvalues ---    0.16000   0.16000   0.16000   0.16000   0.16015
     Eigenvalues ---    0.20135   0.21997   0.23988   0.24505   0.24712
     Eigenvalues ---    0.34301   0.34752   0.34824   0.34890   0.35568
     Eigenvalues ---    0.35948   0.36099   0.37745   0.40935   0.42112
     Eigenvalues ---    0.43805   0.45249   0.46134   0.46423   0.46780
     Eigenvalues ---    0.48546   0.53294
 RFO step:  Lambda=-2.47741048D-03 EMin= 1.79512210D-02
 Quartic linear search produced a step of  0.15875.
 Iteration  1 RMS(Cart)=  0.01593864 RMS(Int)=  0.00027174
 Iteration  2 RMS(Cart)=  0.00031837 RMS(Int)=  0.00015742
 Iteration  3 RMS(Cart)=  0.00000007 RMS(Int)=  0.00015742
 Variable       Old X    -DE/DX   Delta X   Delta X   Delta X     New X
                                 (Linear)    (Quad)   (Total)
    R1        2.64773  -0.00521  -0.00157  -0.01282  -0.01448   2.63326
    R2        2.69995   0.00360   0.01221   0.00411   0.01623   2.71619
    R3        2.06944   0.00001   0.00019  -0.00004   0.00015   2.06959
    R4        2.72179   0.00256   0.01577   0.00037   0.01613   2.73792
    R5        2.06852   0.00003   0.00148  -0.00045   0.00103   2.06955
    R6        2.68130   0.00228   0.00566   0.00365   0.00940   2.69070
    R7        2.06802  -0.00122   0.00138  -0.00453  -0.00315   2.06487
    R8        2.66613  -0.00748  -0.00375  -0.01929  -0.02299   2.64314
    R9        2.66965   0.00958   0.01008   0.01806   0.02818   2.69782
   R10        2.70775  -0.00084   0.00825  -0.00532   0.00293   2.71068
   R11        2.75666  -0.00101   0.00654  -0.00473   0.00175   2.75841
   R12        2.06866  -0.00139   0.00131  -0.00508  -0.00377   2.06489
   R13        2.59692  -0.01313  -0.00279  -0.03040  -0.03313   2.56380
   R14        1.92552   0.00140   0.00345   0.00219   0.00563   1.93115
   R15        2.67687   0.00995   0.01413   0.01759   0.03172   2.70859
   R16        2.05912   0.00111   0.00252   0.00261   0.00512   2.06425
   R17        2.05572  -0.00118   0.00207  -0.00457  -0.00250   2.05322
    A1        2.12363   0.00220   0.00213   0.01175   0.01352   2.13715
    A2        2.07448  -0.00007  -0.00095   0.00139   0.00061   2.07509
    A3        2.08506  -0.00213  -0.00118  -0.01317  -0.01418   2.07087
    A4        2.11775   0.00305  -0.00009   0.01725   0.01687   2.13462
    A5        2.07985  -0.00011   0.00004   0.00153   0.00167   2.08152
    A6        2.08553  -0.00294   0.00008  -0.01867  -0.01849   2.06704
    A7        2.02790  -0.00684  -0.00343  -0.03297  -0.03649   1.99141
    A8        2.13049   0.00260   0.00203   0.01052   0.01256   2.14305
    A9        2.12479   0.00424   0.00142   0.02247   0.02391   2.14871
   A10        2.15298   0.00385   0.00300   0.01784   0.02084   2.17382
   A11        2.26410  -0.00486  -0.00222  -0.02144  -0.02367   2.24043
   A12        1.86610   0.00101  -0.00077   0.00362   0.00283   1.86893
   A13        2.08861   0.00347   0.00304   0.01486   0.01787   2.10648
   A14        1.84622   0.00106  -0.00292   0.00683   0.00383   1.85004
   A15        2.34833  -0.00453  -0.00012  -0.02163  -0.02167   2.32666
   A16        2.05460  -0.00571  -0.00427  -0.02720  -0.03178   2.02281
   A17        2.11905   0.00274   0.00256   0.01266   0.01530   2.13435
   A18        2.10953   0.00297   0.00173   0.01458   0.01639   2.12592
   A19        1.96207  -0.00090   0.00856  -0.00931  -0.00066   1.96141
   A20        2.16669  -0.00046  -0.00353  -0.00210  -0.00568   2.16101
   A21        2.15443   0.00136  -0.00502   0.01141   0.00634   2.16077
   A22        1.91177  -0.00276   0.00660  -0.01449  -0.00794   1.90383
   A23        2.19752   0.00189  -0.00259   0.01060   0.00803   2.20555
   A24        2.17389   0.00087  -0.00401   0.00390  -0.00009   2.17380
   A25        1.83862   0.00159  -0.01147   0.01335   0.00194   1.84056
   A26        2.13392  -0.00027   0.00545  -0.00279   0.00262   2.13654
   A27        2.31064  -0.00132   0.00602  -0.01054  -0.00456   2.30609
    D1        0.04045  -0.00087  -0.00707  -0.04083  -0.04839  -0.00794
    D2       -3.11247  -0.00063  -0.00498  -0.02970  -0.03493   3.13579
    D3       -3.09526  -0.00076  -0.00486  -0.03658  -0.04180  -3.13706
    D4        0.03500  -0.00052  -0.00277  -0.02545  -0.02834   0.00666
    D5       -0.04854   0.00095   0.00642   0.04034   0.04646  -0.00208
    D6        3.09641   0.00056   0.00383   0.02454   0.02838   3.12479
    D7        3.08715   0.00085   0.00420   0.03612   0.03993   3.12707
    D8       -0.05110   0.00046   0.00161   0.02032   0.02185  -0.02924
    D9       -0.01173   0.00049   0.00366   0.02044   0.02382   0.01210
   D10        3.13330   0.00028   0.00202   0.01271   0.01480  -3.13509
   D11        3.14123   0.00023   0.00157   0.00914   0.01035  -3.13161
   D12        0.00307   0.00003  -0.00007   0.00141   0.00133   0.00440
   D13       -0.00708  -0.00005   0.00016  -0.00047  -0.00001  -0.00709
   D14        3.13828  -0.00020  -0.00094  -0.00724  -0.00781   3.13046
   D15        3.13110   0.00016   0.00181   0.00721   0.00902   3.14011
   D16       -0.00673   0.00001   0.00071   0.00044   0.00121  -0.00552
   D17       -0.00228  -0.00004  -0.00077   0.00042  -0.00011  -0.00239
   D18       -3.13695  -0.00014  -0.00142  -0.00599  -0.00741   3.13883
   D19        3.13629   0.00007   0.00010   0.00581   0.00623  -3.14067
   D20        0.00162  -0.00003  -0.00055  -0.00060  -0.00107   0.00055
   D21        3.13727   0.00014   0.00098   0.00564   0.00639  -3.13952
   D22       -0.00293   0.00012   0.00097   0.00485   0.00566   0.00273
   D23       -0.00104  -0.00000  -0.00000  -0.00031  -0.00038  -0.00141
   D24       -3.14124  -0.00002  -0.00001  -0.00110  -0.00110   3.14084
   D25        0.02936  -0.00046  -0.00259  -0.01991  -0.02227   0.00709
   D26       -3.11556  -0.00008  -0.00001  -0.00420  -0.00429  -3.11986
   D27       -3.12158  -0.00029  -0.00173  -0.01103  -0.01242  -3.13400
   D28        0.01668   0.00009   0.00086   0.00468   0.00556   0.02224
   D29       -0.00171   0.00005   0.00088   0.00132   0.00212   0.00041
   D30        3.13632   0.00012   0.00068   0.00508   0.00575  -3.14111
   D31       -3.13486  -0.00012   0.00007  -0.00676  -0.00677   3.14155
   D32        0.00317  -0.00005  -0.00013  -0.00299  -0.00314   0.00004
   D33       -0.00004   0.00003   0.00058   0.00110   0.00167   0.00163
   D34       -3.13803  -0.00003  -0.00005  -0.00135  -0.00137  -3.13941
   D35        3.14017   0.00005   0.00059   0.00188   0.00239  -3.14063
   D36        0.00218  -0.00001  -0.00003  -0.00057  -0.00066   0.00152
   D37        0.00108  -0.00005  -0.00091  -0.00148  -0.00232  -0.00124
   D38        3.13855   0.00002  -0.00021   0.00136   0.00117   3.13972
   D39       -3.13701  -0.00012  -0.00070  -0.00520  -0.00589   3.14028
   D40        0.00046  -0.00005  -0.00001  -0.00236  -0.00241  -0.00195
         Item               Value     Threshold  Converged?
 Maximum Force            0.013134     0.000450     NO 
 RMS     Force            0.002940     0.000300     NO 
 Maximum Displacement     0.081590     0.001800     NO 
 RMS     Displacement     0.015960     0.001200     NO 
 Predicted change in Energy=-1.450978D-03
 GradGradGradGradGradGradGradGradGradGradGradGradGradGradGradGradGradGrad

                          Input orientation:                          
 ---------------------------------------------------------------------
 Center     Atomic      Atomic             Coordinates (Angstroms)
 Number     Number       Type             X           Y           Z
 ---------------------------------------------------------------------
      1          6           0       -2.202127    0.684416    0.003652
      2          6           0       -2.172526   -0.708727    0.005756
      3          6           0       -0.931845   -1.456856   -0.006946
      4          6           0        0.237221   -0.644056   -0.005849
      5          6           0        0.230912    0.754612   -0.001944
[...]
 ! A26   A(7,9,12)             122.9457         -DE/DX =    0.0                 !
 ! A27   A(8,9,12)             130.8363         -DE/DX =    0.0                 !
 ! D1    D(6,1,2,3)             -0.0149         -DE/DX =    0.0                 !
 ! D2    D(6,1,2,13)           179.9388         -DE/DX =    0.0                 !
 ! D3    D(15,1,2,3)          -179.9604         -DE/DX =    0.0                 !
 ! D4    D(15,1,2,13)           -0.0068         -DE/DX =    0.0                 !
 ! D5    D(2,1,6,5)              0.0238         -DE/DX =    0.0                 !
 ! D6    D(2,1,6,16)           179.5606         -DE/DX =    0.0                 !
 ! D7    D(15,1,6,5)           179.9693         -DE/DX =    0.0                 !
 ! D8    D(15,1,6,16)           -0.4939         -DE/DX =    0.0                 !
 ! D9    D(1,2,3,4)              0.0059         -DE/DX =    0.0                 !
 ! D10   D(1,2,3,14)          -179.8872         -DE/DX =    0.0                 !
 ! D11   D(13,2,3,4)          -179.948          -DE/DX =    0.0                 !
 ! D12   D(13,2,3,14)            0.1588         -DE/DX =    0.0                 !
 ! D13   D(2,3,4,5)             -0.0084         -DE/DX =    0.0                 !
 ! D14   D(2,3,4,7)            179.8147         -DE/DX =    0.0                 !
 ! D15   D(14,3,4,5)           179.884          -DE/DX =    0.0                 !
 ! D16   D(14,3,4,7)            -0.293          -DE/DX =    0.0                 !
 ! D17   D(3,4,5,6)              0.0197         -DE/DX =    0.0                 !
 ! D18   D(3,4,5,8)            179.8341         -DE/DX =    0.0                 !
 ! D19   D(7,4,5,6)           -179.8348         -DE/DX =    0.0                 !
 ! D20   D(7,4,5,8)             -0.0204         -DE/DX =    0.0                 !
 ! D21   D(3,4,7,9)           -179.8536         -DE/DX =    0.0                 !
 ! D22   D(3,4,7,10)             0.2305         -DE/DX =    0.0                 !
 ! D23   D(5,4,7,9)             -0.0053         -DE/DX =    0.0                 !
 ! D24   D(5,4,7,10)          -179.9212         -DE/DX =    0.0                 !
 ! D25   D(4,5,6,1)             -0.0258         -DE/DX =    0.0                 !
 ! D26   D(4,5,6,16)          -179.5652         -DE/DX =    0.0                 !
 ! D27   D(8,5,6,1)           -179.7849         -DE/DX =    0.0                 !
 ! D28   D(8,5,6,16)             0.6757         -DE/DX =    0.0                 !
 ! D29   D(4,5,8,9)              0.0383         -DE/DX =    0.0                 !
 ! D30   D(4,5,8,11)          -179.9242         -DE/DX =    0.0                 !
 ! D31   D(6,5,8,9)            179.824          -DE/DX =    0.0                 !
 ! D32   D(6,5,8,11)            -0.1385         -DE/DX =    0.0                 !
 ! D33   D(4,7,9,8)              0.0291         -DE/DX =    0.0                 !
 ! D34   D(4,7,9,12)          -179.832          -DE/DX =    0.0                 !
 ! D35   D(10,7,9,8)           179.944          -DE/DX =    0.0                 !
 ! D36   D(10,7,9,12)            0.0829         -DE/DX =    0.0                 !
 ! D37   D(5,8,9,7)             -0.0412         -DE/DX =    0.0                 !
 ! D38   D(5,8,9,12)           179.8047         -DE/DX =    0.0                 !
 ! D39   D(11,8,9,7)           179.9223         -DE/DX =    0.0                 !
 ! D40   D(11,8,9,12)           -0.2318         -DE/DX =    0.0                 !
 --------------------------------------------------------------------------------
 GradGradGradGradGradGradGradGradGradGradGradGradGradGradGradGradGradGrad

                          Input orientation:                          
 ---------------------------------------------------------------------
 Center     Atomic      Atomic             Coordinates (Angstroms)
 Number     Number       Type             X           Y           Z
 ---------------------------------------------------------------------
      1          6           0       -2.196150    0.686263    0.004268
      2          6           0       -2.162264   -0.707313    0.003109
      3          6           0       -0.938325   -1.467599   -0.000725
      4          6           0        0.231177   -0.644304   -0.003064
      5          6           0        0.224823    0.746559   -0.002026
      6          6           0       -1.001310    1.486344    0.002023
      7          7           0        1.611952   -1.059283   -0.003342
      8          6           0        1.627892    1.164159   -0.001183
      9          6           0        2.452692   -0.007840   -0.002654
     10          1           0        1.907161   -2.035582   -0.005232
     11          1           0        2.006622    2.186845    0.000880
     12          1           0        3.534615   -0.115833   -0.005405
     13          1           0       -3.110638   -1.257181    0.005984
     14          1           0       -0.912979   -2.557299   -0.003423
     15          1           0       -3.169318    1.189347    0.007901
     16          1           0       -1.022301    2.576796   -0.004122
 ---------------------------------------------------------------------
                    Distance matrix (angstroms):
                    1          2          3          4          5
     1  C    0.000000
     2  C    1.393987   0.000000
     3  C    2.494247   1.440860   0.000000
     4  C    2.768100   2.394278   1.430229   0.000000
     5  C    2.421732   2.794987   2.501082   1.390878   0.000000
     6  C    1.437977   2.481924   2.954615   2.461444   1.432026
     7  N    4.189109   3.790598   2.582759   1.441786   2.277103
     8  C    3.853792   4.227021   3.675815   2.285028   1.463896
     9  C    4.700379   4.667667   3.691869   2.310891   2.352131
    10  H    4.923991   4.280723   2.901623   2.178206   3.251243
    11  H    4.462628   5.075014   4.693365   3.341800   2.291122
    12  H    5.786633   5.727508   4.672739   3.345443   3.420301
    13  H    2.147850   1.096255   2.182490   3.397562   3.891059
    14  H    3.488163   2.232309   1.089998   2.229045   3.494292
    15  H    1.095519   2.147440   3.469404   3.863387   3.422916
    16  H    2.225334   3.476340   4.045268   3.456399   2.214744
                    6          7          8          9         10
     6  C    0.000000
     7  N    3.648203   0.000000
     8  C    2.648870   2.223501   0.000000
     9  C    3.763341   1.346245   1.433137   0.000000
    10  H    4.567627   1.019956   3.211908   2.099845   0.000000
    11  H    3.088423   3.270036   1.090563   2.239562   4.223603
    12  H    4.810576   2.141667   2.296518   1.087303   2.516752
    13  H    3.460666   4.726744   5.321334   5.701891   5.077828
    14  H    4.044611   2.935869   4.506138   4.222260   2.867993
    15  H    2.188264   5.283655   4.797284   5.748075   6.014231
    16  H    1.090672   4.490029   3.003177   4.330811   5.464045
                   11         12         13         14         15
    11  H    0.000000
    12  H    2.763537   0.000000
    13  H    6.168280   6.742565   0.000000
    14  H    5.570547   5.073643   2.553449   0.000000
    15  H    5.271186   6.829816   2.447232   4.373620   0.000000
    16  H    3.053925   5.292990   4.365848   5.135259   2.556334
                   16
    16  H    0.000000
 Stoichiometry    C8H7N
 Framework group  C1[X(C8H7N)]
 Deg. of freedom    42
 Full point group                 C1      NOp   1
 Largest Abelian subgroup         C1      NOp   1
 Largest concise Abelian subgroup C1      NOp   1
                         Standard orientation:                         
 ---------------------------------------------------------------------
 Center     Atomic      Atomic             Coordinates (Angstroms)
 Number     Number       Type             X           Y           Z
 ---------------------------------------------------------------------
      1          6           0       -2.203089    0.659050    0.001017
      2          6           0       -2.153081   -0.734040    0.000963
      3          6           0       -0.920424   -1.480117   -0.000518
      4          6           0        0.239477   -0.643348   -0.001781
      5          6           0        0.217032    0.747349   -0.001806
      6          6           0       -1.017582    1.472901   -0.000097
      7          7           0        1.624960   -1.042324    0.000261
      8          6           0        1.615172    1.181155    0.000760
      9          6           0        2.453478    0.018776    0.001374
     10          1           0        1.931446   -2.015143   -0.000461
     11          1           0        1.982042    2.208156    0.002599
     12          1           0        3.536581   -0.076694    0.000277
     13          1           0       -3.095033   -1.294841    0.002876
     14          1           0       -0.882469   -2.569452   -0.002354
     15          1           0       -3.182016    1.150844    0.002857
     16          1           0       -1.051178    2.563032   -0.007098
 ---------------------------------------------------------------------
 Rotational constants (GHZ):           3.8015561           1.5777845           1.1150143

 **********************************************************************

            Population analysis using the CI Density.

 **********************************************************************

 Orbital symmetries:
       Occupied  (A) (A) (A) (A) (A) (A) (A) (A) (A) (A) (A) (A)
                 (A) (A) (A) (A) (A) (A) (A) (A) (A) (A) (A) (A)
                 (A) (A) (A) (A) (A) (A) (A)
       Virtual   (A) (A) (A) (A) (A) (A) (A) (A) (A) (A) (A) (A)
                 (A) (A) (A) (A) (A) (A) (A) (A) (A) (A) (A) (A)
                 (A) (A) (A) (A) (A) (A) (A) (A) (A) (A) (A) (A)
                 (A) (A) (A) (A) (A) (A) (A) (A) (A) (A) (A) (A)
                 (A) (A) (A) (A) (A) (A) (A) (A) (A) (A) (A) (A)
                 (A) (A) (A) (A) (A) (A) (A) (A) (A) (A) (A) (A)
                 (A) (A) (A) (A) (A) (A) (A) (A) (A) (A) (A) (A)
                 (A) (A) (A) (A) (A) (A) (A) (A) (A) (A) (A) (A)
                 (A) (A) (A) (A) (A) (A) (A) (A) (A) (A) (A) (A)
                 (A) (A) (A) (A) (A) (A) (A) (A) (A) (A)
 The electronic state is 1-A.
 Alpha  occ. eigenvalues --  -14.06535  -9.94686  -9.94606  -9.92396  -9.91633
 Alpha  occ. eigenvalues --   -9.91243  -9.91160  -9.90963  -9.90087  -0.88719
 Alpha  occ. eigenvalues --   -0.75292  -0.69120  -0.66134  -0.63387  -0.56052
 Alpha  occ. eigenvalues --   -0.52759  -0.51150  -0.48173  -0.42575  -0.41766
 Alpha  occ. eigenvalues --   -0.38253  -0.37941  -0.36346  -0.34952  -0.33935
 Alpha  occ. eigenvalues --   -0.30559  -0.29363  -0.28878  -0.23039  -0.20045
 Alpha  occ. eigenvalues --   -0.16416
 Alpha virt. eigenvalues --   -0.04410   0.00102   0.03079   0.05459   0.07595
 Alpha virt. eigenvalues --    0.10720   0.11853   0.13164   0.13900   0.14475
 Alpha virt. eigenvalues --    0.15718   0.18360   0.20168   0.22820   0.25139
 Alpha virt. eigenvalues --    0.27958   0.30463   0.33363   0.37715   0.46454
 Alpha virt. eigenvalues --    0.46659   0.48721   0.48887   0.50100   0.52157
 Alpha virt. eigenvalues --    0.52530   0.53478   0.54775   0.55210   0.56350
 Alpha virt. eigenvalues --    0.57322   0.57628   0.58098   0.58945   0.61251
 Alpha virt. eigenvalues --    0.64598   0.66578   0.72550   0.75633   0.76326
 Alpha virt. eigenvalues --    0.76502   0.78877   0.79303   0.80222   0.81371
 Alpha virt. eigenvalues --    0.83948   0.85977   0.88327   0.89837   0.91284
 Alpha virt. eigenvalues --    0.93381   0.99460   1.00930   1.06320   1.07357
 Alpha virt. eigenvalues --    1.13973   1.18373   1.19999   1.22956   1.26416
 Alpha virt. eigenvalues --    1.29225   1.29807   1.34267   1.34724   1.40379
 Alpha virt. eigenvalues --    1.41903   1.42731   1.43905   1.44151   1.46895
 Alpha virt. eigenvalues --    1.52444   1.68668   1.70919   1.72623   1.80347
 Alpha virt. eigenvalues --    1.81745   1.81993   1.86022   1.86986   1.90668
 Alpha virt. eigenvalues --    1.92006   1.92500   2.01050   2.03087   2.05639
 Alpha virt. eigenvalues --    2.08529   2.13176   2.14000   2.15620   2.17613
 Alpha virt. eigenvalues --    2.18774   2.26792   2.30441   2.30773   2.36125
 Alpha virt. eigenvalues --    2.44554   2.49420   2.51685   2.54793   2.54868
 Alpha virt. eigenvalues --    2.63824   2.64399   2.69353   2.71977   2.78757
 Alpha virt. eigenvalues --    2.87045   2.92303   3.09386   3.27872   3.88684
 Alpha virt. eigenvalues --    3.97813   4.00081   4.05000   4.08831   4.22705
 Alpha virt. eigenvalues --    4.30234   4.36068   4.64380
          Condensed to atoms (all electrons):
               1          2          3          4          5          6
     1  C    4.949864   0.576535  -0.045726  -0.037621   0.012233   0.414375
     2  C    0.576535   4.923082   0.423636   0.023639  -0.036032  -0.035041
     3  C   -0.045726   0.423636   5.291998   0.426421  -0.070398  -0.031326
     4  C   -0.037621   0.023639   0.426421   4.846017   0.543077  -0.068884
     5  C    0.012233  -0.036032  -0.070398   0.543077   4.701464   0.469635
     6  C    0.414375  -0.035041  -0.031326  -0.068884   0.469635   5.283938
     7  N    0.000056   0.004938  -0.077716   0.172120  -0.019176   0.009220
     8  C    0.007869   0.000041   0.012163  -0.009276   0.347842  -0.089542
     9  C   -0.000352  -0.000209   0.006581  -0.104052  -0.043778   0.010186
    10  H    0.000000  -0.000066  -0.002560  -0.018808   0.005040  -0.000109
    11  H   -0.000010   0.000006  -0.000139   0.006304  -0.025057  -0.004487
    12  H    0.000003   0.000001  -0.000097   0.003773   0.001760  -0.000082
    13  H   -0.039957   0.349039  -0.043780   0.002725   0.001192   0.004653
    14  H    0.004271  -0.036057   0.349736  -0.044100   0.004409   0.000511
    15  H    0.351047  -0.041554   0.004931   0.001059   0.002639  -0.042075
    16  H   -0.041874   0.004612   0.000546   0.005355  -0.043765   0.353204
               7          8          9         10         11         12
     1  C    0.000056   0.007869  -0.000352   0.000000  -0.000010   0.000003
     2  C    0.004938   0.000041  -0.000209  -0.000066   0.000006   0.000001
     3  C   -0.077716   0.012163   0.006581  -0.002560  -0.000139  -0.000097
     4  C    0.172120  -0.009276  -0.104052  -0.018808   0.006304   0.003773
     5  C   -0.019176   0.347842  -0.043778   0.005040  -0.025057   0.001760
     6  C    0.009220  -0.089542   0.010186  -0.000109  -0.004487  -0.000082
     7  N    6.940752  -0.078782   0.375340   0.307578   0.004533  -0.041772
     8  C   -0.078782   5.301535   0.402112   0.006447   0.356507  -0.030506
     9  C    0.375340   0.402112   5.003881  -0.035459  -0.051449   0.367801
    10  H    0.307578   0.006447  -0.035459   0.381617  -0.000091  -0.002494
    11  H    0.004533   0.356507  -0.051449  -0.000091   0.530187  -0.000621
    12  H   -0.041772  -0.030506   0.367801  -0.002494  -0.000621   0.512656
    13  H   -0.000111   0.000009   0.000003  -0.000001  -0.000000  -0.000000
    14  H   -0.005836  -0.000255  -0.000028   0.002624   0.000002   0.000001
    15  H    0.000003  -0.000183   0.000004  -0.000000  -0.000001  -0.000000
    16  H   -0.000115  -0.007107  -0.000064   0.000004   0.002152  -0.000001
              13         14         15         16
     1  C   -0.039957   0.004271   0.351047  -0.041874
     2  C    0.349039  -0.036057  -0.041554   0.004612
     3  C   -0.043780   0.349736   0.004931   0.000546
     4  C    0.002725  -0.044100   0.001059   0.005355
     5  C    0.001192   0.004409   0.002639  -0.043765
     6  C    0.004653   0.000511  -0.042075   0.353204
     7  N   -0.000111  -0.005836   0.000003  -0.000115
     8  C    0.000009  -0.000255  -0.000183  -0.007107
     9  C    0.000003  -0.000028   0.000004  -0.000064
    10  H   -0.000001   0.002624  -0.000000   0.000004
    11  H   -0.000000   0.000002  -0.000001   0.002152
    12  H   -0.000000   0.000001  -0.000000  -0.000001
    13  H    0.623334  -0.004940  -0.007287  -0.000174
    14  H   -0.004940   0.625961  -0.000158   0.000013
    15  H   -0.007287  -0.000158   0.624492  -0.004642
    16  H   -0.000174   0.000013  -0.004642   0.625764
 Mulliken charges:
               1
     1  C   -0.150711
     2  C   -0.156568
     3  C   -0.244270
     4  C    0.252250
     5  C    0.148915
     6  C   -0.274176
     7  N   -0.591032
     8  C   -0.218873
     9  C    0.069485
    10  H    0.356279
    11  H    0.182165
    12  H    0.189577
    13  H    0.115295
    14  H    0.103846
    15  H    0.111725
    16  H    0.106093
 Sum of Mulliken charges =  -0.00000
 Mulliken charges with hydrogens summed into heavy atoms:
               1
     1  C   -0.038986
     2  C   -0.041273
     3  C   -0.140423
     4  C    0.252250
     5  C    0.148915
     6  C   -0.168083
     7  N   -0.234754
     8  C   -0.036709
     9  C    0.259062
 Electronic spatial extent (au):  <R**2>=           1034.2861
 Charge=              0.0000 electrons
 Dipole moment (field-independent basis, Debye):
    X=              5.3612    Y=             -1.1252    Z=             -0.0044  Tot=              5.4780
 Quadrupole moment (field-independent basis, Debye-Ang):
   XX=            -41.6423   YY=            -44.7526   ZZ=            -56.9095
   XY=             -2.2316   XZ=             -0.0018   YZ=             -0.0064
 Traceless Quadrupole moment (field-independent basis, Debye-Ang):
   XX=              6.1258   YY=              3.0156   ZZ=             -9.1414
   XY=             -2.2316   XZ=             -0.0018   YZ=             -0.0064
 Octapole moment (field-independent basis, Debye-Ang**2):
  XXX=             34.6446  YYY=             -8.6050  ZZZ=             -0.0032  XYY=             16.8350
  XXY=             -6.8292  XXZ=              0.0137  XZZ=              5.3502  YZZ=             -1.1490
  YYZ=             -0.0434  XYZ=              0.0263
 Hexadecapole moment (field-independent basis, Debye-Ang**3):
 XXXX=           -804.7020 YYYY=           -378.0182 ZZZZ=            -58.5774 XXXY=            -17.2747
 XXXZ=             -0.0994 YYYX=            -16.2838 YYYZ=             -0.0489 ZZZX=              0.0014
 ZZZY=             -0.0083 XXYY=           -193.0355 XXZZ=           -181.1121 YYZZ=            -90.0263
 XXYZ=              0.0029 YYXZ=              0.0465 ZZXY=             -2.1704
 N-N= 3.944606370987D+02 E-N=-1.631703670068D+03  KE= 3.597760233972D+02
 Unable to Open any file for archive entry.
 1\1\GINC-COMET-08-69\FOpt\RBVP86 TD-FC\6-31G(d)\C8H7N1\SCAPARAS\17-Jun
 -2020\0\\# td=(nstates=6, root=1) BVP86/6-31G(d) Opt density=current\\
 FuncsBVP86\\0,1\C,-2.1961501522,0.6862625175,0.0042677591\C,-2.1622639
 841,-0.7073125123,0.0031089516\C,-0.9383250665,-1.4675986081,-0.000724
 9415\C,0.2311769275,-0.6443038432,-0.0030637605\C,0.2248231871,0.74655
 93081,-0.0020262463\C,-1.0013096356,1.4863438802,0.0020229076\N,1.6119
 52122,-1.0592833609,-0.0033416749\C,1.6278915815,1.1641590399,-0.00118
 25099\C,2.452692136,-0.007840245,-0.0026540794\H,1.9071611458,-2.03558
 20168,-0.0052321306\H,2.0066216165,2.1868453929,0.0008800712\H,3.53461
 52491,-0.1158334721,-0.005404556\H,-3.1106376258,-1.2571805975,0.00598
 36167\H,-0.9129789033,-2.5572989091,-0.003423272\H,-3.1693178845,1.189
 3470544,0.0079014706\H,-1.0223007136,2.5767963722,-0.0041216057\\Versi
 on=ES64L-G16RevC.01\State=1-A\HF=-363.8210494\RMSD=4.705e-09\RMSF=3.63
 0e-05\Dipole=2.109252,-0.4426929,-0.0017491\Quadrupole=4.5543794,2.242
 0004,-6.7963798,-1.6591108,-0.001358,-0.0047682\PG=C01 [X(C8H7N1)]\\@
 The archive entry for this job was punched.


 ONLY THE DAY DAWNS TO WHICH YOU ARE AWAKE.

                                 -- THOREAU
 Job cpu time:       0 days  1 hours 16 minutes 42.1 seconds.
 Elapsed time:       0 days  0 hours 38 minutes 37.6 seconds.
 File lengths (MBytes):  RWF=    162 Int=      0 D2E=      0 Chk=      8 Scr=      1
 Normal termination of Gaussian 16 at Wed Jun 17 10:30:17 2020.
