 Entering Gaussian System, Link 0=/cm/shared/apps/spack/cpu/opt/spack/linux-centos8-zen/gcc-8.3.1/gaussian-16.C.01-po5bqktfeugvmjyga3v7eigbecnokxng/g16/g16
 Initial command:
 /cm/shared/apps/spack/cpu/opt/spack/linux-centos8-zen/gcc-8.3.1/gaussian-16.C.01-po5bqktfeugvmjyga3v7eigbecnokxng/g16/l1.exe "/scratch/scaparas/job_3319925/Gau-102358.inp" -scrdir="/scratch/scaparas/job_3319925/"
 Entering Link 1 = /cm/shared/apps/spack/cpu/opt/spack/linux-centos8-zen/gcc-8.3.1/gaussian-16.C.01-po5bqktfeugvmjyga3v7eigbecnokxng/g16/l1.exe PID=    102359.
  
 Copyright (c) 1988-2019, Gaussian, Inc.  All Rights Reserved.
  
 This is part of the Gaussian(R) 16 program.  It is based on
 the Gaussian(R) 09 system (copyright 2009, Gaussian, Inc.),
 the Gaussian(R) 03 system (copyright 2003, Gaussian, Inc.),
 the Gaussian(R) 98 system (copyright 1998, Gaussian, Inc.),
 the Gaussian(R) 94 system (copyright 1995, Gaussian, Inc.),
 the Gaussian 92(TM) system (copyright 1992, Gaussian, Inc.),
 the Gaussian 90(TM) system (copyright 1990, Gaussian, Inc.),
 the Gaussian 88(TM) system (copyright 1988, Gaussian, Inc.),
 the Gaussian 86(TM) system (copyright 1986, Carnegie Mellon
 University), and the Gaussian 82(TM) system (copyright 1983,
 Carnegie Mellon University). Gaussian is a federally registered
 trademark of Gaussian, Inc.
  
 This software contains proprietary and confidential information,
 including trade secrets, belonging to Gaussian, Inc.
  
 This software is provided under written license and may be
 used, copied, transmitted, or stored only in accord with that
 written license.
  
 The following legend is applicable only to US Government
 contracts under FAR:
  
                    RESTRICTED RIGHTS LEGEND
  
 Use, reproduction and disclosure by the US Government is
 subject to restrictions as set forth in subparagraphs (a)
 and (c) of the Commercial Computer Software - Restricted
 Rights clause in FAR 52.227-19.
  
 Gaussian, Inc.
 340 Quinnipiac St., Bldg. 40, Wallingford CT 06492
  
  
 ---------------------------------------------------------------
 Warning -- This program may not be used in any manner that
 competes with the business of Gaussian, Inc. or will provide
 assistance to any competitor of Gaussian, Inc.  The licensee
 of this program is prohibited from giving any competitor of
 Gaussian, Inc. access to this program.  By using this program,
 the user acknowledges that Gaussian, Inc. is engaged in the
 business of creating and licensing software in the field of
 computational chemistry and represents and warrants to the
 licensee that it is not a competitor of Gaussian, Inc. and that
 it will not use this program in any manner prohibited above.
 ---------------------------------------------------------------
  

 Cite this work as:
 Gaussian 16, Revision C.01,
 M. J. Frisch, G. W. Trucks, H. B. Schlegel, G. E. Scuseria, 
 M. A. Robb, J. R. Cheeseman, G. Scalmani, V. Barone, 
 G. A. Petersson, H. Nakatsuji, X. Li, M. Caricato, A. V. Marenich, 
 J. Bloino, B. G. Janesko, R. Gomperts, B. Mennucci, H. P. Hratchian, 
 J. V. Ortiz, A. F. Izmaylov, J. L. Sonnenberg, D. Williams-Young, 
 F. Ding, F. Lipparini, F. Egidi, J. Goings, B. Peng, A. Petrone, 
 T. Henderson, D. Ranasinghe, V. G. Zakrzewski, J. Gao, N. Rega, 
 G. Zheng, W. Liang, M. Hada, M. Ehara, K. Toyota, R. Fukuda, 
 J. Hasegawa, M. Ishida, T. Nakajima, Y. Honda, O. Kitao, H. Nakai, 
 T. Vreven, K. Throssell, J. A. Montgomery, Jr., J. E. Peralta, 
 F. Ogliaro, M. J. Bearpark, J. J. Heyd, E. N. Brothers, K. N. Kudin, 
 V. N. Staroverov, T. A. Keith, R. Kobayashi, J. Normand, 
 K. Raghavachari, A. P. Rendell, J. C. Burant, S. S. Iyengar, 
 J. Tomasi, M. Cossi, J. M. Millam, M. Klene, C. Adamo, R. Cammi, 
 J. W. Ochterski, R. L. Martin, K. Morokuma, O. Farkas, 
 J. B. Foresman, and D. J. Fox, Gaussian, Inc., Wallingford CT, 2019.
 
 ******************************************
 Gaussian 16:  AS64L-G16RevC.01  3-Jul-2019
                 9-Jun-2021 
 ******************************************
 %NProcShared=4
 Will use up to    4 processors via shared memory.
 %Chk=FuncsCAM-B3LYP2nd.chk
 ---------------------------------------------------------------
 # td= (nstates=6, root=1) CAM-B3LYP/6-31+G* Opt density=current
 ---------------------------------------------------------------
 1/18=20,19=15,26=3,38=1/1,3;
 2/9=110,12=2,17=6,18=5,40=1/2;
 3/5=1,6=6,7=11,11=9,25=1,30=1,71=1,74=-40/1,2,3,8;
 4//1;
 5/5=2,38=5/2;
 8/6=1,10=2,107=1,108=6/1;
 9/8=1,15=2,41=6,42=1,70=2/14;
 10/5=4,28=1/2;
 6/7=2,8=2,9=2,10=2,22=-1/1;
 7/12=6,13=5,14=1/1,2,3,16;
 1/18=20,19=15,26=3/3(2);
 2/9=110/2;
 99//99;
 2/9=110/2;
 3/5=1,6=6,7=11,11=9,25=1,30=1,71=1,74=-40/1,2,3,8;
 4/5=5,16=3,69=1/1;
 5/5=2,38=5/2;
 8/6=1,10=2,107=1,108=6/1;
 9/8=1,15=2,41=6,42=1,49=4,70=2/14;
 10/5=4,28=1/2;
 7/12=6,13=5,14=1/1,2,3,16;
 1/18=20,19=15,26=3/3(-8);
 2/9=110/2;
 6/7=2,8=2,9=2,10=2,22=-1/1;
 99/9=10/99;
 -----------------
 FuncsCAM-B3LYP2nd
 -----------------
 Symbolic Z-matrix:
 Charge =  0 Multiplicity = 1
 C                    -2.15886   0.68918   0.02974 
 C                    -2.1332   -0.71621  -0.0157 
 C                    -0.93572  -1.41751  -0.00819 
 C                     0.2487   -0.67115   0.00319 
 C                     0.25025   0.7522   -0.00266 
 C                    -0.98322   1.4256   -0.0173 
 N                     1.5657   -1.08029   0.00974 
 C                     1.62609   1.16684  -0.00626 
 C                     2.39038   0.03059   0.00688 
 H                     1.87967  -2.03756   0.01447 
 H                     1.9972    2.18233  -0.0192 
 H                     3.46481  -0.08787   0.00753 
 H                    -3.075    -1.264    -0.03434 
 H                    -0.91687  -2.50699  -0.02386 
 H                    -3.12254   1.20382   0.09559 
 H                    -1.01374   2.5151   -0.04664 
 

 GradGradGradGradGradGradGradGradGradGradGradGradGradGradGradGradGradGrad
 Berny optimization.
 Initialization pass.
                           ----------------------------
                           !    Initial Parameters    !
                           ! (Angstroms and Degrees)  !
 --------------------------                            --------------------------
 ! Name  Definition              Value          Derivative Info.                !
 --------------------------------------------------------------------------------
 ! R1    R(1,2)                  1.4064         estimate D2E/DX2                !
 ! R2    R(1,6)                  1.388          estimate D2E/DX2                !
 ! R3    R(1,15)                 1.0945         estimate D2E/DX2                !
 ! R4    R(2,3)                  1.3877         estimate D2E/DX2                !
 ! R5    R(2,13)                 1.0897         estimate D2E/DX2                !
 ! R6    R(3,4)                  1.4            estimate D2E/DX2                !
 ! R7    R(3,14)                 1.0898         estimate D2E/DX2                !
 ! R8    R(4,5)                  1.4234         estimate D2E/DX2                !
 ! R9    R(4,7)                  1.3791         estimate D2E/DX2                !
 ! R10   R(5,6)                  1.4054         estimate D2E/DX2                !
 ! R11   R(5,8)                  1.437          estimate D2E/DX2                !
 ! R12   R(6,16)                 1.0903         estimate D2E/DX2                !
 ! R13   R(7,9)                  1.3835         estimate D2E/DX2                !
 ! R14   R(7,10)                 1.0075         estimate D2E/DX2                !
 ! R15   R(8,9)                  1.3694         estimate D2E/DX2                !
 ! R16   R(8,11)                 1.0813         estimate D2E/DX2                !
 ! R17   R(9,12)                 1.0809         estimate D2E/DX2                !
 ! A1    A(2,1,6)              120.9061         estimate D2E/DX2                !
 ! A2    A(2,1,15)             119.2028         estimate D2E/DX2                !
 ! A3    A(6,1,15)             119.8895         estimate D2E/DX2                !
 ! A4    A(1,2,3)              121.3707         estimate D2E/DX2                !
 ! A5    A(1,2,13)             119.153          estimate D2E/DX2                !
 ! A6    A(3,2,13)             119.4616         estimate D2E/DX2                !
 ! A7    A(2,3,4)              117.4292         estimate D2E/DX2                !
 ! A8    A(2,3,14)             121.3371         estimate D2E/DX2                !
 ! A9    A(4,3,14)             121.2289         estimate D2E/DX2                !
 ! A10   A(3,4,5)              122.2756         estimate D2E/DX2                !
 ! A11   A(3,4,7)              130.5258         estimate D2E/DX2                !
 ! A12   A(5,4,7)              107.1964         estimate D2E/DX2                !
 ! A13   A(4,5,6)              118.5703         estimate D2E/DX2                !
 ! A14   A(4,5,8)              106.8342         estimate D2E/DX2                !
 ! A15   A(6,5,8)              134.5914         estimate D2E/DX2                !
 ! A16   A(1,6,5)              119.2617         estimate D2E/DX2                !
 ! A17   A(1,6,16)             120.4875         estimate D2E/DX2                !
 ! A18   A(5,6,16)             120.2412         estimate D2E/DX2                !
 ! A19   A(4,7,9)              109.3301         estimate D2E/DX2                !
 ! A20   A(4,7,10)             125.4173         estimate D2E/DX2                !
 ! A21   A(9,7,10)             125.2525         estimate D2E/DX2                !
 ! A22   A(5,8,9)              107.1528         estimate D2E/DX2                !
 ! A23   A(5,8,11)             126.8451         estimate D2E/DX2                !
 ! A24   A(9,8,11)             126.002          estimate D2E/DX2                !
 ! A25   A(7,9,8)              109.4848         estimate D2E/DX2                !
 ! A26   A(7,9,12)             120.2971         estimate D2E/DX2                !
 ! A27   A(8,9,12)             130.2163         estimate D2E/DX2                !
 ! D1    D(6,1,2,3)              4.8678         estimate D2E/DX2                !
 ! D2    D(6,1,2,13)          -176.5353         estimate D2E/DX2                !
 ! D3    D(15,1,2,3)          -175.5899         estimate D2E/DX2                !
 ! D4    D(15,1,2,13)            3.0069         estimate D2E/DX2                !
 ! D5    D(2,1,6,5)             -5.0972         estimate D2E/DX2                !
 ! D6    D(2,1,6,16)           176.0299         estimate D2E/DX2                !
 ! D7    D(15,1,6,5)           175.3637         estimate D2E/DX2                !
 ! D8    D(15,1,6,16)           -3.5093         estimate D2E/DX2                !
 ! D9    D(1,2,3,4)             -1.9941         estimate D2E/DX2                !
 ! D10   D(1,2,3,14)           178.7955         estimate D2E/DX2                !
 ! D11   D(13,2,3,4)           179.4132         estimate D2E/DX2                !
 ! D12   D(13,2,3,14)            0.2029         estimate D2E/DX2                !
 ! D13   D(2,3,4,5)             -0.4651         estimate D2E/DX2                !
 ! D14   D(2,3,4,7)           -179.8522         estimate D2E/DX2                !
 ! D15   D(14,3,4,5)           178.7462         estimate D2E/DX2                !
 ! D16   D(14,3,4,7)            -0.641          estimate D2E/DX2                !
 ! D17   D(3,4,5,6)              0.1482         estimate D2E/DX2                !
 ! D18   D(3,4,5,8)           -179.2217         estimate D2E/DX2                !
 ! D19   D(7,4,5,6)            179.6606         estimate D2E/DX2                !
 ! D20   D(7,4,5,8)              0.2907         estimate D2E/DX2                !
 ! D21   D(3,4,7,9)            179.3989         estimate D2E/DX2                !
 ! D22   D(3,4,7,10)            -0.5167         estimate D2E/DX2                !
 ! D23   D(5,4,7,9)             -0.0587         estimate D2E/DX2                !
 ! D24   D(5,4,7,10)          -179.9743         estimate D2E/DX2                !
 ! D25   D(4,5,6,1)              2.618          estimate D2E/DX2                !
 ! D26   D(4,5,6,16)          -178.5062         estimate D2E/DX2                !
 ! D27   D(8,5,6,1)           -178.2289         estimate D2E/DX2                !
 ! D28   D(8,5,6,16)             0.6469         estimate D2E/DX2                !
 ! D29   D(4,5,8,9)             -0.4171         estimate D2E/DX2                !
 ! D30   D(4,5,8,11)           179.4533         estimate D2E/DX2                !
 ! D31   D(6,5,8,9)           -179.64           estimate D2E/DX2                !
 ! D32   D(6,5,8,11)             0.2304         estimate D2E/DX2                !
 ! D33   D(4,7,9,8)             -0.2113         estimate D2E/DX2                !
 ! D34   D(4,7,9,12)          -179.7792         estimate D2E/DX2                !
 ! D35   D(10,7,9,8)           179.7044         estimate D2E/DX2                !
 ! D36   D(10,7,9,12)            0.1366         estimate D2E/DX2                !
 ! D37   D(5,8,9,7)              0.3888         estimate D2E/DX2                !
 ! D38   D(5,8,9,12)           179.9002         estimate D2E/DX2                !
 ! D39   D(11,8,9,7)          -179.483          estimate D2E/DX2                !
 ! D40   D(11,8,9,12)            0.0284         estimate D2E/DX2                !
 --------------------------------------------------------------------------------
 Trust Radius=3.00D-01 FncErr=1.00D-07 GrdErr=1.00D-06 EigMax=2.50D+02 EigMin=1.00D-04
 Number of steps in this run=     94 maximum allowed number of steps=    100.
 GradGradGradGradGradGradGradGradGradGradGradGradGradGradGradGradGradGrad

                          Input orientation:                          
 ---------------------------------------------------------------------
 Center     Atomic      Atomic             Coordinates (Angstroms)
 Number     Number       Type             X           Y           Z
 ---------------------------------------------------------------------
      1          6           0       -2.158860    0.689180    0.029740
      2          6           0       -2.133200   -0.716210   -0.015700
      3          6           0       -0.935720   -1.417510   -0.008190
      4          6           0        0.248700   -0.671150    0.003190
      5          6           0        0.250250    0.752200   -0.002660
      6          6           0       -0.983220    1.425600   -0.017300
      7          7           0        1.565700   -1.080290    0.009740
      8          6           0        1.626090    1.166840   -0.006260
      9          6           0        2.390380    0.030590    0.006880
     10          1           0        1.879670   -2.037560    0.014470
     11          1           0        1.997200    2.182330   -0.019200
     12          1           0        3.464810   -0.087870    0.007530
     13          1           0       -3.075000   -1.264000   -0.034340
     14          1           0       -0.916870   -2.506990   -0.023860
     15          1           0       -3.122540    1.203820    0.095590
     16          1           0       -1.013740    2.515100   -0.046640
 ---------------------------------------------------------------------
                    Distance matrix (angstroms):
                    1          2          3          4          5
     1  C    0.000000
     2  C    1.406359   0.000000
     3  C    2.436320   1.387745   0.000000
     4  C    2.765420   2.382401   1.400012   0.000000
     5  C    2.410152   2.799506   2.472690   1.423363   0.000000
     6  C    1.388041   2.431009   2.843521   2.431955   1.405393
     7  N    4.123563   3.716862   2.524112   1.379104   2.255789
     8  C    3.815141   4.204548   3.638920   2.296846   1.436967
     9  C    4.596721   4.584866   3.627694   2.253718   2.258532
    10  H    4.872891   4.224926   2.882949   2.127737   3.230799
    11  H    4.416416   5.045964   4.643381   3.346655   2.257738
    12  H    5.677144   5.633211   4.597048   3.268577   3.322532
    13  H    2.158317   1.089683   2.144940   3.376368   3.888876
    14  H    3.429419   2.164814   1.089756   2.174763   3.461927
    15  H    1.094472   2.162798   3.415307   3.858667   3.404310
    16  H    2.156645   3.419870   3.933572   3.427598   2.169659
                    6          7          8          9         10
     6  C    0.000000
     7  N    3.574522   0.000000
     8  C    2.622132   2.247998   0.000000
     9  C    3.650728   1.383532   1.369444   0.000000
    10  H    4.493398   1.007455   3.214485   2.130288   0.000000
    11  H    3.074987   3.291158   1.081254   2.187523   4.221661
    12  H    4.698529   2.142784   2.226068   1.080941   2.512769
    13  H    3.407313   4.644544   5.292449   5.616764   5.014931
    14  H    3.933155   2.863522   4.468107   4.168712   2.835925
    15  H    2.153746   5.215757   4.749866   5.637076   5.961143
    16  H    1.090322   4.425327   2.964479   4.214699   5.394652
                   11         12         13         14         15
    11  H    0.000000
    12  H    2.703406   0.000000
    13  H    6.132262   6.644859   0.000000
    14  H    5.521010   5.005222   2.490514   0.000000
    15  H    5.213674   6.713375   2.471695   4.318490   0.000000
    16  H    3.029397   5.180328   4.304711   5.023076   2.487312
                   16
    16  H    0.000000
 Stoichiometry    C8H7N
 Framework group  C1[X(C8H7N)]
 Deg. of freedom    42
 Full point group                 C1      NOp   1
 Largest Abelian subgroup         C1      NOp   1
 Largest concise Abelian subgroup C1      NOp   1
                         Standard orientation:                         
 ---------------------------------------------------------------------
 Center     Atomic      Atomic             Coordinates (Angstroms)
 Number     Number       Type             X           Y           Z
 ---------------------------------------------------------------------
      1          6           0       -2.158858    0.689183    0.029741
      2          6           0       -2.133200   -0.716207   -0.015699
      3          6           0       -0.935722   -1.417509   -0.008189
      4          6           0        0.248700   -0.671151    0.003191
      5          6           0        0.250252    0.752199   -0.002659
      6          6           0       -0.983217    1.425601   -0.017299
      7          7           0        1.565699   -1.080293    0.009741
      8          6           0        1.626093    1.166837   -0.006259
      9          6           0        2.390381    0.030585    0.006881
     10          1           0        1.879667   -2.037564    0.014471
     11          1           0        1.997205    2.182326   -0.019199
     12          1           0        3.464811   -0.087877    0.007531
     13          1           0       -3.075001   -1.263995   -0.034339
     14          1           0       -0.916873   -2.506989   -0.023859
     15          1           0       -3.122537    1.203825    0.095591
     16          1           0       -1.013735    2.515101   -0.046639
 ---------------------------------------------------------------------
 Rotational constants (GHZ):           3.8861076           1.6317910           1.1494058
 Standard basis: 6-31+G(d) (6D, 7F)
 There are   185 symmetry adapted cartesian basis functions of A   symmetry.
 There are   185 symmetry adapted basis functions of A   symmetry.
   185 basis functions,   316 primitive gaussians,   185 cartesian basis functions
    31 alpha electrons       31 beta electrons
       nuclear repulsion energy       400.0099183022 Hartrees.
 NAtoms=   16 NActive=   16 NUniq=   16 SFac= 1.00D+00 NAtFMM=   60 NAOKFM=F Big=F
 Integral buffers will be    131072 words long.
 Raffenetti 1 integral format.
 Two-electron integral symmetry is turned on.
 One-electron integrals computed using PRISM.
 NBasis=   185 RedAO= T EigKep=  1.37D-06  NBF=   185
 NBsUse=   185 1.00D-06 EigRej= -1.00D+00 NBFU=   185
 ExpMin= 4.38D-02 ExpMax= 4.17D+03 ExpMxC= 6.27D+02 IAcc=3 IRadAn=         5 AccDes= 0.00D+00
 Harris functional with IExCor=20419 and IRadAn=       5 diagonalized for initial guess.
 HarFok:  IExCor=20419 AccDes= 0.00D+00 IRadAn=         5 IDoV= 1 UseB2=F ITyADJ=14
 ICtDFT=  3500011 ScaDFX=  1.000000  1.000000  1.000000  1.000000
 FoFCou: FMM=F IPFlag=           0 FMFlag=      100000 FMFlg1=           0
         NFxFlg=           0 DoJE=T BraDBF=F KetDBF=T FulRan=T
         wScrn=  0.000000 ICntrl=       500 IOpCl=  0 I1Cent=   200000004 NGrid=           0
         NMat0=    1 NMatS0=      1 NMatT0=    0 NMatD0=    1 NMtDS0=    0 NMtDT0=    0
 Petite list used in FoFCou.
 Requested convergence on RMS density matrix=1.00D-08 within 128 cycles.
 Requested convergence on MAX density matrix=1.00D-06.
 Requested convergence on             energy=1.00D-06.
 No special actions if energy rises.
 SCF Done:  E(RCAM-B3LYP) =  -363.623970640     A.U. after   15 cycles
            NFock= 15  Conv=0.51D-08     -V/T= 2.0096
 DoSCS=F DFT=T ScalE2(SS,OS)=  1.000000  1.000000
 ExpMin= 4.38D-02 ExpMax= 4.17D+03 ExpMxC= 6.27D+02 IAcc=3 IRadAn=         5 AccDes= 0.00D+00
 HarFok:  IExCor=  205 AccDes= 0.00D+00 IRadAn=         5 IDoV=-2 UseB2=F ITyADJ=14
 ICtDFT= 12500011 ScaDFX=  1.000000  1.000000  1.000000  1.000000
 Range of M.O.s used for correlation:    10   185
 NBasis=   185 NAE=    31 NBE=    31 NFC=     9 NFV=     0
 NROrb=    176 NOA=    22 NOB=    22 NVA=   154 NVB=   154

 **** Warning!!: The largest alpha MO coefficient is  0.21243913D+03

 Orbital symmetries:
       Occupied  (A) (A) (A) (A) (A) (A) (A) (A) (A) (A) (A) (A)
                 (A) (A) (A) (A) (A) (A) (A) (A) (A) (A) (A) (A)
                 (A) (A) (A) (A) (A) (A) (A)
       Virtual   (A) (A) (A) (A) (A) (A) (A) (A) (A) (A) (A) (A)
                 (A) (A) (A) (A) (A) (A) (A) (A) (A) (A) (A) (A)
                 (A) (A) (A) (A) (A) (A) (A) (A) (A) (A) (A) (A)
                 (A) (A) (A) (A) (A) (A) (A) (A) (A) (A) (A) (A)
                 (A) (A) (A) (A) (A) (A) (A) (A) (A) (A) (A) (A)
                 (A) (A) (A) (A) (A) (A) (A) (A) (A) (A) (A) (A)
                 (A) (A) (A) (A) (A) (A) (A) (A) (A) (A) (A) (A)
                 (A) (A) (A) (A) (A) (A) (A) (A) (A) (A) (A) (A)
                 (A) (A) (A) (A) (A) (A) (A) (A) (A) (A) (A) (A)
                 (A) (A) (A) (A) (A) (A) (A) (A) (A) (A) (A) (A)
                 (A) (A) (A) (A) (A) (A) (A) (A) (A) (A) (A) (A)
                 (A) (A) (A) (A) (A) (A) (A) (A) (A) (A) (A) (A)
                 (A) (A) (A) (A) (A) (A) (A) (A) (A) (A)
    24 initial guesses have been made.
 Convergence on wavefunction:    0.000001000000000
 Iteration     1 Dimension    24 NMult     0 NNew     24
 CISAX will form    24 AO SS matrices at one time.
 New state      1 was old state      2
 New state      2 was old state      3
 New state      3 was old state      1
 Iteration     2 Dimension    36 NMult    24 NNew     12
 New state      1 was old state      2
 New state      2 was old state      3
 New state      3 was old state      1
 Iteration     3 Dimension    48 NMult    36 NNew     12
 Iteration     4 Dimension    60 NMult    48 NNew     12
 Iteration     5 Dimension    72 NMult    60 NNew     12
 Iteration     6 Dimension    84 NMult    72 NNew     12
 Iteration     7 Dimension    96 NMult    84 NNew     12
 Iteration     8 Dimension   108 NMult    96 NNew     12
 Iteration     9 Dimension   120 NMult   108 NNew     12
 Iteration    10 Dimension   128 NMult   120 NNew      8
 ***********************************************************************
 Excited states from <AA,BB:AA,BB> singles matrix:
 ***********************************************************************
 
 Ground to excited state transition densities written to RWF  633
 Ground to excited state transition electric dipole moments (Au):
       state          X           Y           Z        Dip. S.      Osc.
         1         0.0397      0.5699     -0.0089      0.3264      0.0401
         2         0.8594     -0.4163     -0.0004      0.9118      0.1133
         3        -0.0640     -0.0149     -0.1523      0.0275      0.0036
         4         0.0482     -0.0205     -0.1635      0.0295      0.0042
         5         0.1298      0.0519      0.0018      0.0195      0.0028
         6         0.1292      0.0246      0.1185      0.0313      0.0046
 Ground to excited state transition velocity dipole moments (Au):
       state          X           Y           Z        Dip. S.      Osc.
         1        -0.0096     -0.1120      0.0017      0.0126      0.0457
         2        -0.1487      0.0834     -0.0005      0.0291      0.1040
         3         0.0120      0.0028      0.0196      0.0005      0.0018
         4        -0.0097      0.0045      0.0363      0.0014      0.0045
         5        -0.0276     -0.0114     -0.0001      0.0009      0.0027
         6        -0.0276     -0.0052     -0.0262      0.0015      0.0045
 Ground to excited state transition magnetic dipole moments (Au):
       state          X           Y           Z
         1        -0.0031      0.0072      0.1714
         2        -0.0121      0.0014     -0.0613
         3         0.1408     -0.0928     -0.0117
         4         0.0968     -0.3055      0.0078
         5         0.3268     -0.2005      0.0480
         6         0.2141      0.3936      0.0361
 Ground to excited state transition velocity quadrupole moments (Au):
       state          XX          YY          ZZ          XY          XZ          YZ
         1         0.1069     -0.0014     -0.0081      0.0268     -0.0063     -0.0025
         2        -0.2249      0.1824     -0.0286     -0.0065     -0.0008     -0.0135
         3         0.0041     -0.0097     -0.0036      0.0013      0.0791      0.0665
         4        -0.0035      0.0095      0.0059     -0.0056      0.2193      0.0350
         5        -0.0315      0.0127      0.0044      0.0368      0.2541      0.3089
         6        -0.0206      0.0219      0.0061      0.0376     -0.3312      0.0921
 <0|del|b> * <b|rxdel|0> + <0|del|b> * <b|delr+rdel|0>
 Rotatory Strengths (R) in cgs (10**-40 erg-esu-cm/Gauss)
       state          XX          YY          ZZ    R(velocity)    E-M Angle
         1        -2.2415      0.5888     -0.1738     -0.6088       91.42
         2         0.4157      7.2789     -0.2904      2.4681       79.45
         3        -1.2554      4.0729      1.5559      1.4578       72.15
         4        -3.8474     -1.3175     -1.6538     -2.2729       99.69
         5         8.3833    -28.4309     -1.7928     -7.2801      125.74
         6        -9.1261    -13.5291     -5.9350     -9.5301      120.99
 1/2[<0|r|b>*<b|rxdel|0> + (<0|rxdel|b>*<b|r|0>)*]
 Rotatory Strengths (R) in cgs (10**-40 erg-esu-cm/Gauss)
       state          XX          YY          ZZ     R(length)
         1         0.0869     -2.9000      1.0799     -0.5777
         2         7.3701      0.4165     -0.0162      2.5901
         3         6.3724     -0.9783     -1.2567      1.3791
         4        -3.3031     -4.4283      0.9040     -2.2758
         5       -29.9972      7.3562     -0.0612     -7.5674
         6       -19.5652     -6.8481     -3.0258     -9.8130
  1/2[<0|del|b>*<b|r|0> + (<0|r|b>*<b|del|0>)*] (Au)
       state          X           Y           Z        Dip. S.   Osc.(frdel)
         1        -0.0004     -0.0638     -0.0000      0.0642      0.0428
         2        -0.1278     -0.0347      0.0000      0.1625      0.1083
         3        -0.0008     -0.0000     -0.0030      0.0038      0.0025
         4        -0.0005     -0.0001     -0.0059      0.0065      0.0043
         5        -0.0036     -0.0006     -0.0000      0.0042      0.0028
         6        -0.0036     -0.0001     -0.0031      0.0068      0.0045

 Excitation energies and oscillator strengths:
 
 Excited State   1:      Singlet-A      5.0203 eV  246.97 nm  f=0.0401  <S**2>=0.000
      30 -> 32         0.50199
      31 -> 32        -0.37124
      31 -> 36        -0.21391
      31 -> 37         0.17019
 This state for optimization and/or second-order correction.
 Total Energy, E(TD-HF/TD-DFT) =  -363.439479573    
 Copying the excited state density for this state as the 1-particle RhoCI density.
 
 Excited State   2:      Singlet-A      5.0709 eV  244.50 nm  f=0.1133  <S**2>=0.000
      30 -> 32         0.30428
      30 -> 36         0.12327
      31 -> 32         0.55802
      31 -> 36        -0.18331
      31 -> 37         0.14461
 
 Excited State   3:      Singlet-A      5.2826 eV  234.70 nm  f=0.0036  <S**2>=0.000
      31 -> 33         0.68454
 
 Excited State   4:      Singlet-A      5.7627 eV  215.15 nm  f=0.0042  <S**2>=0.000
      30 -> 33         0.64436
      31 -> 34         0.19534
 
 Excited State   5:      Singlet-A      5.9354 eV  208.89 nm  f=0.0028  <S**2>=0.000
      30 -> 33        -0.20598
      31 -> 34         0.63625
      31 -> 35        -0.10742
 
 Excited State   6:      Singlet-A      5.9810 eV  207.30 nm  f=0.0046  <S**2>=0.000
      31 -> 34         0.11815
      31 -> 35         0.65348
 SavETr:  write IOETrn=   770 NScale= 10 NData=  16 NLR=1 NState=    6 LETran=     118.
          IDoAtm=1111111111111111
          Differentiating once with respect to electric field.
                with respect to dipole field.
          Differentiating once with respect to nuclear coordinates.
          There are     1 degrees of freedom in the 1st order CPHF.  IDoFFX=0 NUNeed=     1.
 LinEq1:  Iter=  0 NonCon=     1 RMS=4.64D-03 Max=7.56D-02 NDo=     1
 AX will form     1 AO Fock derivatives at one time.
 LinEq1:  Iter=  1 NonCon=     1 RMS=1.87D-03 Max=4.40D-02 NDo=     1
 LinEq1:  Iter=  2 NonCon=     1 RMS=1.05D-03 Max=2.19D-02 NDo=     1
 LinEq1:  Iter=  3 NonCon=     1 RMS=5.06D-04 Max=1.79D-02 NDo=     1
 LinEq1:  Iter=  4 NonCon=     1 RMS=2.45D-04 Max=7.28D-03 NDo=     1
 LinEq1:  Iter=  5 NonCon=     1 RMS=1.45D-04 Max=4.18D-03 NDo=     1
 LinEq1:  Iter=  6 NonCon=     1 RMS=5.82D-05 Max=1.38D-03 NDo=     1
 LinEq1:  Iter=  7 NonCon=     1 RMS=2.80D-05 Max=4.48D-04 NDo=     1
 LinEq1:  Iter=  8 NonCon=     1 RMS=1.38D-05 Max=3.07D-04 NDo=     1
 LinEq1:  Iter=  9 NonCon=     1 RMS=6.73D-06 Max=8.62D-05 NDo=     1
 LinEq1:  Iter= 10 NonCon=     1 RMS=2.17D-06 Max=3.00D-05 NDo=     1
 LinEq1:  Iter= 11 NonCon=     1 RMS=1.45D-06 Max=3.48D-05 NDo=     1
 LinEq1:  Iter= 12 NonCon=     1 RMS=4.22D-07 Max=6.38D-06 NDo=     1
 LinEq1:  Iter= 13 NonCon=     1 RMS=1.71D-07 Max=2.88D-06 NDo=     1
 LinEq1:  Iter= 14 NonCon=     1 RMS=8.81D-08 Max=1.65D-06 NDo=     1
 LinEq1:  Iter= 15 NonCon=     1 RMS=2.56D-08 Max=3.95D-07 NDo=     1
 LinEq1:  Iter= 16 NonCon=     1 RMS=1.18D-08 Max=1.94D-07 NDo=     1
 LinEq1:  Iter= 17 NonCon=     1 RMS=3.25D-09 Max=4.41D-08 NDo=     1
 LinEq1:  Iter= 18 NonCon=     1 RMS=8.25D-10 Max=1.23D-08 NDo=     1
 LinEq1:  Iter= 19 NonCon=     1 RMS=3.59D-10 Max=4.90D-09 NDo=     1
 LinEq1:  Iter= 20 NonCon=     1 RMS=1.35D-10 Max=2.18D-09 NDo=     1
 LinEq1:  Iter= 21 NonCon=     0 RMS=3.35D-11 Max=6.15D-10 NDo=     1
 Linear equations converged to 1.000D-10 1.000D-09 after    21 iterations.
 End of Minotr F.D. properties file   721 does not exist.
 End of Minotr F.D. properties file   722 does not exist.
 End of Minotr F.D. properties file   788 does not exist.

 **********************************************************************

            Population analysis using the CI Density.

 **********************************************************************

 Orbital symmetries:
       Occupied  (A) (A) (A) (A) (A) (A) (A) (A) (A) (A) (A) (A)
                 (A) (A) (A) (A) (A) (A) (A) (A) (A) (A) (A) (A)
                 (A) (A) (A) (A) (A) (A) (A)
       Virtual   (A) (A) (A) (A) (A) (A) (A) (A) (A) (A) (A) (A)
                 (A) (A) (A) (A) (A) (A) (A) (A) (A) (A) (A) (A)
                 (A) (A) (A) (A) (A) (A) (A) (A) (A) (A) (A) (A)
                 (A) (A) (A) (A) (A) (A) (A) (A) (A) (A) (A) (A)
                 (A) (A) (A) (A) (A) (A) (A) (A) (A) (A) (A) (A)
                 (A) (A) (A) (A) (A) (A) (A) (A) (A) (A) (A) (A)
                 (A) (A) (A) (A) (A) (A) (A) (A) (A) (A) (A) (A)
                 (A) (A) (A) (A) (A) (A) (A) (A) (A) (A) (A) (A)
                 (A) (A) (A) (A) (A) (A) (A) (A) (A) (A) (A) (A)
                 (A) (A) (A) (A) (A) (A) (A) (A) (A) (A) (A) (A)
                 (A) (A) (A) (A) (A) (A) (A) (A) (A) (A) (A) (A)
                 (A) (A) (A) (A) (A) (A) (A) (A) (A) (A) (A) (A)
                 (A) (A) (A) (A) (A) (A) (A) (A) (A) (A)
 The electronic state is 1-A.
 Alpha  occ. eigenvalues --  -14.45854 -10.29991 -10.29684 -10.26722 -10.26254
 Alpha  occ. eigenvalues --  -10.26187 -10.26157 -10.25700 -10.25356  -1.06665
 Alpha  occ. eigenvalues --   -0.92474  -0.86612  -0.81731  -0.79919  -0.70195
 Alpha  occ. eigenvalues --   -0.67128  -0.65761  -0.61373  -0.55419  -0.54301
 Alpha  occ. eigenvalues --   -0.50665  -0.49861  -0.49556  -0.48055  -0.45954
 Alpha  occ. eigenvalues --   -0.42233  -0.40319  -0.39948  -0.34158  -0.27716
 Alpha  occ. eigenvalues --   -0.26013
 Alpha virt. eigenvalues --    0.02347   0.02439   0.04260   0.04750   0.06140
 Alpha virt. eigenvalues --    0.06229   0.06355   0.08001   0.08566   0.09033
 Alpha virt. eigenvalues --    0.09124   0.09368   0.11182   0.11894   0.13119
 Alpha virt. eigenvalues --    0.13188   0.14041   0.15432   0.16643   0.16813
 Alpha virt. eigenvalues --    0.18153   0.18556   0.19393   0.19819   0.20276
 Alpha virt. eigenvalues --    0.21567   0.21734   0.21954   0.22807   0.23511
 Alpha virt. eigenvalues --    0.23732   0.24835   0.24978   0.25992   0.26391
 Alpha virt. eigenvalues --    0.26684   0.27278   0.27703   0.29032   0.29509
 Alpha virt. eigenvalues --    0.30526   0.30815   0.32120   0.33575   0.34802
 Alpha virt. eigenvalues --    0.35752   0.35851   0.37387   0.39252   0.41760
 Alpha virt. eigenvalues --    0.42658   0.45064   0.49392   0.50372   0.56850
 Alpha virt. eigenvalues --    0.63813   0.68106   0.72861   0.73130   0.75515
 Alpha virt. eigenvalues --    0.77134   0.77665   0.78771   0.79365   0.79850
 Alpha virt. eigenvalues --    0.80885   0.81436   0.83451   0.84824   0.85569
 Alpha virt. eigenvalues --    0.87237   0.91020   0.94922   0.95523   0.96690
 Alpha virt. eigenvalues --    0.99127   0.99683   1.00832   1.02032   1.03944
 Alpha virt. eigenvalues --    1.05827   1.08437   1.10297   1.11897   1.15425
 Alpha virt. eigenvalues --    1.17289   1.17703   1.22905   1.24158   1.26680
 Alpha virt. eigenvalues --    1.28274   1.31455   1.31571   1.37587   1.39750
 Alpha virt. eigenvalues --    1.41240   1.42981   1.47756   1.48873   1.51230
 Alpha virt. eigenvalues --    1.53612   1.54127   1.57157   1.58368   1.60494
 Alpha virt. eigenvalues --    1.65211   1.71590   1.85737   1.91304   1.95060
 Alpha virt. eigenvalues --    1.96714   1.97860   2.00000   2.05627   2.06716
 Alpha virt. eigenvalues --    2.08272   2.13163   2.16653   2.20938   2.23970
 Alpha virt. eigenvalues --    2.25178   2.26566   2.32655   2.33612   2.34225
 Alpha virt. eigenvalues --    2.35421   2.38805   2.45764   2.48642   2.51522
 Alpha virt. eigenvalues --    2.61613   2.63458   2.70970   2.73024   2.74311
 Alpha virt. eigenvalues --    2.76931   2.80810   2.87884   2.91373   2.92857
 Alpha virt. eigenvalues --    3.02739   3.04524   3.18034   3.31143   3.50810
 Alpha virt. eigenvalues --    4.21484   4.32213   4.35325   4.38821   4.42233
 Alpha virt. eigenvalues --    4.46182   4.54319   4.58489   4.84949
          Condensed to atoms (all electrons):
               1          2          3          4          5          6
     1  C    5.946520   0.290460   0.324704  -0.816036   0.104592  -0.425333
     2  C    0.290460   6.188157  -0.311088   0.435939  -0.750504   0.606325
     3  C    0.324704  -0.311088  13.740801  -3.436587  -2.998725  -2.983013
     4  C   -0.816036   0.435939  -3.436587  13.949741  -2.959638  -0.332883
     5  C    0.104592  -0.750504  -2.998725  -2.959638  15.000746  -1.322852
     6  C   -0.425333   0.606325  -2.983013  -0.332883  -1.322852  13.494716
     7  N   -0.025759   0.016633  -0.453274  -0.296944   0.731429   0.112190
     8  C    0.337729  -0.346064   3.465431   0.441240  -5.087938  -3.604684
     9  C   -0.107434   0.049666  -1.302067  -0.281720   1.920927   1.016589
    10  H   -0.001403  -0.010128  -0.117770  -0.089237   0.169125   0.027435
    11  H   -0.000352   0.000711   0.006813   0.079629  -0.069296  -0.047485
    12  H    0.000231   0.000876   0.017221   0.068295  -0.038058  -0.019701
    13  H   -0.029448   0.323230  -0.039595   0.036154  -0.005923   0.023660
    14  H    0.023526   0.014398   0.274419  -0.016040   0.020527  -0.022855
    15  H    0.316037  -0.014231   0.030136  -0.024876   0.034922  -0.041904
    16  H   -0.011579   0.022192  -0.044203   0.041579   0.042064   0.291992
               7          8          9         10         11         12
     1  C   -0.025759   0.337729  -0.107434  -0.001403  -0.000352   0.000231
     2  C    0.016633  -0.346064   0.049666  -0.010128   0.000711   0.000876
     3  C   -0.453274   3.465431  -1.302067  -0.117770   0.006813   0.017221
     4  C   -0.296944   0.441240  -0.281720  -0.089237   0.079629   0.068295
     5  C    0.731429  -5.087938   1.920927   0.169125  -0.069296  -0.038058
     6  C    0.112190  -3.604684   1.016589   0.027435  -0.047485  -0.019701
     7  N    7.298339  -0.585167   0.446023   0.274523   0.006806  -0.055388
     8  C   -0.585167  13.381590  -2.489197   0.007134   0.377918  -0.038335
     9  C    0.446023  -2.489197   6.796915  -0.028435  -0.055672   0.377210
    10  H    0.274523   0.007134  -0.028435   0.336941  -0.000085  -0.002530
    11  H    0.006806   0.377918  -0.055672  -0.000085   0.492646  -0.000838
    12  H   -0.055388  -0.038335   0.377210  -0.002530  -0.000838   0.484672
    13  H   -0.000388  -0.002374   0.001634  -0.000002   0.000000  -0.000000
    14  H   -0.005352  -0.007631   0.009013   0.001876   0.000002   0.000002
    15  H    0.000224   0.003790  -0.000174  -0.000000  -0.000001  -0.000000
    16  H   -0.000826  -0.054329   0.004424   0.000004   0.001392  -0.000001
              13         14         15         16
     1  C   -0.029448   0.023526   0.316037  -0.011579
     2  C    0.323230   0.014398  -0.014231   0.022192
     3  C   -0.039595   0.274419   0.030136  -0.044203
     4  C    0.036154  -0.016040  -0.024876   0.041579
     5  C   -0.005923   0.020527   0.034922   0.042064
     6  C    0.023660  -0.022855  -0.041904   0.291992
     7  N   -0.000388  -0.005352   0.000224  -0.000826
     8  C   -0.002374  -0.007631   0.003790  -0.054329
     9  C    0.001634   0.009013  -0.000174   0.004424
    10  H   -0.000002   0.001876  -0.000000   0.000004
    11  H    0.000000   0.000002  -0.000001   0.001392
    12  H   -0.000000   0.000002  -0.000000  -0.000001
    13  H    0.520637  -0.004137  -0.004213  -0.000141
    14  H   -0.004137   0.526661  -0.000137   0.000016
    15  H   -0.004213  -0.000137   0.511904  -0.003839
    16  H   -0.000141   0.000016  -0.003839   0.518621
 Mulliken charges:
               1
     1  C    0.073545
     2  C   -0.516575
     3  C   -0.173203
     4  C   -0.798616
     5  C    1.208603
     6  C   -0.772198
     7  N   -0.463068
     8  C    0.200886
     9  C   -0.357702
    10  H    0.432555
    11  H    0.207812
    12  H    0.206344
    13  H    0.180906
    14  H    0.185712
    15  H    0.192363
    16  H    0.192635
 Sum of Mulliken charges =  -0.00000
 Mulliken charges with hydrogens summed into heavy atoms:
               1
     1  C    0.265908
     2  C   -0.335668
     3  C    0.012509
     4  C   -0.798616
     5  C    1.208603
     6  C   -0.579563
     7  N   -0.030513
     8  C    0.408698
     9  C   -0.151359
 Electronic spatial extent (au):  <R**2>=           1014.8844
 Charge=              0.0000 electrons
 Dipole moment (field-independent basis, Debye):
    X=              2.2562    Y=             -1.0276    Z=             -0.0373  Tot=              2.4795
 Quadrupole moment (field-independent basis, Debye-Ang):
   XX=            -47.5176   YY=            -45.7764   ZZ=            -60.3925
   XY=             -4.2299   XZ=             -0.1583   YZ=              0.0228
 Traceless Quadrupole moment (field-independent basis, Debye-Ang):
   XX=              3.7113   YY=              5.4524   ZZ=             -9.1637
   XY=             -4.2299   XZ=             -0.1583   YZ=              0.0228
 Octapole moment (field-independent basis, Debye-Ang**2):
  XXX=             15.8090  YYY=             -8.7526  ZZZ=             -0.3056  XYY=             12.4537
  XXY=             -5.2951  XXZ=              0.1407  XZZ=              2.9022  YZZ=             -0.6466
  YYZ=             -0.6059  XYZ=             -0.3677
 Hexadecapole moment (field-independent basis, Debye-Ang**3):
 XXXX=           -869.6842 YYYY=           -390.5645 ZZZZ=            -86.5886 XXXY=            -30.4626
 XXXZ=             -2.1438 YYYX=            -19.9917 YYYZ=             -0.3883 ZZZX=             -0.5784
 ZZZY=              0.1974 XXYY=           -199.9255 XXZZ=           -203.2173 YYZZ=           -102.1094
 XXYZ=              0.7556 YYXZ=              0.0646 ZZXY=             -4.5102
 N-N= 4.000099183022D+02 E-N=-1.642117000255D+03  KE= 3.603345539357D+02
 Calling FoFJK, ICntrl=  10005127 FMM=F ISym2X=0 I1Cent= 0 IOpClX= 0 NMat=1 NMatS=1 NMatT=0.
 ***** Axes restored to original set *****
 -------------------------------------------------------------------
 Center     Atomic                   Forces (Hartrees/Bohr)
 Number     Number              X              Y              Z
 -------------------------------------------------------------------
      1        6          -0.025311077   -0.018124295   -0.001404996
      2        6          -0.037196678    0.008516425    0.001925157
      3        6           0.023114828   -0.024030526   -0.001589395
      4        6           0.007584127   -0.014504156    0.001065570
      5        6           0.005008686    0.008551193   -0.001639432
      6        6           0.024691332    0.028986302    0.001108846
      7        7          -0.026834861    0.008403610   -0.000136295
      8        6          -0.006863669    0.000816272    0.000253397
      9        6           0.027598687    0.004097668   -0.000483881
     10        1           0.000272330   -0.002108287   -0.000018499
     11        1           0.000291588   -0.000266213    0.000303483
     12        1          -0.000929688    0.000328917    0.000058598
     13        1           0.002839221    0.002024433    0.001008000
     14        1          -0.000087061    0.002858784    0.000289226
     15        1           0.005566397   -0.002416223   -0.001533598
     16        1           0.000255836   -0.003133903    0.000793820
 -------------------------------------------------------------------
 Cartesian Forces:  Max     0.037196678 RMS     0.012128159

 GradGradGradGradGradGradGradGradGradGradGradGradGradGradGradGradGradGrad
 Berny optimization.
 FormGI is forming the generalized inverse of G from B-inverse, IUseBI=4.
 Internal  Forces:  Max     0.034344015 RMS     0.006308670
 Search for a local minimum.
 Step number   1 out of a maximum of   94
 All quantities printed in internal units (Hartrees-Bohrs-Radians)
 Mixed Optimization -- RFO/linear search
 Second derivative matrix not updated -- first step.
 ITU=  0
     Eigenvalues ---    0.01796   0.01876   0.01936   0.01957   0.02014
     Eigenvalues ---    0.02077   0.02091   0.02104   0.02135   0.02150
     Eigenvalues ---    0.02171   0.02192   0.02277   0.15995   0.15997
     Eigenvalues ---    0.15999   0.15999   0.16000   0.16000   0.16000
     Eigenvalues ---    0.21967   0.22184   0.22640   0.24007   0.24641
     Eigenvalues ---    0.34301   0.34775   0.34841   0.34849   0.35843
     Eigenvalues ---    0.35881   0.36568   0.37979   0.41971   0.43107
     Eigenvalues ---    0.45016   0.46141   0.46401   0.46720   0.46776
     Eigenvalues ---    0.47290   0.50149
 RFO step:  Lambda=-8.46249067D-03 EMin= 1.79641872D-02
 Linear search not attempted -- first point.
 Iteration  1 RMS(Cart)=  0.02351257 RMS(Int)=  0.00033384
 Iteration  2 RMS(Cart)=  0.00035644 RMS(Int)=  0.00016325
 Iteration  3 RMS(Cart)=  0.00000013 RMS(Int)=  0.00016325
 Variable       Old X    -DE/DX   Delta X   Delta X   Delta X     New X
                                 (Linear)    (Quad)   (Total)
    R1        2.65763   0.00205   0.00000   0.00622   0.00620   2.66383
    R2        2.62302   0.03434   0.00000   0.07153   0.07152   2.69453
    R3        2.06825  -0.00613   0.00000  -0.01744  -0.01744   2.05081
    R4        2.62246   0.03041   0.00000   0.06359   0.06358   2.68604
    R5        2.05920  -0.00349   0.00000  -0.00977  -0.00977   2.04943
    R6        2.64564   0.00849   0.00000   0.01753   0.01755   2.66319
    R7        2.05934  -0.00286   0.00000  -0.00802  -0.00802   2.05132
    R8        2.68977   0.01215   0.00000   0.02485   0.02469   2.71445
    R9        2.60613  -0.01142   0.00000  -0.02421  -0.02420   2.58193
   R10        2.65581   0.00268   0.00000   0.00490   0.00491   2.66072
   R11        2.71547   0.00221   0.00000   0.00609   0.00598   2.72145
   R12        2.06041  -0.00316   0.00000  -0.00887  -0.00887   2.05154
   R13        2.61450   0.01429   0.00000   0.02954   0.02972   2.64422
   R14        1.90381   0.00209   0.00000   0.00442   0.00442   1.90823
   R15        2.58787   0.00490   0.00000   0.01116   0.01127   2.59915
   R16        2.04327  -0.00015   0.00000  -0.00042  -0.00042   2.04285
   R17        2.04268  -0.00096   0.00000  -0.00261  -0.00261   2.04007
    A1        2.11021   0.00559   0.00000   0.02946   0.02921   2.13942
    A2        2.08048  -0.00228   0.00000  -0.01164  -0.01162   2.06887
    A3        2.09247  -0.00330   0.00000  -0.01767  -0.01764   2.07482
    A4        2.11832  -0.00681   0.00000  -0.02438  -0.02460   2.09372
    A5        2.07961   0.00305   0.00000   0.01020   0.01029   2.08990
    A6        2.08500   0.00377   0.00000   0.01441   0.01450   2.09950
    A7        2.04953  -0.00190   0.00000  -0.00767  -0.00786   2.04167
    A8        2.11773   0.00091   0.00000   0.00366   0.00373   2.12146
    A9        2.11584   0.00099   0.00000   0.00416   0.00422   2.12006
   A10        2.13411   0.00735   0.00000   0.02746   0.02742   2.16153
   A11        2.27810  -0.00188   0.00000  -0.00186  -0.00169   2.27642
   A12        1.87093  -0.00547   0.00000  -0.02559  -0.02572   1.84521
   A13        2.06944  -0.00075   0.00000  -0.00626  -0.00626   2.06318
   A14        1.86461   0.00193   0.00000   0.00691   0.00666   1.87127
   A15        2.34906  -0.00117   0.00000  -0.00055  -0.00033   2.34873
   A16        2.08151  -0.00337   0.00000  -0.01517  -0.01538   2.06613
   A17        2.10290   0.00185   0.00000   0.00864   0.00870   2.11160
   A18        2.09860   0.00153   0.00000   0.00678   0.00684   2.10544
   A19        1.90817   0.01078   0.00000   0.04388   0.04400   1.95218
   A20        2.18895  -0.00577   0.00000  -0.02419  -0.02425   2.16469
   A21        2.18607  -0.00501   0.00000  -0.01969  -0.01975   2.16632
   A22        1.87017   0.00256   0.00000   0.01454   0.01450   1.88467
   A23        2.21386  -0.00090   0.00000  -0.00505  -0.00503   2.20884
   A24        2.19915  -0.00165   0.00000  -0.00950  -0.00948   2.18967
   A25        1.91087  -0.00979   0.00000  -0.03965  -0.03943   1.87144
   A26        2.09958   0.00513   0.00000   0.02122   0.02109   2.12067
   A27        2.27270   0.00467   0.00000   0.01849   0.01837   2.29107
    D1        0.08496  -0.00147   0.00000  -0.04710  -0.04711   0.03785
    D2       -3.08112  -0.00105   0.00000  -0.03535  -0.03557  -3.11669
    D3       -3.06462  -0.00091   0.00000  -0.02555  -0.02525  -3.08988
    D4        0.05248  -0.00049   0.00000  -0.01380  -0.01371   0.03877
    D5       -0.08896   0.00114   0.00000   0.04449   0.04486  -0.04410
    D6        3.07230   0.00069   0.00000   0.03003   0.03048   3.10278
    D7        3.06067   0.00057   0.00000   0.02276   0.02291   3.08358
    D8       -0.06125   0.00012   0.00000   0.00830   0.00853  -0.05272
    D9       -0.03480   0.00071   0.00000   0.02309   0.02281  -0.01199
   D10        3.12057   0.00033   0.00000   0.01125   0.01106   3.13163
   D11        3.13135   0.00030   0.00000   0.01137   0.01127  -3.14056
   D12        0.00354  -0.00008   0.00000  -0.00047  -0.00049   0.00305
   D13       -0.00812  -0.00000   0.00000   0.00202   0.00195  -0.00617
   D14       -3.13901  -0.00008   0.00000   0.00034   0.00036  -3.13865
   D15        3.11971   0.00038   0.00000   0.01385   0.01369   3.13340
   D16       -0.01119   0.00030   0.00000   0.01217   0.01211   0.00092
   D17        0.00259  -0.00015   0.00000  -0.00325  -0.00309  -0.00051
   D18       -3.12801  -0.00040   0.00000  -0.01114  -0.01090  -3.13891
   D19        3.13567  -0.00009   0.00000  -0.00186  -0.00179   3.13388
   D20        0.00507  -0.00034   0.00000  -0.00974  -0.00959  -0.00452
   D21        3.13110   0.00028   0.00000   0.00531   0.00509   3.13619
   D22       -0.00902   0.00019   0.00000   0.00371   0.00357  -0.00545
   D23       -0.00102   0.00015   0.00000   0.00358   0.00348   0.00246
   D24       -3.14114   0.00005   0.00000   0.00198   0.00196  -3.13918
   D25        0.04569  -0.00088   0.00000  -0.02151  -0.02100   0.02469
   D26       -3.11552  -0.00043   0.00000  -0.00706  -0.00665  -3.12217
   D27       -3.11068  -0.00052   0.00000  -0.01087  -0.01050  -3.12118
   D28        0.01129  -0.00006   0.00000   0.00358   0.00385   0.01514
   D29       -0.00728   0.00039   0.00000   0.01226   0.01233   0.00505
   D30        3.13205   0.00029   0.00000   0.00982   0.00988  -3.14126
   D31       -3.13531   0.00007   0.00000   0.00257   0.00271  -3.13259
   D32        0.00402  -0.00003   0.00000   0.00013   0.00026   0.00428
   D33       -0.00369   0.00014   0.00000   0.00445   0.00437   0.00068
   D34       -3.13774  -0.00011   0.00000  -0.00318  -0.00312  -3.14086
   D35        3.13643   0.00023   0.00000   0.00604   0.00589  -3.14086
   D36        0.00238  -0.00002   0.00000  -0.00159  -0.00160   0.00078
   D37        0.00679  -0.00036   0.00000  -0.01049  -0.01033  -0.00355
   D38        3.13985  -0.00008   0.00000  -0.00188  -0.00186   3.13799
   D39       -3.13257  -0.00026   0.00000  -0.00808  -0.00792  -3.14049
   D40        0.00050   0.00002   0.00000   0.00052   0.00055   0.00104
         Item               Value     Threshold  Converged?
 Maximum Force            0.034344     0.000450     NO 
 RMS     Force            0.006309     0.000300     NO 
 Maximum Displacement     0.070120     0.001800     NO 
 RMS     Displacement     0.023435     0.001200     NO 
 Predicted change in Energy=-4.367336D-03
 GradGradGradGradGradGradGradGradGradGradGradGradGradGradGradGradGradGrad

                          Input orientation:                          
 ---------------------------------------------------------------------
 Center     Atomic      Atomic             Coordinates (Angstroms)
 Number     Number       Type             X           Y           Z
 ---------------------------------------------------------------------
      1          6           0       -2.171324    0.676277    0.011483
      2          6           0       -2.170306   -0.733237   -0.007043
      3          6           0       -0.938402   -1.442292   -0.005157
      4          6           0        0.242218   -0.672728    0.000643
      5          6           0        0.261023    0.763572   -0.002697
      6          6           0       -0.970862    1.445330   -0.012955
      7          7           0        1.552434   -1.060158    0.000597
      8          6           0        1.642083    1.171773    0.001579
      9          6           0        2.420131    0.037581    0.000621
     10          1           0        1.857005   -2.022924    0.000591
     11          1           0        2.013434    2.187021    0.000870
     12          1           0        3.492052   -0.090594   -0.000084
     13          1           0       -3.111552   -1.271945   -0.010498
     14          1           0       -0.907570   -2.527353   -0.009925
     15          1           0       -3.124227    1.193464    0.058903
     16          1           0       -1.002486    2.530294   -0.033937
 ---------------------------------------------------------------------
                    Distance matrix (angstroms):
                    1          2          3          4          5
     1  C    0.000000
     2  C    1.409637   0.000000
     3  C    2.451268   1.421390   0.000000
     4  C    2.764981   2.413294   1.409299   0.000000
     5  C    2.433954   2.855138   2.510868   1.436427   0.000000
     6  C    1.425885   2.486937   2.887815   2.440884   1.407991
     7  N    4.108735   3.737074   2.519984   1.366297   2.234668
     8  C    3.845477   4.261860   3.673184   2.315558   1.440130
     9  C    4.635678   4.654710   3.670122   2.290818   2.277899
    10  H    4.849046   4.228780   2.855077   2.104891   3.211188
    11  H    4.449119   5.102122   4.678171   3.363834   2.257691
    12  H    5.715073   5.698714   4.632066   3.301561   3.342029
    13  H    2.163350   1.084511   2.179824   3.406898   3.939245
    14  H    3.443949   2.193937   1.085509   2.182145   3.492255
    15  H    1.085244   2.150928   3.424784   3.849547   3.412992
    16  H    2.192173   3.466290   3.973207   3.436544   2.172266
                    6          7          8          9         10
     6  C    0.000000
     7  N    3.555935   0.000000
     8  C    2.627266   2.233731   0.000000
     9  C    3.671618   1.399260   1.375410   0.000000
    10  H    4.475020   1.009794   3.201919   2.136069   0.000000
    11  H    3.075113   3.279740   1.081032   2.187578   4.212851
    12  H    4.719834   2.168450   2.239633   1.079557   2.531261
    13  H    3.459211   4.668805   5.344994   5.684585   5.025003
    14  H    3.973188   2.864331   4.492705   4.201498   2.810237
    15  H    2.169235   5.191663   4.766704   5.663865   5.929690
    16  H    1.085628   4.406830   2.973312   4.234279   5.376772
                   11         12         13         14         15
    11  H    0.000000
    12  H    2.715482   0.000000
    13  H    6.183047   6.708449   0.000000
    14  H    5.545963   5.029370   2.536452   0.000000
    15  H    5.233172   6.739987   2.466418   4.331603   0.000000
    16  H    3.035593   5.202987   4.348072   5.058595   2.509486
                   16
    16  H    0.000000
 Stoichiometry    C8H7N
 Framework group  C1[X(C8H7N)]
 Deg. of freedom    42
 Full point group                 C1      NOp   1
 Largest Abelian subgroup         C1      NOp   1
 Largest concise Abelian subgroup C1      NOp   1
                         Standard orientation:                         
 ---------------------------------------------------------------------
 Center     Atomic      Atomic             Coordinates (Angstroms)
 Number     Number       Type             X           Y           Z
 ---------------------------------------------------------------------
      1          6           0       -2.160110    0.709030    0.012017
      2          6           0       -2.180976   -0.700337   -0.006046
      3          6           0       -0.960230   -1.428434   -0.003706
      4          6           0        0.232195   -0.677294    0.002054
      5          6           0        0.273301    0.758540   -0.001755
      6          6           0       -0.947847    1.459341   -0.012458
      7          7           0        1.536237   -1.085022    0.002371
      8          6           0        1.660533    1.145248    0.002636
      9          6           0        2.420875   -0.000889    0.002191
     10          1           0        1.825821   -2.052402    0.002737
     11          1           0        2.047605    2.154607    0.001660
     12          1           0        3.490677   -0.145693    0.001722
     13          1           0       -3.130473   -1.224365   -0.009493
     14          1           0       -0.946251   -2.513845   -0.008111
     15          1           0       -3.104875    1.240967    0.059095
     16          1           0       -0.962616    2.544658   -0.033803
 ---------------------------------------------------------------------
 Rotational constants (GHZ):           3.8430188           1.6083434           1.1338730
 Standard basis: 6-31+G(d) (6D, 7F)
 There are   185 symmetry adapted cartesian basis functions of A   symmetry.
 There are   185 symmetry adapted basis functions of A   symmetry.
   185 basis functions,   316 primitive gaussians,   185 cartesian basis functions
    31 alpha electrons       31 beta electrons
       nuclear repulsion energy       397.5279283577 Hartrees.
 NAtoms=   16 NActive=   16 NUniq=   16 SFac= 1.00D+00 NAtFMM=   60 NAOKFM=F Big=F
 Integral buffers will be    131072 words long.
 Raffenetti 1 integral format.
 Two-electron integral symmetry is turned on.
 One-electron integrals computed using PRISM.
 NBasis=   185 RedAO= T EigKep=  1.41D-06  NBF=   185
 NBsUse=   185 1.00D-06 EigRej= -1.00D+00 NBFU=   185
 Initial guess from the checkpoint file:  "FuncsCAM-B3LYP2nd.chk"
 B after Tr=    -0.000000    0.000000   -0.000000
         Rot=    0.999973   -0.000018    0.000002    0.007326 Ang=  -0.84 deg.
 ExpMin= 4.38D-02 ExpMax= 4.17D+03 ExpMxC= 6.27D+02 IAcc=3 IRadAn=         5 AccDes= 0.00D+00
 Harris functional with IExCor=20419 and IRadAn=       5 diagonalized for initial guess.
 HarFok:  IExCor=20419 AccDes= 0.00D+00 IRadAn=         5 IDoV= 1 UseB2=F ITyADJ=14
 ICtDFT=  3500011 ScaDFX=  1.000000  1.000000  1.000000  1.000000
 FoFCou: FMM=F IPFlag=           0 FMFlag=      100000 FMFlg1=           0
         NFxFlg=           0 DoJE=T BraDBF=F KetDBF=T FulRan=T
         wScrn=  0.000000 ICntrl=       500 IOpCl=  0 I1Cent=   200000004 NGrid=           0
         NMat0=    1 NMatS0=      1 NMatT0=    0 NMatD0=    1 NMtDS0=    0 NMtDT0=    0
 Petite list used in FoFCou.
 Requested convergence on RMS density matrix=1.00D-08 within 128 cycles.
 Requested convergence on MAX density matrix=1.00D-06.
 Requested convergence on             energy=1.00D-06.
 No special actions if energy rises.
 SCF Done:  E(RCAM-B3LYP) =  -363.619957251     A.U. after   14 cycles
            NFock= 14  Conv=0.32D-08     -V/T= 2.0103
 DoSCS=F DFT=T ScalE2(SS,OS)=  1.000000  1.000000
 ExpMin= 4.38D-02 ExpMax= 4.17D+03 ExpMxC= 6.27D+02 IAcc=3 IRadAn=         5 AccDes= 0.00D+00
 HarFok:  IExCor=  205 AccDes= 0.00D+00 IRadAn=         5 IDoV=-2 UseB2=F ITyADJ=14
 ICtDFT= 12500011 ScaDFX=  1.000000  1.000000  1.000000  1.000000
 Range of M.O.s used for correlation:    10   185
 NBasis=   185 NAE=    31 NBE=    31 NFC=     9 NFV=     0
 NROrb=    176 NOA=    22 NOB=    22 NVA=   154 NVB=   154

 **** Warning!!: The largest alpha MO coefficient is  0.20830151D+03

 Orbital symmetries:
       Occupied  (A) (A) (A) (A) (A) (A) (A) (A) (A) (A) (A) (A)
                 (A) (A) (A) (A) (A) (A) (A) (A) (A) (A) (A) (A)
                 (A) (A) (A) (A) (A) (A) (A)
       Virtual   (A) (A) (A) (A) (A) (A) (A) (A) (A) (A) (A) (A)
                 (A) (A) (A) (A) (A) (A) (A) (A) (A) (A) (A) (A)
                 (A) (A) (A) (A) (A) (A) (A) (A) (A) (A) (A) (A)
                 (A) (A) (A) (A) (A) (A) (A) (A) (A) (A) (A) (A)
                 (A) (A) (A) (A) (A) (A) (A) (A) (A) (A) (A) (A)
                 (A) (A) (A) (A) (A) (A) (A) (A) (A) (A) (A) (A)
                 (A) (A) (A) (A) (A) (A) (A) (A) (A) (A) (A) (A)
                 (A) (A) (A) (A) (A) (A) (A) (A) (A) (A) (A) (A)
                 (A) (A) (A) (A) (A) (A) (A) (A) (A) (A) (A) (A)
                 (A) (A) (A) (A) (A) (A) (A) (A) (A) (A) (A) (A)
                 (A) (A) (A) (A) (A) (A) (A) (A) (A) (A) (A) (A)
                 (A) (A) (A) (A) (A) (A) (A) (A) (A) (A) (A) (A)
                 (A) (A) (A) (A) (A) (A) (A) (A) (A) (A)
 Generating guess from densities on rwf.
 Convergence on wavefunction:    0.000001000000000
 Iteration     1 Dimension    12 NMult     0 NNew     12
 CISAX will form    12 AO SS matrices at one time.
 New state      5 was old state      6
 New state      6 was old state      5
 Iteration     2 Dimension    24 NMult    12 NNew     12
 Iteration     3 Dimension    36 NMult    24 NNew     12
 Iteration     4 Dimension    48 NMult    36 NNew     12
 Iteration     5 Dimension    60 NMult    48 NNew     12
 Iteration     6 Dimension    72 NMult    60 NNew     12
 Iteration     7 Dimension    84 NMult    72 NNew     12
 Iteration     8 Dimension    96 NMult    84 NNew     12
 Iteration     9 Dimension   108 NMult    96 NNew     12
 Iteration    10 Dimension   118 NMult   108 NNew     10
 Iteration    11 Dimension   124 NMult   118 NNew      6
 Iteration    12 Dimension   128 NMult   124 NNew      4
 Iteration    13 Dimension   130 NMult   128 NNew      2
 ***********************************************************************
 Excited states from <AA,BB:AA,BB> singles matrix:
 ***********************************************************************
 
 Ground to excited state transition densities written to RWF  633
 Ground to excited state transition electric dipole moments (Au):
       state          X           Y           Z        Dip. S.      Osc.
         1         0.0745      0.7042     -0.0015      0.5014      0.0588
         2         0.8252     -0.3874     -0.0028      0.8310      0.1009
         3        -0.0417     -0.0010     -0.1365      0.0204      0.0026
         4         0.0242     -0.0115     -0.1855      0.0351      0.0049
         5         0.0848      0.0210      0.0357      0.0089      0.0013
         6         0.0257     -0.0103      0.0490      0.0032      0.0005
 Ground to excited state transition velocity dipole moments (Au):
       state          X           Y           Z        Dip. S.      Osc.
         1        -0.0159     -0.1317      0.0005      0.0176      0.0667
         2        -0.1393      0.0746      0.0002      0.0250      0.0914
         3         0.0077      0.0000      0.0161      0.0003      0.0011
         4        -0.0049      0.0026      0.0390      0.0016      0.0049
         5        -0.0179     -0.0046     -0.0090      0.0004      0.0013
         6        -0.0054      0.0022     -0.0125      0.0002      0.0006
 Ground to excited state transition magnetic dipole moments (Au):
       state          X           Y           Z
         1         0.0004      0.0042      0.1879
         2        -0.0033      0.0011      0.0352
         3         0.1118     -0.0377     -0.0075
         4         0.1362     -0.3335      0.0018
         5         0.4123      0.1096      0.0291
         6         0.0481      0.4465      0.0014
 Ground to excited state transition velocity quadrupole moments (Au):
       state          XX          YY          ZZ          XY          XZ          YZ
         1         0.1028     -0.0099     -0.0085      0.0573     -0.0029     -0.0001
         2        -0.2246      0.1830     -0.0312      0.0084     -0.0013     -0.0053
         3         0.0042     -0.0103      0.0000      0.0002      0.0534      0.0454
         4        -0.0023      0.0061      0.0027     -0.0046      0.2433      0.0625
         5        -0.0185      0.0132      0.0026      0.0289     -0.0056      0.3514
         6        -0.0047      0.0123      0.0006      0.0088     -0.4138     -0.0555
 <0|del|b> * <b|rxdel|0> + <0|del|b> * <b|delr+rdel|0>
 Rotatory Strengths (R) in cgs (10**-40 erg-esu-cm/Gauss)
       state          XX          YY          ZZ    R(velocity)    E-M Angle
         1        -1.6190      0.1213     -0.3535     -0.6170       91.06
         2         0.3540      2.3156     -0.5647      0.7016       84.43
         3        -0.2207      1.9893      0.9369      0.9018       69.43
         4        -2.6971     -1.2120     -0.9972     -1.6354       95.90
         5        -1.7080    -22.2590     -2.5535     -8.8402      158.06
         6         2.9091      0.2158     -0.7941      0.7769       83.34
 1/2[<0|r|b>*<b|rxdel|0> + (<0|rxdel|b>*<b|r|0>)*]
 Rotatory Strengths (R) in cgs (10**-40 erg-esu-cm/Gauss)
       state          XX          YY          ZZ     R(length)
         1        -0.0221     -2.0690      0.1966     -0.6315
         2         1.9118      0.2909      0.0689      0.7572
         3         3.3006     -0.0264     -0.7231      0.8504
         4        -2.3360     -2.7196      0.2320     -1.6079
         5       -24.7303     -1.6295     -0.7344     -9.0314
         6        -0.8732      3.2623     -0.0482      0.7803
  1/2[<0|del|b>*<b|r|0> + (<0|r|b>*<b|del|0>)*] (Au)
       state          X           Y           Z        Dip. S.   Osc.(frdel)
         1        -0.0012     -0.0927     -0.0000      0.0939      0.0626
         2        -0.1149     -0.0289     -0.0000      0.1438      0.0959
         3        -0.0003     -0.0000     -0.0022      0.0025      0.0017
         4        -0.0001     -0.0000     -0.0072      0.0074      0.0049
         5        -0.0015     -0.0001     -0.0003      0.0019      0.0013
         6        -0.0001     -0.0000     -0.0006      0.0008      0.0005

 Excitation energies and oscillator strengths:
 
 Excited State   1:      Singlet-A      4.7832 eV  259.21 nm  f=0.0588  <S**2>=0.000
      30 -> 32         0.39932
      30 -> 36         0.14167
      31 -> 32         0.51321
      31 -> 36        -0.19419
 This state for optimization and/or second-order correction.
 Total Energy, E(TD-HF/TD-DFT) =  -363.444177763    
 Copying the excited state density for this state as the 1-particle RhoCI density.
 
 Excited State   2:      Singlet-A      4.9553 eV  250.21 nm  f=0.1009  <S**2>=0.000
      30 -> 32         0.44425
      30 -> 36        -0.10529
      31 -> 32        -0.43921
      31 -> 36        -0.28630
 
 Excited State   3:      Singlet-A      5.2605 eV  235.69 nm  f=0.0026  <S**2>=0.000
      31 -> 33         0.68356
 
 Excited State   4:      Singlet-A      5.7233 eV  216.63 nm  f=0.0049  <S**2>=0.000
      30 -> 33        -0.63203
      31 -> 34         0.23853
 
 Excited State   5:      Singlet-A      5.9230 eV  209.33 nm  f=0.0013  <S**2>=0.000
      30 -> 33         0.18941
      31 -> 34         0.59032
      31 -> 35         0.26625
 
 Excited State   6:      Singlet-A      5.9488 eV  208.42 nm  f=0.0005  <S**2>=0.000
      30 -> 33        -0.17076
      30 -> 34         0.12289
      31 -> 34        -0.22735
      31 -> 35         0.60872
 SavETr:  write IOETrn=   770 NScale= 10 NData=  16 NLR=1 NState=    6 LETran=     118.
          IDoAtm=1111111111111111
          Differentiating once with respect to electric field.
                with respect to dipole field.
          Differentiating once with respect to nuclear coordinates.
          There are     1 degrees of freedom in the 1st order CPHF.  IDoFFX=0 NUNeed=     1.
 LinEq1:  Iter=  0 NonCon=     1 RMS=5.25D-03 Max=1.25D-01 NDo=     1
 AX will form     1 AO Fock derivatives at one time.
 LinEq1:  Iter=  1 NonCon=     1 RMS=2.13D-03 Max=4.61D-02 NDo=     1
 LinEq1:  Iter=  2 NonCon=     1 RMS=1.22D-03 Max=2.84D-02 NDo=     1
 LinEq1:  Iter=  3 NonCon=     1 RMS=5.40D-04 Max=2.00D-02 NDo=     1
 LinEq1:  Iter=  4 NonCon=     1 RMS=2.67D-04 Max=9.38D-03 NDo=     1
 LinEq1:  Iter=  5 NonCon=     1 RMS=1.58D-04 Max=5.61D-03 NDo=     1
 LinEq1:  Iter=  6 NonCon=     1 RMS=6.25D-05 Max=1.55D-03 NDo=     1
 LinEq1:  Iter=  7 NonCon=     1 RMS=3.20D-05 Max=7.20D-04 NDo=     1
 LinEq1:  Iter=  8 NonCon=     1 RMS=1.59D-05 Max=3.82D-04 NDo=     1
 LinEq1:  Iter=  9 NonCon=     1 RMS=7.21D-06 Max=1.06D-04 NDo=     1
 LinEq1:  Iter= 10 NonCon=     1 RMS=2.47D-06 Max=4.69D-05 NDo=     1
 LinEq1:  Iter= 11 NonCon=     1 RMS=1.64D-06 Max=4.66D-05 NDo=     1
 LinEq1:  Iter= 12 NonCon=     1 RMS=4.63D-07 Max=7.51D-06 NDo=     1
 LinEq1:  Iter= 13 NonCon=     1 RMS=1.93D-07 Max=4.00D-06 NDo=     1
 LinEq1:  Iter= 14 NonCon=     1 RMS=1.00D-07 Max=2.11D-06 NDo=     1
 LinEq1:  Iter= 15 NonCon=     1 RMS=2.86D-08 Max=4.24D-07 NDo=     1
 LinEq1:  Iter= 16 NonCon=     1 RMS=8.60D-09 Max=1.43D-07 NDo=     1
 LinEq1:  Iter= 17 NonCon=     1 RMS=3.84D-09 Max=3.95D-08 NDo=     1
 LinEq1:  Iter= 18 NonCon=     1 RMS=1.13D-09 Max=9.90D-09 NDo=     1
 LinEq1:  Iter= 19 NonCon=     1 RMS=4.39D-10 Max=6.61D-09 NDo=     1
 LinEq1:  Iter= 20 NonCon=     1 RMS=1.68D-10 Max=1.63D-09 NDo=     1
 LinEq1:  Iter= 21 NonCon=     1 RMS=5.32D-11 Max=1.02D-09 NDo=     1
 LinEq1:  Iter= 22 NonCon=     0 RMS=1.45D-11 Max=2.81D-10 NDo=     1
 Linear equations converged to 1.000D-10 1.000D-09 after    22 iterations.
 End of Minotr F.D. properties file   721 does not exist.
 End of Minotr F.D. properties file   722 does not exist.
 End of Minotr F.D. properties file   788 does not exist.
 Calling FoFJK, ICntrl=  10005127 FMM=F ISym2X=0 I1Cent= 0 IOpClX= 0 NMat=1 NMatS=1 NMatT=0.
 ***** Axes restored to original set *****
 -------------------------------------------------------------------
 Center     Atomic                   Forces (Hartrees/Bohr)
 Number     Number              X              Y              Z
 -------------------------------------------------------------------
      1        6          -0.002109035   -0.014231902   -0.000229642
      2        6          -0.005742848    0.012684270    0.000902147
      3        6           0.007747938   -0.003462681   -0.000930990
      4        6           0.003507712    0.002531937   -0.000154653
      5        6          -0.000932043   -0.000637463    0.000038606
      6        6           0.006343114    0.004572864    0.000550521
      7        7          -0.007516414    0.000615869    0.000103683
      8        6          -0.005446159   -0.001202506   -0.000530080
      9        6           0.005611678   -0.000022855    0.000085849
     10        1           0.000549715   -0.001168368   -0.000070722
     11        1          -0.000279469    0.000411938    0.000081091
     12        1          -0.001116201   -0.001030542    0.000085694
     13        1           0.000786730    0.000207041    0.000571163
     14        1           0.000075951    0.000312617    0.000164484
     15        1           0.000020830    0.001109346   -0.001182447
     16        1          -0.001501499   -0.000689566    0.000515294
 -------------------------------------------------------------------
 Cartesian Forces:  Max     0.014231902 RMS     0.003782754

 GradGradGradGradGradGradGradGradGradGradGradGradGradGradGradGradGradGrad
 Berny optimization.
 Using GEDIIS/GDIIS optimizer.
 FormGI is forming the generalized inverse of G from B-inverse, IUseBI=4.
 Internal  Forces:  Max     0.009730528 RMS     0.001727270
 Search for a local minimum.
 Step number   2 out of a maximum of   94
 All quantities printed in internal units (Hartrees-Bohrs-Radians)
 Mixed Optimization -- RFO/linear search
 Update second derivatives using D2CorX and points    1    2
 DE= -4.70D-03 DEPred=-4.37D-03 R= 1.08D+00
 TightC=F SS=  1.41D+00  RLast= 1.80D-01 DXNew= 5.0454D-01 5.4025D-01
 Trust test= 1.08D+00 RLast= 1.80D-01 DXMaxT set to 5.05D-01
 ITU=  1  0
 Use linear search instead of GDIIS.
     Eigenvalues ---    0.01794   0.01879   0.01936   0.01956   0.02013
     Eigenvalues ---    0.02055   0.02084   0.02103   0.02134   0.02142
     Eigenvalues ---    0.02167   0.02190   0.02278   0.15822   0.15999
     Eigenvalues ---    0.15999   0.16000   0.16000   0.16000   0.16015
     Eigenvalues ---    0.20574   0.22047   0.22773   0.24381   0.24945
     Eigenvalues ---    0.34216   0.34557   0.34804   0.34846   0.35808
     Eigenvalues ---    0.35845   0.36336   0.37959   0.39042   0.42091
     Eigenvalues ---    0.43873   0.45852   0.46392   0.46659   0.46870
     Eigenvalues ---    0.50120   0.53536
 RFO step:  Lambda=-8.24096391D-04 EMin= 1.79422426D-02
 Quartic linear search produced a step of  0.13764.
 Iteration  1 RMS(Cart)=  0.01211486 RMS(Int)=  0.00013137
 Iteration  2 RMS(Cart)=  0.00013717 RMS(Int)=  0.00007491
 Iteration  3 RMS(Cart)=  0.00000001 RMS(Int)=  0.00007491
 Variable       Old X    -DE/DX   Delta X   Delta X   Delta X     New X
                                 (Linear)    (Quad)   (Total)
    R1        2.66383  -0.00973   0.00085  -0.02496  -0.02415   2.63968
    R2        2.69453   0.00406   0.00984   0.00639   0.01621   2.71074
    R3        2.05081   0.00046  -0.00240   0.00233  -0.00007   2.05074
    R4        2.68604   0.00539   0.00875   0.00989   0.01862   2.70466
    R5        2.04943  -0.00079  -0.00135  -0.00211  -0.00345   2.04598
    R6        2.66319  -0.00289   0.00242  -0.00805  -0.00561   2.65758
    R7        2.05132  -0.00031  -0.00110  -0.00064  -0.00174   2.04957
    R8        2.71445  -0.00204   0.00340  -0.00782  -0.00442   2.71004
    R9        2.58193  -0.00531  -0.00333  -0.01171  -0.01504   2.56688
   R10        2.66072  -0.00169   0.00068  -0.00453  -0.00384   2.65687
   R11        2.72145  -0.00294   0.00082  -0.00847  -0.00767   2.71378
   R12        2.05154  -0.00066  -0.00122  -0.00172  -0.00294   2.04859
   R13        2.64422   0.00081   0.00409   0.00101   0.00514   2.64936
   R14        1.90823   0.00128   0.00061   0.00292   0.00353   1.91177
   R15        2.59915   0.00271   0.00155   0.00642   0.00799   2.60714
   R16        2.04285   0.00029  -0.00006   0.00094   0.00088   2.04374
   R17        2.04007  -0.00099  -0.00036  -0.00299  -0.00335   2.03671
    A1        2.13942   0.00143   0.00402   0.00620   0.01005   2.14947
    A2        2.06887   0.00030  -0.00160   0.00395   0.00242   2.07128
    A3        2.07482  -0.00173  -0.00243  -0.01009  -0.01245   2.06237
    A4        2.09372  -0.00010  -0.00339   0.00076  -0.00278   2.09093
    A5        2.08990   0.00026   0.00142   0.00124   0.00271   2.09261
    A6        2.09950  -0.00016   0.00200  -0.00192   0.00013   2.09963
    A7        2.04167  -0.00092  -0.00108  -0.00454  -0.00572   2.03594
    A8        2.12146   0.00055   0.00051   0.00291   0.00344   2.12489
    A9        2.12006   0.00037   0.00058   0.00165   0.00225   2.12231
   A10        2.16153   0.00061   0.00377   0.00253   0.00630   2.16783
   A11        2.27642  -0.00304  -0.00023  -0.01210  -0.01230   2.26412
   A12        1.84521   0.00243  -0.00354   0.00961   0.00603   1.85124
   A13        2.06318   0.00052  -0.00086   0.00305   0.00218   2.06536
   A14        1.87127  -0.00098   0.00092  -0.00604  -0.00517   1.86609
   A15        2.34873   0.00046  -0.00005   0.00298   0.00298   2.35172
   A16        2.06613  -0.00152  -0.00212  -0.00714  -0.00938   2.05675
   A17        2.11160  -0.00080   0.00120  -0.00751  -0.00628   2.10532
   A18        2.10544   0.00233   0.00094   0.01469   0.01566   2.12111
   A19        1.95218   0.00012   0.00606  -0.00183   0.00425   1.95643
   A20        2.16469   0.00011  -0.00334   0.00218  -0.00117   2.16352
   A21        2.16632  -0.00022  -0.00272  -0.00035  -0.00308   2.16324
   A22        1.88467   0.00073   0.00200   0.00532   0.00730   1.89197
   A23        2.20884  -0.00078  -0.00069  -0.00567  -0.00636   2.20248
   A24        2.18967   0.00005  -0.00130   0.00038  -0.00093   2.18874
   A25        1.87144  -0.00230  -0.00543  -0.00702  -0.01240   1.85904
   A26        2.12067  -0.00003   0.00290  -0.00489  -0.00201   2.11866
   A27        2.29107   0.00233   0.00253   0.01191   0.01441   2.30548
    D1        0.03785  -0.00057  -0.00648  -0.02747  -0.03400   0.00386
    D2       -3.11669  -0.00043  -0.00490  -0.02081  -0.02578   3.14071
    D3       -3.08988  -0.00065  -0.00348  -0.03239  -0.03580  -3.12568
    D4        0.03877  -0.00051  -0.00189  -0.02573  -0.02759   0.01117
    D5       -0.04410   0.00051   0.00617   0.02426   0.03052  -0.01358
    D6        3.10278   0.00031   0.00420   0.01568   0.02012   3.12290
    D7        3.08358   0.00060   0.00315   0.02931   0.03243   3.11602
    D8       -0.05272   0.00041   0.00117   0.02073   0.02203  -0.03069
    D9       -0.01199   0.00030   0.00314   0.01417   0.01720   0.00520
   D10        3.13163   0.00008   0.00152   0.00392   0.00541   3.13704
   D11       -3.14056   0.00015   0.00155   0.00745   0.00893  -3.13163
   D12        0.00305  -0.00007  -0.00007  -0.00280  -0.00286   0.00020
   D13       -0.00617  -0.00000   0.00027   0.00118   0.00148  -0.00468
   D14       -3.13865  -0.00016   0.00005  -0.00637  -0.00619   3.13834
   D15        3.13340   0.00022   0.00188   0.01142   0.01325  -3.13653
   D16        0.00092   0.00007   0.00167   0.00387   0.00557   0.00650
   D17       -0.00051  -0.00008  -0.00043  -0.00413  -0.00450  -0.00500
   D18       -3.13891  -0.00004  -0.00150  -0.00083  -0.00226  -3.14116
   D19        3.13388   0.00001  -0.00025   0.00175   0.00156   3.13544
   D20       -0.00452   0.00006  -0.00132   0.00504   0.00380  -0.00072
   D21        3.13619   0.00012   0.00070   0.00497   0.00552  -3.14147
   D22       -0.00545   0.00010   0.00049   0.00448   0.00488  -0.00057
   D23        0.00246  -0.00001   0.00048  -0.00153  -0.00110   0.00135
   D24       -3.13918  -0.00003   0.00027  -0.00202  -0.00175  -3.14093
   D25        0.02469  -0.00023  -0.00289  -0.00840  -0.01106   0.01363
   D26       -3.12217  -0.00005  -0.00092   0.00009  -0.00062  -3.12279
   D27       -3.12118  -0.00029  -0.00145  -0.01283  -0.01410  -3.13528
   D28        0.01514  -0.00011   0.00053  -0.00435  -0.00366   0.01148
   D29        0.00505  -0.00009   0.00170  -0.00685  -0.00521  -0.00016
   D30       -3.14126   0.00002   0.00136   0.00000   0.00133  -3.13992
   D31       -3.13259  -0.00004   0.00037  -0.00277  -0.00242  -3.13501
   D32        0.00428   0.00007   0.00004   0.00408   0.00412   0.00840
   D33        0.00068  -0.00005   0.00060  -0.00275  -0.00215  -0.00147
   D34       -3.14086  -0.00005  -0.00043  -0.00202  -0.00242   3.13991
   D35       -3.14086  -0.00002   0.00081  -0.00226  -0.00151   3.14082
   D36        0.00078  -0.00002  -0.00022  -0.00153  -0.00178  -0.00100
   D37       -0.00355   0.00009  -0.00142   0.00585   0.00448   0.00094
   D38        3.13799   0.00009  -0.00026   0.00502   0.00480  -3.14040
   D39       -3.14049  -0.00002  -0.00109  -0.00088  -0.00197   3.14072
   D40        0.00104  -0.00002   0.00008  -0.00171  -0.00166  -0.00062
         Item               Value     Threshold  Converged?
 Maximum Force            0.009731     0.000450     NO 
 RMS     Force            0.001727     0.000300     NO 
 Maximum Displacement     0.065152     0.001800     NO 
 RMS     Displacement     0.012118     0.001200     NO 
 Predicted change in Energy=-4.746469D-04
 GradGradGradGradGradGradGradGradGradGradGradGradGradGradGradGradGradGrad

                          Input orientation:                          
 ---------------------------------------------------------------------
 Center     Atomic      Atomic             Coordinates (Angstroms)
 Number     Number       Type             X           Y           Z
 ---------------------------------------------------------------------
      1          6           0       -2.169451    0.667352    0.003850
      2          6           0       -2.170365   -0.729503    0.001021
      3          6           0       -0.928878   -1.441629   -0.006126
      4          6           0        0.243716   -0.665238   -0.003396
      5          6           0        0.261186    0.768740    0.000397
      6          6           0       -0.968064    1.451113   -0.004710
      7          7           0        1.544308   -1.057074   -0.005170
      8          6           0        1.640085    1.169902    0.001665
      9          6           0        2.423965    0.034591   -0.001015
     10          1           0        1.843366   -2.023519   -0.008460
     11          1           0        2.009469    2.186356    0.005865
     12          1           0        3.492597   -0.105550   -0.000204
     13          1           0       -3.109272   -1.268575    0.008686
     14          1           0       -0.892738   -2.525612   -0.004288
[...]
 ! D9    D(1,2,3,4)              0.0954         -DE/DX =    0.0                 !
 ! D10   D(1,2,3,14)          -179.9714         -DE/DX =    0.0                 !
 ! D11   D(13,2,3,4)          -179.9237         -DE/DX =    0.0                 !
 ! D12   D(13,2,3,14)            0.0095         -DE/DX =    0.0                 !
 ! D13   D(2,3,4,5)             -0.1003         -DE/DX =    0.0                 !
 ! D14   D(2,3,4,7)           -179.9416         -DE/DX =    0.0                 !
 ! D15   D(14,3,4,5)           179.9678         -DE/DX =    0.0                 !
 ! D16   D(14,3,4,7)             0.1265         -DE/DX =    0.0                 !
 ! D17   D(3,4,5,6)              0.0482         -DE/DX =    0.0                 !
 ! D18   D(3,4,5,8)           -179.8458         -DE/DX =    0.0                 !
 ! D19   D(7,4,5,6)            179.9197         -DE/DX =    0.0                 !
 ! D20   D(7,4,5,8)              0.0256         -DE/DX =    0.0                 !
 ! D21   D(3,4,7,9)            179.8255         -DE/DX =    0.0                 !
 ! D22   D(3,4,7,10)            -0.2294         -DE/DX =    0.0                 !
 ! D23   D(5,4,7,9)             -0.0375         -DE/DX =    0.0                 !
 ! D24   D(5,4,7,10)           179.9077         -DE/DX =    0.0                 !
 ! D25   D(4,5,6,1)              0.0152         -DE/DX =    0.0                 !
 ! D26   D(4,5,6,16)           179.9898         -DE/DX =    0.0                 !
 ! D27   D(8,5,6,1)            179.8762         -DE/DX =    0.0                 !
 ! D28   D(8,5,6,16)            -0.1493         -DE/DX =    0.0                 !
 ! D29   D(4,5,8,9)             -0.0065         -DE/DX =    0.0                 !
 ! D30   D(4,5,8,11)           179.9492         -DE/DX =    0.0                 !
 ! D31   D(6,5,8,9)           -179.8803         -DE/DX =    0.0                 !
 ! D32   D(6,5,8,11)             0.0755         -DE/DX =    0.0                 !
 ! D33   D(4,7,9,8)              0.0331         -DE/DX =    0.0                 !
 ! D34   D(4,7,9,12)           179.8384         -DE/DX =    0.0                 !
 ! D35   D(10,7,9,8)          -179.9116         -DE/DX =    0.0                 !
 ! D36   D(10,7,9,12)           -0.1063         -DE/DX =    0.0                 !
 ! D37   D(5,8,9,7)             -0.016          -DE/DX =    0.0                 !
 ! D38   D(5,8,9,12)          -179.7993         -DE/DX =    0.0                 !
 ! D39   D(11,8,9,7)          -179.9733         -DE/DX =    0.0                 !
 ! D40   D(11,8,9,12)            0.2434         -DE/DX =    0.0                 !
 --------------------------------------------------------------------------------
 GradGradGradGradGradGradGradGradGradGradGradGradGradGradGradGradGradGrad

                          Input orientation:                          
 ---------------------------------------------------------------------
 Center     Atomic      Atomic             Coordinates (Angstroms)
 Number     Number       Type             X           Y           Z
 ---------------------------------------------------------------------
      1          6           0       -2.180887    0.684673    0.002943
      2          6           0       -2.152414   -0.693526    0.001942
      3          6           0       -0.905099   -1.437361   -0.000732
      4          6           0        0.245117   -0.659962   -0.000093
      5          6           0        0.248301    0.749906    0.000854
      6          6           0       -0.991063    1.462645    0.002250
      7          7           0        1.587587   -1.065623   -0.003242
      8          6           0        1.595210    1.158383   -0.002356
      9          6           0        2.418301   -0.008851   -0.005124
     10          1           0        1.886204   -2.031838   -0.003183
     11          1           0        1.972273    2.172349   -0.003408
     12          1           0        3.492487   -0.114301   -0.005067
     13          1           0       -3.084110   -1.250826    0.002851
     14          1           0       -0.889805   -2.520931   -0.001967
     15          1           0       -3.140358    1.193123    0.004157
     16          1           0       -1.018093    2.546220    0.003165
 ---------------------------------------------------------------------
                    Distance matrix (angstroms):
                    1          2          3          4          5
     1  C    0.000000
     2  C    1.378494   0.000000
     3  C    2.476020   1.452271   0.000000
     4  C    2.773724   2.397766   1.388288   0.000000
     5  C    2.430065   2.801237   2.472745   1.409872   0.000000
     6  C    1.421592   2.449043   2.901281   2.456340   1.429693
     7  N    4.155113   3.758468   2.520253   1.402425   2.256069
     8  C    3.805699   4.180224   3.604086   2.264760   1.407490
     9  C    4.651190   4.621716   3.617408   2.268634   2.298836
    10  H    4.890879   4.254590   2.853906   2.138976   3.228133
    11  H    4.411571   5.022580   4.616197   3.317388   2.235048
    12  H    5.729363   5.674544   4.592305   3.292899   3.357325
    13  H    2.135876   1.085652   2.186984   3.381254   3.886887
    14  H    3.455838   2.221172   1.083679   2.179737   3.463187
    15  H    1.085867   2.129668   3.451935   3.859454   3.417523
    16  H    2.194868   3.432585   3.985185   3.446057   2.197840
                    6          7          8          9         10
     6  C    0.000000
     7  N    3.611315   0.000000
     8  C    2.604113   2.224019   0.000000
     9  C    3.713369   1.344194   1.428257   0.000000
    10  H    4.526600   1.011308   3.203465   2.091796   0.000000
    11  H    3.047141   3.260742   1.081806   2.226336   4.205068
    12  H    4.752792   2.129240   2.284598   1.079350   2.501419
    13  H    3.426918   4.675370   5.263112   5.640841   5.031305
    14  H    3.984865   2.873220   4.439893   4.153808   2.818765
    15  H    2.166130   5.239795   4.735701   5.687136   5.972165
    16  H    1.083912   4.453652   2.958966   4.282202   5.421586
                   11         12         13         14         15
    11  H    0.000000
    12  H    2.745873   0.000000
    13  H    6.106158   6.674082   0.000000
    14  H    5.497123   4.999636   2.535383   0.000000
    15  H    5.205568   6.760479   2.444596   4.342721   0.000000
    16  H    3.013654   5.236771   4.322728   5.068777   2.516919
                   16
    16  H    0.000000
 Stoichiometry    C8H7N
 Framework group  C1[X(C8H7N)]
 Deg. of freedom    42
 Full point group                 C1      NOp   1
 Largest Abelian subgroup         C1      NOp   1
 Largest concise Abelian subgroup C1      NOp   1
                         Standard orientation:                         
 ---------------------------------------------------------------------
 Center     Atomic      Atomic             Coordinates (Angstroms)
 Number     Number       Type             X           Y           Z
 ---------------------------------------------------------------------
      1          6           0       -2.192991    0.643474   -0.000253
      2          6           0       -2.139270   -0.733973   -0.000258
      3          6           0       -0.878533   -1.454829   -0.000600
      4          6           0        0.257244   -0.656486    0.001175
      5          6           0        0.234594    0.753204    0.001149
      6          6           0       -1.017621    1.443116    0.000247
      7          7           0        1.606924   -1.037482    0.000261
      8          6           0        1.573797    1.186290   -0.000384
      9          6           0        2.418138    0.034333   -0.001144
     10          1           0        1.923193   -1.998063    0.001424
     11          1           0        1.932219    2.206994   -0.001590
     12          1           0        3.494075   -0.051417    0.000550
     13          1           0       -3.060599   -1.308249   -0.000319
     14          1           0       -0.843386   -2.537938   -0.001062
     15          1           0       -3.161618    1.134258   -0.000788
     16          1           0       -1.064501    2.526014    0.000370
 ---------------------------------------------------------------------
 Rotational constants (GHZ):           3.8680434           1.6147140           1.1391687

 **********************************************************************

            Population analysis using the CI Density.

 **********************************************************************

 Orbital symmetries:
       Occupied  (A) (A) (A) (A) (A) (A) (A) (A) (A) (A) (A) (A)
                 (A) (A) (A) (A) (A) (A) (A) (A) (A) (A) (A) (A)
                 (A) (A) (A) (A) (A) (A) (A)
       Virtual   (A) (A) (A) (A) (A) (A) (A) (A) (A) (A) (A) (A)
                 (A) (A) (A) (A) (A) (A) (A) (A) (A) (A) (A) (A)
                 (A) (A) (A) (A) (A) (A) (A) (A) (A) (A) (A) (A)
                 (A) (A) (A) (A) (A) (A) (A) (A) (A) (A) (A) (A)
                 (A) (A) (A) (A) (A) (A) (A) (A) (A) (A) (A) (A)
                 (A) (A) (A) (A) (A) (A) (A) (A) (A) (A) (A) (A)
                 (A) (A) (A) (A) (A) (A) (A) (A) (A) (A) (A) (A)
                 (A) (A) (A) (A) (A) (A) (A) (A) (A) (A) (A) (A)
                 (A) (A) (A) (A) (A) (A) (A) (A) (A) (A) (A) (A)
                 (A) (A) (A) (A) (A) (A) (A) (A) (A) (A) (A) (A)
                 (A) (A) (A) (A) (A) (A) (A) (A) (A) (A) (A) (A)
                 (A) (A) (A) (A) (A) (A) (A) (A) (A) (A) (A) (A)
                 (A) (A) (A) (A) (A) (A) (A) (A) (A) (A)
 The electronic state is 1-A.
 Alpha  occ. eigenvalues --  -14.46148 -10.30485 -10.29783 -10.27399 -10.26748
 Alpha  occ. eigenvalues --  -10.26482 -10.26302 -10.25987 -10.25163  -1.07145
 Alpha  occ. eigenvalues --   -0.92234  -0.86096  -0.82342  -0.78857  -0.70654
 Alpha  occ. eigenvalues --   -0.67330  -0.65352  -0.61451  -0.55577  -0.54410
 Alpha  occ. eigenvalues --   -0.50851  -0.50161  -0.49720  -0.47161  -0.46070
 Alpha  occ. eigenvalues --   -0.41405  -0.41072  -0.40241  -0.33617  -0.28750
 Alpha  occ. eigenvalues --   -0.24616
 Alpha virt. eigenvalues --    0.01255   0.02323   0.04254   0.04804   0.06153
 Alpha virt. eigenvalues --    0.06310   0.06357   0.08024   0.08516   0.08998
 Alpha virt. eigenvalues --    0.09011   0.09354   0.11338   0.11780   0.12995
 Alpha virt. eigenvalues --    0.13092   0.14022   0.15515   0.16507   0.16665
 Alpha virt. eigenvalues --    0.18044   0.18343   0.19300   0.19837   0.20441
 Alpha virt. eigenvalues --    0.21395   0.21903   0.21960   0.22789   0.23442
 Alpha virt. eigenvalues --    0.23956   0.24683   0.24974   0.25662   0.26491
 Alpha virt. eigenvalues --    0.26786   0.26869   0.27788   0.28786   0.29652
 Alpha virt. eigenvalues --    0.30495   0.30870   0.32191   0.33492   0.34237
 Alpha virt. eigenvalues --    0.35478   0.36038   0.37667   0.39607   0.40534
 Alpha virt. eigenvalues --    0.42464   0.44157   0.48201   0.50645   0.56776
 Alpha virt. eigenvalues --    0.63627   0.66642   0.72509   0.72856   0.75353
 Alpha virt. eigenvalues --    0.77239   0.77864   0.78483   0.78937   0.79436
 Alpha virt. eigenvalues --    0.81161   0.81873   0.83139   0.84541   0.84856
 Alpha virt. eigenvalues --    0.86802   0.90935   0.94338   0.94935   0.96242
 Alpha virt. eigenvalues --    0.99787   1.00312   1.01135   1.01796   1.04196
 Alpha virt. eigenvalues --    1.05651   1.08587   1.10438   1.11665   1.14765
 Alpha virt. eigenvalues --    1.17214   1.18539   1.23256   1.23675   1.27083
 Alpha virt. eigenvalues --    1.28214   1.30761   1.31143   1.37954   1.39400
 Alpha virt. eigenvalues --    1.42051   1.42327   1.47073   1.47927   1.50143
 Alpha virt. eigenvalues --    1.54398   1.54754   1.56659   1.57512   1.60362
 Alpha virt. eigenvalues --    1.64742   1.69956   1.85612   1.88729   1.95321
 Alpha virt. eigenvalues --    1.97395   1.97450   2.00842   2.06378   2.07063
 Alpha virt. eigenvalues --    2.08002   2.10494   2.13897   2.19682   2.23174
 Alpha virt. eigenvalues --    2.23334   2.26842   2.29566   2.32051   2.34838
 Alpha virt. eigenvalues --    2.35312   2.38220   2.44505   2.47783   2.52938
 Alpha virt. eigenvalues --    2.59670   2.63169   2.68640   2.72295   2.72695
 Alpha virt. eigenvalues --    2.73961   2.79990   2.86801   2.90247   2.91861
 Alpha virt. eigenvalues --    3.02026   3.04894   3.16087   3.30863   3.48018
 Alpha virt. eigenvalues --    4.21659   4.30865   4.34349   4.37775   4.42273
 Alpha virt. eigenvalues --    4.46786   4.54123   4.58172   4.84246
          Condensed to atoms (all electrons):
               1          2          3          4          5          6
     1  C    5.446603   0.514957   0.279353  -0.397623  -0.189736  -0.075067
     2  C    0.514957   5.770587  -0.435829   0.324123  -0.369385   0.521309
     3  C    0.279353  -0.435829  14.042811  -2.358405  -4.328478  -2.700310
     4  C   -0.397623   0.324123  -2.358405  13.424881  -3.478436  -1.534953
     5  C   -0.189736  -0.369385  -4.328478  -3.478436  15.759797   0.088260
     6  C   -0.075067   0.521309  -2.700310  -1.534953   0.088260  12.691840
     7  N   -0.011944   0.009499  -0.477964  -0.272222   0.783523   0.076898
     8  C    0.194470  -0.331684   3.360116   1.687281  -5.659030  -3.469072
     9  C   -0.081609   0.038356  -1.114432  -0.636573   1.925798   0.914351
    10  H   -0.004095  -0.004805  -0.143147  -0.082886   0.193501   0.027374
    11  H    0.000515   0.000388   0.009425   0.071728  -0.092441  -0.028828
    12  H    0.000699   0.000071   0.020259   0.068194  -0.048278  -0.017210
    13  H   -0.016296   0.319244  -0.046201   0.025184  -0.003547   0.025475
    14  H    0.024992   0.001401   0.313407  -0.040738   0.020081  -0.020821
    15  H    0.318847  -0.016083   0.024516  -0.018307   0.034003  -0.040993
    16  H   -0.020996   0.023827  -0.045041   0.049171   0.039998   0.310815
               7          8          9         10         11         12
     1  C   -0.011944   0.194470  -0.081609  -0.004095   0.000515   0.000699
     2  C    0.009499  -0.331684   0.038356  -0.004805   0.000388   0.000071
     3  C   -0.477964   3.360116  -1.114432  -0.143147   0.009425   0.020259
     4  C   -0.272222   1.687281  -0.636573  -0.082886   0.071728   0.068194
     5  C    0.783523  -5.659030   1.925798   0.193501  -0.092441  -0.048278
     6  C    0.076898  -3.469072   0.914351   0.027374  -0.028828  -0.017210
     7  N    7.179154  -0.590079   0.508048   0.273219   0.007588  -0.051209
     8  C   -0.590079  12.547021  -2.159598  -0.012433   0.401422  -0.025814
     9  C    0.508048  -2.159598   6.601260  -0.017429  -0.070097   0.368419
    10  H    0.273219  -0.012433  -0.017429   0.332345  -0.000079  -0.002429
    11  H    0.007588   0.401422  -0.070097  -0.000079   0.480165  -0.000561
    12  H   -0.051209  -0.025814   0.368419  -0.002429  -0.000561   0.463277
    13  H   -0.000389  -0.001832   0.001432  -0.000001   0.000000  -0.000000
    14  H   -0.003840  -0.008538   0.008650   0.001953   0.000002   0.000002
    15  H    0.000213   0.000976   0.000119  -0.000000  -0.000002  -0.000000
    16  H   -0.000781  -0.067905   0.004658   0.000003   0.001450  -0.000001
              13         14         15         16
     1  C   -0.016296   0.024992   0.318847  -0.020996
     2  C    0.319244   0.001401  -0.016083   0.023827
     3  C   -0.046201   0.313407   0.024516  -0.045041
     4  C    0.025184  -0.040738  -0.018307   0.049171
     5  C   -0.003547   0.020081   0.034003   0.039998
     6  C    0.025475  -0.020821  -0.040993   0.310815
     7  N   -0.000389  -0.003840   0.000213  -0.000781
     8  C   -0.001832  -0.008538   0.000976  -0.067905
     9  C    0.001432   0.008650   0.000119   0.004658
    10  H   -0.000001   0.001953  -0.000000   0.000003
    11  H    0.000000   0.000002  -0.000002   0.001450
    12  H   -0.000000   0.000002  -0.000000  -0.000001
    13  H    0.525406  -0.003342  -0.004865  -0.000136
    14  H   -0.003342   0.523366  -0.000126   0.000013
    15  H   -0.004865  -0.000126   0.528014  -0.003500
    16  H   -0.000136   0.000013  -0.003500   0.521209
 Mulliken charges:
               1
     1  C    0.016932
     2  C   -0.365977
     3  C   -0.400081
     4  C   -0.830422
     5  C    1.324370
     6  C   -0.769071
     7  N   -0.429715
     8  C    0.134699
     9  C   -0.291355
    10  H    0.438909
    11  H    0.219323
    12  H    0.224581
    13  H    0.179868
    14  H    0.183536
    15  H    0.177189
    16  H    0.187213
 Sum of Mulliken charges =  -0.00000
 Mulliken charges with hydrogens summed into heavy atoms:
               1
     1  C    0.194121
     2  C   -0.186109
     3  C   -0.216545
     4  C   -0.830422
     5  C    1.324370
     6  C   -0.581858
     7  N    0.009194
     8  C    0.354023
     9  C   -0.066774
 Electronic spatial extent (au):  <R**2>=           1022.3694
 Charge=             -0.0000 electrons
 Dipole moment (field-independent basis, Debye):
    X=              4.0989    Y=             -1.4034    Z=              0.0068  Tot=              4.3325
 Quadrupole moment (field-independent basis, Debye-Ang):
   XX=            -45.3632   YY=            -47.0196   ZZ=            -61.1556
   XY=             -2.3822   XZ=              0.0173   YZ=             -0.0071
 Traceless Quadrupole moment (field-independent basis, Debye-Ang):
   XX=              5.8163   YY=              4.1599   ZZ=             -9.9762
   XY=             -2.3822   XZ=              0.0173   YZ=             -0.0071
 Octapole moment (field-independent basis, Debye-Ang**2):
  XXX=             26.8201  YYY=             -9.7948  ZZZ=              0.0451  XYY=             15.1566
  XXY=             -7.3505  XXZ=              0.0361  XZZ=              4.6098  YZZ=             -1.6257
  YYZ=              0.0161  XYZ=             -0.0176
 Hexadecapole moment (field-independent basis, Debye-Ang**3):
 XXXX=           -858.4806 YYYY=           -405.7121 ZZZZ=            -91.5289 XXXY=            -18.7360
 XXXZ=              0.2097 YYYX=            -15.2793 YYYZ=             -0.0152 ZZZX=              0.0756
 ZZZY=             -0.0125 XXYY=           -201.4552 XXZZ=           -205.2267 YYZZ=           -107.3894
 XXYZ=             -0.0350 YYXZ=              0.0266 ZZXY=             -1.8088
 N-N= 3.984554987349D+02 E-N=-1.638743430527D+03  KE= 3.601211139381D+02
 Unable to Open any file for archive entry.
 1\1\GINC-EXP-5-27\FOpt\RCAM-B3LYP TD-FC\6-31+G(d)\C8H7N1\SCAPARAS\09-J
 un-2021\0\\# td= (nstates=6, root=1) CAM-B3LYP/6-31+G* Opt density=cur
 rent\\FuncsCAM-B3LYP2nd\\0,1\C,-2.1808871808,0.6846731454,0.0029431258
 \C,-2.1524136966,-0.6935264385,0.0019416613\C,-0.9050986962,-1.4373606
 706,-0.0007318922\C,0.2451165378,-0.6599621552,-0.0000927463\C,0.24830
 08127,0.7499059345,0.0008539244\C,-0.9910627205,1.4626450562,0.0022502
 261\N,1.5875865823,-1.0656225616,-0.0032415417\C,1.595210437,1.1583828
 526,-0.0023562119\C,2.4183007276,-0.0088505511,-0.0051238745\H,1.88620
 35903,-2.0318381066,-0.0031831389\H,1.972272892,2.1723485293,-0.003408
 2823\H,3.4924868038,-0.1143006198,-0.0050669347\H,-3.0841097212,-1.250
 8257159,0.0028510659\H,-0.8898046388,-2.5209311823,-0.0019672969\H,-3.
 1403584755,1.1931227704,0.0041573948\H,-1.018093254,2.5462197134,0.003
 164521\\Version=AS64L-G16RevC.01\State=1-A\HF=-363.6134269\RMSD=5.291e
 -09\RMSF=2.479e-05\Dipole=1.6126153,-0.5521412,0.0026657\Quadrupole=4.
 3242421,3.0927827,-7.4170247,-1.7710746,0.0128517,-0.005291\PG=C01 [X(
 C8H7N1)]\\@
 The archive entry for this job was punched.


 IF YOU GET CONFUSED, LOGIC OUT YOUR DILEMMA

           --  PICKER X-RAY CORP.    DIGITAL PRINTER MANUAL CA. 1964
 Job cpu time:       0 days  7 hours  1 minutes 15.7 seconds.
 Elapsed time:       0 days  1 hours 46 minutes  2.9 seconds.
 File lengths (MBytes):  RWF=    238 Int=      0 D2E=      0 Chk=     11 Scr=      1
 Normal termination of Gaussian 16 at Wed Jun  9 12:53:39 2021.
