 Entering Gaussian System, Link 0=/cm/shared/apps/spack/cpu/opt/spack/linux-centos8-zen/gcc-8.3.1/gaussian-16.C.01-po5bqktfeugvmjyga3v7eigbecnokxng/g16/g16
 Initial command:
 /cm/shared/apps/spack/cpu/opt/spack/linux-centos8-zen/gcc-8.3.1/gaussian-16.C.01-po5bqktfeugvmjyga3v7eigbecnokxng/g16/l1.exe "/scratch/scaparas/job_3318302/Gau-49347.inp" -scrdir="/scratch/scaparas/job_3318302/"
 Entering Link 1 = /cm/shared/apps/spack/cpu/opt/spack/linux-centos8-zen/gcc-8.3.1/gaussian-16.C.01-po5bqktfeugvmjyga3v7eigbecnokxng/g16/l1.exe PID=     49351.
  
 Copyright (c) 1988-2019, Gaussian, Inc.  All Rights Reserved.
  
 This is part of the Gaussian(R) 16 program.  It is based on
 the Gaussian(R) 09 system (copyright 2009, Gaussian, Inc.),
 the Gaussian(R) 03 system (copyright 2003, Gaussian, Inc.),
 the Gaussian(R) 98 system (copyright 1998, Gaussian, Inc.),
 the Gaussian(R) 94 system (copyright 1995, Gaussian, Inc.),
 the Gaussian 92(TM) system (copyright 1992, Gaussian, Inc.),
 the Gaussian 90(TM) system (copyright 1990, Gaussian, Inc.),
 the Gaussian 88(TM) system (copyright 1988, Gaussian, Inc.),
 the Gaussian 86(TM) system (copyright 1986, Carnegie Mellon
 University), and the Gaussian 82(TM) system (copyright 1983,
 Carnegie Mellon University). Gaussian is a federally registered
 trademark of Gaussian, Inc.
  
 This software contains proprietary and confidential information,
 including trade secrets, belonging to Gaussian, Inc.
  
 This software is provided under written license and may be
 used, copied, transmitted, or stored only in accord with that
 written license.
  
 The following legend is applicable only to US Government
 contracts under FAR:
  
                    RESTRICTED RIGHTS LEGEND
  
 Use, reproduction and disclosure by the US Government is
 subject to restrictions as set forth in subparagraphs (a)
 and (c) of the Commercial Computer Software - Restricted
 Rights clause in FAR 52.227-19.
  
 Gaussian, Inc.
 340 Quinnipiac St., Bldg. 40, Wallingford CT 06492
  
  
 ---------------------------------------------------------------
 Warning -- This program may not be used in any manner that
 competes with the business of Gaussian, Inc. or will provide
 assistance to any competitor of Gaussian, Inc.  The licensee
 of this program is prohibited from giving any competitor of
 Gaussian, Inc. access to this program.  By using this program,
 the user acknowledges that Gaussian, Inc. is engaged in the
 business of creating and licensing software in the field of
 computational chemistry and represents and warrants to the
 licensee that it is not a competitor of Gaussian, Inc. and that
 it will not use this program in any manner prohibited above.
 ---------------------------------------------------------------
  

 Cite this work as:
 Gaussian 16, Revision C.01,
 M. J. Frisch, G. W. Trucks, H. B. Schlegel, G. E. Scuseria, 
 M. A. Robb, J. R. Cheeseman, G. Scalmani, V. Barone, 
 G. A. Petersson, H. Nakatsuji, X. Li, M. Caricato, A. V. Marenich, 
 J. Bloino, B. G. Janesko, R. Gomperts, B. Mennucci, H. P. Hratchian, 
 J. V. Ortiz, A. F. Izmaylov, J. L. Sonnenberg, D. Williams-Young, 
 F. Ding, F. Lipparini, F. Egidi, J. Goings, B. Peng, A. Petrone, 
 T. Henderson, D. Ranasinghe, V. G. Zakrzewski, J. Gao, N. Rega, 
 G. Zheng, W. Liang, M. Hada, M. Ehara, K. Toyota, R. Fukuda, 
 J. Hasegawa, M. Ishida, T. Nakajima, Y. Honda, O. Kitao, H. Nakai, 
 T. Vreven, K. Throssell, J. A. Montgomery, Jr., J. E. Peralta, 
 F. Ogliaro, M. J. Bearpark, J. J. Heyd, E. N. Brothers, K. N. Kudin, 
 V. N. Staroverov, T. A. Keith, R. Kobayashi, J. Normand, 
 K. Raghavachari, A. P. Rendell, J. C. Burant, S. S. Iyengar, 
 J. Tomasi, M. Cossi, J. M. Millam, M. Klene, C. Adamo, R. Cammi, 
 J. W. Ochterski, R. L. Martin, K. Morokuma, O. Farkas, 
 J. B. Foresman, and D. J. Fox, Gaussian, Inc., Wallingford CT, 2019.
 
 ******************************************
 Gaussian 16:  AS64L-G16RevC.01  3-Jul-2019
                 9-Jun-2021 
 ******************************************
 %NProcShared=4
 Will use up to    4 processors via shared memory.
 %Chk=FuncsWB97X.chk
 -----------------------------------------------------------
 # td= (nstates=6, root=2) WB97X/6-31+G* Opt density=current
 -----------------------------------------------------------
 1/18=20,19=15,26=3,38=1/1,3;
 2/9=110,12=2,17=6,18=5,40=1/2;
 3/5=1,6=6,7=11,11=9,25=1,30=1,71=1,74=-57/1,2,3,8;
 4//1;
 5/5=2,38=5/2;
 8/6=1,10=2,107=2,108=6/1;
 9/8=2,15=2,41=6,42=1,70=2/14;
 10/5=4,28=2/2;
 6/7=2,8=2,9=2,10=2,22=-1/1;
 7/12=6,13=5,14=2/1,2,3,16;
 1/18=20,19=15,26=3/3(2);
 2/9=110/2;
 99//99;
 2/9=110/2;
 3/5=1,6=6,7=11,11=9,25=1,30=1,71=1,74=-57/1,2,3,8;
 4/5=5,16=3,69=1/1;
 5/5=2,38=5/2;
 8/6=1,10=2,107=2,108=6/1;
 9/8=2,15=2,41=6,42=1,49=4,70=2/14;
 10/5=4,28=2/2;
 7/12=6,13=5,14=2/1,2,3,16;
 1/18=20,19=15,26=3/3(-8);
 2/9=110/2;
 6/7=2,8=2,9=2,10=2,22=-1/1;
 99/9=10/99;
 ----------
 FuncsWB97X
 ----------
 Symbolic Z-matrix:
 Charge =  0 Multiplicity = 1
 C                    -2.15886   0.68918   0.02974 
 C                    -2.1332   -0.71621  -0.0157 
 C                    -0.93572  -1.41751  -0.00819 
 C                     0.2487   -0.67115   0.00319 
 C                     0.25025   0.7522   -0.00266 
 C                    -0.98322   1.4256   -0.0173 
 N                     1.5657   -1.08029   0.00974 
 C                     1.62609   1.16684  -0.00626 
 C                     2.39038   0.03059   0.00688 
 H                     1.87967  -2.03756   0.01447 
 H                     1.9972    2.18233  -0.0192 
 H                     3.46481  -0.08787   0.00753 
 H                    -3.075    -1.264    -0.03434 
 H                    -0.91687  -2.50699  -0.02386 
 H                    -3.12254   1.20382   0.09559 
 H                    -1.01374   2.5151   -0.04664 
 

 GradGradGradGradGradGradGradGradGradGradGradGradGradGradGradGradGradGrad
 Berny optimization.
 Initialization pass.
                           ----------------------------
                           !    Initial Parameters    !
                           ! (Angstroms and Degrees)  !
 --------------------------                            --------------------------
 ! Name  Definition              Value          Derivative Info.                !
 --------------------------------------------------------------------------------
 ! R1    R(1,2)                  1.4064         estimate D2E/DX2                !
 ! R2    R(1,6)                  1.388          estimate D2E/DX2                !
 ! R3    R(1,15)                 1.0945         estimate D2E/DX2                !
 ! R4    R(2,3)                  1.3877         estimate D2E/DX2                !
 ! R5    R(2,13)                 1.0897         estimate D2E/DX2                !
 ! R6    R(3,4)                  1.4            estimate D2E/DX2                !
 ! R7    R(3,14)                 1.0898         estimate D2E/DX2                !
 ! R8    R(4,5)                  1.4234         estimate D2E/DX2                !
 ! R9    R(4,7)                  1.3791         estimate D2E/DX2                !
 ! R10   R(5,6)                  1.4054         estimate D2E/DX2                !
 ! R11   R(5,8)                  1.437          estimate D2E/DX2                !
 ! R12   R(6,16)                 1.0903         estimate D2E/DX2                !
 ! R13   R(7,9)                  1.3835         estimate D2E/DX2                !
 ! R14   R(7,10)                 1.0075         estimate D2E/DX2                !
 ! R15   R(8,9)                  1.3694         estimate D2E/DX2                !
 ! R16   R(8,11)                 1.0813         estimate D2E/DX2                !
 ! R17   R(9,12)                 1.0809         estimate D2E/DX2                !
 ! A1    A(2,1,6)              120.9061         estimate D2E/DX2                !
 ! A2    A(2,1,15)             119.2028         estimate D2E/DX2                !
 ! A3    A(6,1,15)             119.8895         estimate D2E/DX2                !
 ! A4    A(1,2,3)              121.3707         estimate D2E/DX2                !
 ! A5    A(1,2,13)             119.153          estimate D2E/DX2                !
 ! A6    A(3,2,13)             119.4616         estimate D2E/DX2                !
 ! A7    A(2,3,4)              117.4292         estimate D2E/DX2                !
 ! A8    A(2,3,14)             121.3371         estimate D2E/DX2                !
 ! A9    A(4,3,14)             121.2289         estimate D2E/DX2                !
 ! A10   A(3,4,5)              122.2756         estimate D2E/DX2                !
 ! A11   A(3,4,7)              130.5258         estimate D2E/DX2                !
 ! A12   A(5,4,7)              107.1964         estimate D2E/DX2                !
 ! A13   A(4,5,6)              118.5703         estimate D2E/DX2                !
 ! A14   A(4,5,8)              106.8342         estimate D2E/DX2                !
 ! A15   A(6,5,8)              134.5914         estimate D2E/DX2                !
 ! A16   A(1,6,5)              119.2617         estimate D2E/DX2                !
 ! A17   A(1,6,16)             120.4875         estimate D2E/DX2                !
 ! A18   A(5,6,16)             120.2412         estimate D2E/DX2                !
 ! A19   A(4,7,9)              109.3301         estimate D2E/DX2                !
 ! A20   A(4,7,10)             125.4173         estimate D2E/DX2                !
 ! A21   A(9,7,10)             125.2525         estimate D2E/DX2                !
 ! A22   A(5,8,9)              107.1528         estimate D2E/DX2                !
 ! A23   A(5,8,11)             126.8451         estimate D2E/DX2                !
 ! A24   A(9,8,11)             126.002          estimate D2E/DX2                !
 ! A25   A(7,9,8)              109.4848         estimate D2E/DX2                !
 ! A26   A(7,9,12)             120.2971         estimate D2E/DX2                !
 ! A27   A(8,9,12)             130.2163         estimate D2E/DX2                !
 ! D1    D(6,1,2,3)              4.8678         estimate D2E/DX2                !
 ! D2    D(6,1,2,13)          -176.5353         estimate D2E/DX2                !
 ! D3    D(15,1,2,3)          -175.5899         estimate D2E/DX2                !
 ! D4    D(15,1,2,13)            3.0069         estimate D2E/DX2                !
 ! D5    D(2,1,6,5)             -5.0972         estimate D2E/DX2                !
 ! D6    D(2,1,6,16)           176.0299         estimate D2E/DX2                !
 ! D7    D(15,1,6,5)           175.3637         estimate D2E/DX2                !
 ! D8    D(15,1,6,16)           -3.5093         estimate D2E/DX2                !
 ! D9    D(1,2,3,4)             -1.9941         estimate D2E/DX2                !
 ! D10   D(1,2,3,14)           178.7955         estimate D2E/DX2                !
 ! D11   D(13,2,3,4)           179.4132         estimate D2E/DX2                !
 ! D12   D(13,2,3,14)            0.2029         estimate D2E/DX2                !
 ! D13   D(2,3,4,5)             -0.4651         estimate D2E/DX2                !
 ! D14   D(2,3,4,7)           -179.8522         estimate D2E/DX2                !
 ! D15   D(14,3,4,5)           178.7462         estimate D2E/DX2                !
 ! D16   D(14,3,4,7)            -0.641          estimate D2E/DX2                !
 ! D17   D(3,4,5,6)              0.1482         estimate D2E/DX2                !
 ! D18   D(3,4,5,8)           -179.2217         estimate D2E/DX2                !
 ! D19   D(7,4,5,6)            179.6606         estimate D2E/DX2                !
 ! D20   D(7,4,5,8)              0.2907         estimate D2E/DX2                !
 ! D21   D(3,4,7,9)            179.3989         estimate D2E/DX2                !
 ! D22   D(3,4,7,10)            -0.5167         estimate D2E/DX2                !
 ! D23   D(5,4,7,9)             -0.0587         estimate D2E/DX2                !
 ! D24   D(5,4,7,10)          -179.9743         estimate D2E/DX2                !
 ! D25   D(4,5,6,1)              2.618          estimate D2E/DX2                !
 ! D26   D(4,5,6,16)          -178.5062         estimate D2E/DX2                !
 ! D27   D(8,5,6,1)           -178.2289         estimate D2E/DX2                !
 ! D28   D(8,5,6,16)             0.6469         estimate D2E/DX2                !
 ! D29   D(4,5,8,9)             -0.4171         estimate D2E/DX2                !
 ! D30   D(4,5,8,11)           179.4533         estimate D2E/DX2                !
 ! D31   D(6,5,8,9)           -179.64           estimate D2E/DX2                !
 ! D32   D(6,5,8,11)             0.2304         estimate D2E/DX2                !
 ! D33   D(4,7,9,8)             -0.2113         estimate D2E/DX2                !
 ! D34   D(4,7,9,12)          -179.7792         estimate D2E/DX2                !
 ! D35   D(10,7,9,8)           179.7044         estimate D2E/DX2                !
 ! D36   D(10,7,9,12)            0.1366         estimate D2E/DX2                !
 ! D37   D(5,8,9,7)              0.3888         estimate D2E/DX2                !
 ! D38   D(5,8,9,12)           179.9002         estimate D2E/DX2                !
 ! D39   D(11,8,9,7)          -179.483          estimate D2E/DX2                !
 ! D40   D(11,8,9,12)            0.0284         estimate D2E/DX2                !
 --------------------------------------------------------------------------------
 Trust Radius=3.00D-01 FncErr=1.00D-07 GrdErr=1.00D-06 EigMax=2.50D+02 EigMin=1.00D-04
 Number of steps in this run=     94 maximum allowed number of steps=    100.
 GradGradGradGradGradGradGradGradGradGradGradGradGradGradGradGradGradGrad

                          Input orientation:                          
 ---------------------------------------------------------------------
 Center     Atomic      Atomic             Coordinates (Angstroms)
 Number     Number       Type             X           Y           Z
 ---------------------------------------------------------------------
      1          6           0       -2.158860    0.689180    0.029740
      2          6           0       -2.133200   -0.716210   -0.015700
      3          6           0       -0.935720   -1.417510   -0.008190
      4          6           0        0.248700   -0.671150    0.003190
      5          6           0        0.250250    0.752200   -0.002660
      6          6           0       -0.983220    1.425600   -0.017300
      7          7           0        1.565700   -1.080290    0.009740
      8          6           0        1.626090    1.166840   -0.006260
      9          6           0        2.390380    0.030590    0.006880
     10          1           0        1.879670   -2.037560    0.014470
     11          1           0        1.997200    2.182330   -0.019200
     12          1           0        3.464810   -0.087870    0.007530
     13          1           0       -3.075000   -1.264000   -0.034340
     14          1           0       -0.916870   -2.506990   -0.023860
     15          1           0       -3.122540    1.203820    0.095590
     16          1           0       -1.013740    2.515100   -0.046640
 ---------------------------------------------------------------------
                    Distance matrix (angstroms):
                    1          2          3          4          5
     1  C    0.000000
     2  C    1.406359   0.000000
     3  C    2.436320   1.387745   0.000000
     4  C    2.765420   2.382401   1.400012   0.000000
     5  C    2.410152   2.799506   2.472690   1.423363   0.000000
     6  C    1.388041   2.431009   2.843521   2.431955   1.405393
     7  N    4.123563   3.716862   2.524112   1.379104   2.255789
     8  C    3.815141   4.204548   3.638920   2.296846   1.436967
     9  C    4.596721   4.584866   3.627694   2.253718   2.258532
    10  H    4.872891   4.224926   2.882949   2.127737   3.230799
    11  H    4.416416   5.045964   4.643381   3.346655   2.257738
    12  H    5.677144   5.633211   4.597048   3.268577   3.322532
    13  H    2.158317   1.089683   2.144940   3.376368   3.888876
    14  H    3.429419   2.164814   1.089756   2.174763   3.461927
    15  H    1.094472   2.162798   3.415307   3.858667   3.404310
    16  H    2.156645   3.419870   3.933572   3.427598   2.169659
                    6          7          8          9         10
     6  C    0.000000
     7  N    3.574522   0.000000
     8  C    2.622132   2.247998   0.000000
     9  C    3.650728   1.383532   1.369444   0.000000
    10  H    4.493398   1.007455   3.214485   2.130288   0.000000
    11  H    3.074987   3.291158   1.081254   2.187523   4.221661
    12  H    4.698529   2.142784   2.226068   1.080941   2.512769
    13  H    3.407313   4.644544   5.292449   5.616764   5.014931
    14  H    3.933155   2.863522   4.468107   4.168712   2.835925
    15  H    2.153746   5.215757   4.749866   5.637076   5.961143
    16  H    1.090322   4.425327   2.964479   4.214699   5.394652
                   11         12         13         14         15
    11  H    0.000000
    12  H    2.703406   0.000000
    13  H    6.132262   6.644859   0.000000
    14  H    5.521010   5.005222   2.490514   0.000000
    15  H    5.213674   6.713375   2.471695   4.318490   0.000000
    16  H    3.029397   5.180328   4.304711   5.023076   2.487312
                   16
    16  H    0.000000
 Stoichiometry    C8H7N
 Framework group  C1[X(C8H7N)]
 Deg. of freedom    42
 Full point group                 C1      NOp   1
 Largest Abelian subgroup         C1      NOp   1
 Largest concise Abelian subgroup C1      NOp   1
                         Standard orientation:                         
 ---------------------------------------------------------------------
 Center     Atomic      Atomic             Coordinates (Angstroms)
 Number     Number       Type             X           Y           Z
 ---------------------------------------------------------------------
      1          6           0       -2.158858    0.689183    0.029741
      2          6           0       -2.133200   -0.716207   -0.015699
      3          6           0       -0.935722   -1.417509   -0.008189
      4          6           0        0.248700   -0.671151    0.003191
      5          6           0        0.250252    0.752199   -0.002659
      6          6           0       -0.983217    1.425601   -0.017299
      7          7           0        1.565699   -1.080293    0.009741
      8          6           0        1.626093    1.166837   -0.006259
      9          6           0        2.390381    0.030585    0.006881
     10          1           0        1.879667   -2.037564    0.014471
     11          1           0        1.997205    2.182326   -0.019199
     12          1           0        3.464811   -0.087877    0.007531
     13          1           0       -3.075001   -1.263995   -0.034339
     14          1           0       -0.916873   -2.506989   -0.023859
     15          1           0       -3.122537    1.203825    0.095591
     16          1           0       -1.013735    2.515101   -0.046639
 ---------------------------------------------------------------------
 Rotational constants (GHZ):           3.8861076           1.6317910           1.1494058
 Standard basis: 6-31+G(d) (6D, 7F)
 There are   185 symmetry adapted cartesian basis functions of A   symmetry.
 There are   185 symmetry adapted basis functions of A   symmetry.
   185 basis functions,   316 primitive gaussians,   185 cartesian basis functions
    31 alpha electrons       31 beta electrons
       nuclear repulsion energy       400.0099183022 Hartrees.
 NAtoms=   16 NActive=   16 NUniq=   16 SFac= 1.00D+00 NAtFMM=   60 NAOKFM=F Big=F
 Integral buffers will be    131072 words long.
 Raffenetti 1 integral format.
 Two-electron integral symmetry is turned on.
 One-electron integrals computed using PRISM.
 NBasis=   185 RedAO= T EigKep=  1.37D-06  NBF=   185
 NBsUse=   185 1.00D-06 EigRej= -1.00D+00 NBFU=   185
 ExpMin= 4.38D-02 ExpMax= 4.17D+03 ExpMxC= 6.27D+02 IAcc=3 IRadAn=         5 AccDes= 0.00D+00
 Harris functional with IExCor= 4538 and IRadAn=       5 diagonalized for initial guess.
 HarFok:  IExCor= 4538 AccDes= 0.00D+00 IRadAn=         5 IDoV= 1 UseB2=F ITyADJ=14
 ICtDFT=  3500011 ScaDFX=  1.000000  1.000000  1.000000  1.000000
 FoFCou: FMM=F IPFlag=           0 FMFlag=      100000 FMFlg1=           0
         NFxFlg=           0 DoJE=T BraDBF=F KetDBF=T FulRan=T
         wScrn=  0.000000 ICntrl=       500 IOpCl=  0 I1Cent=   200000004 NGrid=           0
         NMat0=    1 NMatS0=      1 NMatT0=    0 NMatD0=    1 NMtDS0=    0 NMtDT0=    0
 Petite list used in FoFCou.
 Requested convergence on RMS density matrix=1.00D-08 within 128 cycles.
 Requested convergence on MAX density matrix=1.00D-06.
 Requested convergence on             energy=1.00D-06.
 No special actions if energy rises.
 SCF Done:  E(RwB97X) =  -363.728590267     A.U. after   16 cycles
            NFock= 16  Conv=0.33D-08     -V/T= 2.0099
 DoSCS=F DFT=T ScalE2(SS,OS)=  1.000000  1.000000
 ExpMin= 4.38D-02 ExpMax= 4.17D+03 ExpMxC= 6.27D+02 IAcc=3 IRadAn=         5 AccDes= 0.00D+00
 HarFok:  IExCor=  205 AccDes= 0.00D+00 IRadAn=         5 IDoV=-2 UseB2=F ITyADJ=14
 ICtDFT= 12500011 ScaDFX=  1.000000  1.000000  1.000000  1.000000
 Range of M.O.s used for correlation:    10   185
 NBasis=   185 NAE=    31 NBE=    31 NFC=     9 NFV=     0
 NROrb=    176 NOA=    22 NOB=    22 NVA=   154 NVB=   154

 **** Warning!!: The largest alpha MO coefficient is  0.19062184D+03

 Orbital symmetries:
       Occupied  (A) (A) (A) (A) (A) (A) (A) (A) (A) (A) (A) (A)
                 (A) (A) (A) (A) (A) (A) (A) (A) (A) (A) (A) (A)
                 (A) (A) (A) (A) (A) (A) (A)
       Virtual   (A) (A) (A) (A) (A) (A) (A) (A) (A) (A) (A) (A)
                 (A) (A) (A) (A) (A) (A) (A) (A) (A) (A) (A) (A)
                 (A) (A) (A) (A) (A) (A) (A) (A) (A) (A) (A) (A)
                 (A) (A) (A) (A) (A) (A) (A) (A) (A) (A) (A) (A)
                 (A) (A) (A) (A) (A) (A) (A) (A) (A) (A) (A) (A)
                 (A) (A) (A) (A) (A) (A) (A) (A) (A) (A) (A) (A)
                 (A) (A) (A) (A) (A) (A) (A) (A) (A) (A) (A) (A)
                 (A) (A) (A) (A) (A) (A) (A) (A) (A) (A) (A) (A)
                 (A) (A) (A) (A) (A) (A) (A) (A) (A) (A) (A) (A)
                 (A) (A) (A) (A) (A) (A) (A) (A) (A) (A) (A) (A)
                 (A) (A) (A) (A) (A) (A) (A) (A) (A) (A) (A) (A)
                 (A) (A) (A) (A) (A) (A) (A) (A) (A) (A) (A) (A)
                 (A) (A) (A) (A) (A) (A) (A) (A) (A) (A)
    24 initial guesses have been made.
 Convergence on wavefunction:    0.000001000000000
 Iteration     1 Dimension    24 NMult     0 NNew     24
 CISAX will form    24 AO SS matrices at one time.
 New state      1 was old state      3
 New state      2 was old state      1
 New state      3 was old state      2
 New state      4 was old state      5
 New state      5 was old state      6
 New state      6 was old state      4
 Iteration     2 Dimension    36 NMult    24 NNew     12
 New state      5 was old state      6
 New state      6 was old state      5
 Iteration     3 Dimension    48 NMult    36 NNew     12
 Iteration     4 Dimension    60 NMult    48 NNew     12
 New state      4 was old state      5
 New state      5 was old state      4
 Iteration     5 Dimension    72 NMult    60 NNew     12
 Iteration     6 Dimension    84 NMult    72 NNew     12
 Iteration     7 Dimension    96 NMult    84 NNew     12
 Iteration     8 Dimension   108 NMult    96 NNew     12
 Iteration     9 Dimension   120 NMult   108 NNew     12
 Iteration    10 Dimension   132 NMult   120 NNew     12
 Iteration    11 Dimension   140 NMult   132 NNew      8
 Iteration    12 Dimension   146 NMult   140 NNew      6
 Iteration    13 Dimension   150 NMult   146 NNew      4
 Iteration    14 Dimension   152 NMult   150 NNew      2
 ***********************************************************************
 Excited states from <AA,BB:AA,BB> singles matrix:
 ***********************************************************************
 
 Ground to excited state transition densities written to RWF  633
 Ground to excited state transition electric dipole moments (Au):
       state          X           Y           Z        Dip. S.      Osc.
         1         0.3724      0.3871     -0.0037      0.2885      0.0362
         2         0.7978     -0.6234      0.0071      1.0252      0.1315
         3        -0.1110     -0.0328     -0.1944      0.0512      0.0075
         4         1.9357      0.6621     -0.0289      4.1862      0.6609
         5        -0.1974     -0.2188     -0.2028      0.1279      0.0203
         6        -0.4919      0.0522      0.0440      0.2467      0.0403
 Ground to excited state transition velocity dipole moments (Au):
       state          X           Y           Z        Dip. S.      Osc.
         1        -0.0679     -0.0773      0.0009      0.0106      0.0375
         2        -0.1420      0.1280     -0.0018      0.0366      0.1267
         3         0.0239      0.0072      0.0342      0.0018      0.0054
         4        -0.4466     -0.1562      0.0065      0.2239      0.6302
         5         0.0461      0.0523      0.0485      0.0072      0.0202
         6         0.1174     -0.0135     -0.0116      0.0141      0.0383
 Ground to excited state transition magnetic dipole moments (Au):
       state          X           Y           Z
         1        -0.0094      0.0086      0.1428
         2        -0.0097     -0.0009     -0.0840
         3         0.1327     -0.1722     -0.0324
         4         0.1140     -0.0557      0.8205
         5         0.1502     -0.3431     -0.1704
         6         0.4701     -0.1290     -0.0786
 Ground to excited state transition velocity quadrupole moments (Au):
       state          XX          YY          ZZ          XY          XZ          YZ
         1         0.0208      0.0745     -0.0160      0.0164     -0.0071     -0.0082
         2        -0.2643      0.1832     -0.0159      0.0178      0.0023     -0.0115
         3         0.0010     -0.0075     -0.0078     -0.0166      0.1416      0.0627
         4        -0.0808      0.1327      0.0446      0.5494      0.0549      0.0856
         5         0.0651     -0.0261      0.0034     -0.1512      0.2532      0.0957
         6        -0.1084     -0.0004     -0.0096      0.0128      0.2172      0.4040
 <0|del|b> * <b|rxdel|0> + <0|del|b> * <b|delr+rdel|0>
 Rotatory Strengths (R) in cgs (10**-40 erg-esu-cm/Gauss)
       state          XX          YY          ZZ    R(velocity)    E-M Angle
         1        -2.0200      2.4601     -0.0620      0.1260       89.61
         2        -0.5446      5.8772     -0.1245      1.7360       84.97
         3        -6.3197      6.6222      2.3303      0.8776       84.94
         4        39.1893   -130.4482    -18.7519    -36.6703       95.38
         5       -69.5433     15.4692     -3.2486    -19.1075      123.48
         6         7.8477    149.3732      9.4673     55.5627        9.39
 1/2[<0|r|b>*<b|rxdel|0> + (<0|rxdel|b>*<b|r|0>)*]
 Rotatory Strengths (R) in cgs (10**-40 erg-esu-cm/Gauss)
       state          XX          YY          ZZ     R(length)
         1         2.4727     -2.3603      0.3700      0.1608
         2         5.4936     -0.4000      0.4242      1.8393
         3        10.4188     -3.9915     -4.4576      0.6566
         4      -156.0709     26.0862     16.7486    -37.7454
         5        20.9642    -53.0791    -24.4339    -18.8496
         6       163.5467      4.7601      2.4431     56.9166
  1/2[<0|del|b>*<b|r|0> + (<0|r|b>*<b|del|0>)*] (Au)
       state          X           Y           Z        Dip. S.   Osc.(frdel)
         1        -0.0253     -0.0299     -0.0000      0.0552      0.0368
         2        -0.1133     -0.0798     -0.0000      0.1931      0.1287
         3        -0.0027     -0.0002     -0.0067      0.0095      0.0064
         4        -0.8644     -0.1034     -0.0002      0.9680      0.6453
         5        -0.0091     -0.0114     -0.0098      0.0304      0.0203
         6        -0.0577     -0.0007     -0.0005      0.0590      0.0393

 Excitation energies and oscillator strengths:
 
 Excited State   1:      Singlet-A      5.1146 eV  242.41 nm  f=0.0362  <S**2>=0.000
      30 -> 32         0.57909
      31 -> 32        -0.12992
      31 -> 36        -0.33541
 
 Excited State   2:      Singlet-A      5.2344 eV  236.86 nm  f=0.1315  <S**2>=0.000
      30 -> 36         0.21180
      31 -> 32         0.64950
 This state for optimization and/or second-order correction.
 Total Energy, E(TD-HF/TD-DFT) =  -363.536228395    
 Copying the excited state density for this state as the 1-particle RhoCI density.
 
 Excited State   3:      Singlet-A      6.0055 eV  206.45 nm  f=0.0075  <S**2>=0.000
      29 -> 33         0.10612
      31 -> 33         0.64778
      31 -> 40         0.15307
 
 Excited State   4:      Singlet-A      6.4439 eV  192.41 nm  f=0.6609  <S**2>=0.000
      30 -> 32         0.33910
      31 -> 34         0.14134
      31 -> 36         0.55806
 
 Excited State   5:      Singlet-A      6.4757 eV  191.46 nm  f=0.0203  <S**2>=0.000
      30 -> 33         0.57192
      30 -> 34        -0.13070
      30 -> 40         0.16985
      31 -> 34         0.20819
      31 -> 35        -0.12478
      31 -> 36        -0.10301
 
 Excited State   6:      Singlet-A      6.6767 eV  185.70 nm  f=0.0403  <S**2>=0.000
      29 -> 33         0.12062
      30 -> 33        -0.17289
      30 -> 36         0.11656
      31 -> 34         0.56965
      31 -> 35         0.10665
      31 -> 36        -0.11393
      31 -> 40        -0.12618
      31 -> 43         0.11980
 SavETr:  write IOETrn=   770 NScale= 10 NData=  16 NLR=1 NState=    6 LETran=     118.
          IDoAtm=1111111111111111
          Differentiating once with respect to electric field.
                with respect to dipole field.
          Differentiating once with respect to nuclear coordinates.
          There are     1 degrees of freedom in the 1st order CPHF.  IDoFFX=0 NUNeed=     1.
 LinEq1:  Iter=  0 NonCon=     1 RMS=4.76D-03 Max=8.63D-02 NDo=     1
 AX will form     1 AO Fock derivatives at one time.
 LinEq1:  Iter=  1 NonCon=     1 RMS=1.91D-03 Max=5.76D-02 NDo=     1
 LinEq1:  Iter=  2 NonCon=     1 RMS=7.94D-04 Max=1.84D-02 NDo=     1
 LinEq1:  Iter=  3 NonCon=     1 RMS=4.48D-04 Max=1.40D-02 NDo=     1
 LinEq1:  Iter=  4 NonCon=     1 RMS=1.72D-04 Max=4.52D-03 NDo=     1
 LinEq1:  Iter=  5 NonCon=     1 RMS=7.88D-05 Max=3.03D-03 NDo=     1
 LinEq1:  Iter=  6 NonCon=     1 RMS=3.41D-05 Max=9.70D-04 NDo=     1
 LinEq1:  Iter=  7 NonCon=     1 RMS=1.69D-05 Max=3.11D-04 NDo=     1
 LinEq1:  Iter=  8 NonCon=     1 RMS=6.92D-06 Max=1.64D-04 NDo=     1
 LinEq1:  Iter=  9 NonCon=     1 RMS=2.20D-06 Max=3.15D-05 NDo=     1
 LinEq1:  Iter= 10 NonCon=     1 RMS=1.07D-06 Max=2.80D-05 NDo=     1
 LinEq1:  Iter= 11 NonCon=     1 RMS=3.68D-07 Max=8.95D-06 NDo=     1
 LinEq1:  Iter= 12 NonCon=     1 RMS=1.84D-07 Max=4.14D-06 NDo=     1
 LinEq1:  Iter= 13 NonCon=     1 RMS=6.40D-08 Max=1.35D-06 NDo=     1
 LinEq1:  Iter= 14 NonCon=     1 RMS=2.11D-08 Max=4.02D-07 NDo=     1
 LinEq1:  Iter= 15 NonCon=     1 RMS=9.55D-09 Max=1.51D-07 NDo=     1
 LinEq1:  Iter= 16 NonCon=     1 RMS=2.12D-09 Max=3.00D-08 NDo=     1
 LinEq1:  Iter= 17 NonCon=     1 RMS=8.73D-10 Max=1.57D-08 NDo=     1
 LinEq1:  Iter= 18 NonCon=     1 RMS=2.76D-10 Max=3.91D-09 NDo=     1
 LinEq1:  Iter= 19 NonCon=     0 RMS=6.82D-11 Max=8.70D-10 NDo=     1
 Linear equations converged to 1.000D-10 1.000D-09 after    19 iterations.
 End of Minotr F.D. properties file   721 does not exist.
 End of Minotr F.D. properties file   722 does not exist.
 End of Minotr F.D. properties file   788 does not exist.

 **********************************************************************

            Population analysis using the CI Density.

 **********************************************************************

 Orbital symmetries:
       Occupied  (A) (A) (A) (A) (A) (A) (A) (A) (A) (A) (A) (A)
                 (A) (A) (A) (A) (A) (A) (A) (A) (A) (A) (A) (A)
                 (A) (A) (A) (A) (A) (A) (A)
       Virtual   (A) (A) (A) (A) (A) (A) (A) (A) (A) (A) (A) (A)
                 (A) (A) (A) (A) (A) (A) (A) (A) (A) (A) (A) (A)
                 (A) (A) (A) (A) (A) (A) (A) (A) (A) (A) (A) (A)
                 (A) (A) (A) (A) (A) (A) (A) (A) (A) (A) (A) (A)
                 (A) (A) (A) (A) (A) (A) (A) (A) (A) (A) (A) (A)
                 (A) (A) (A) (A) (A) (A) (A) (A) (A) (A) (A) (A)
                 (A) (A) (A) (A) (A) (A) (A) (A) (A) (A) (A) (A)
                 (A) (A) (A) (A) (A) (A) (A) (A) (A) (A) (A) (A)
                 (A) (A) (A) (A) (A) (A) (A) (A) (A) (A) (A) (A)
                 (A) (A) (A) (A) (A) (A) (A) (A) (A) (A) (A) (A)
                 (A) (A) (A) (A) (A) (A) (A) (A) (A) (A) (A) (A)
                 (A) (A) (A) (A) (A) (A) (A) (A) (A) (A) (A) (A)
                 (A) (A) (A) (A) (A) (A) (A) (A) (A) (A)
 The electronic state is 1-A.
 Alpha  occ. eigenvalues --  -14.46315 -10.31043 -10.30731 -10.27810 -10.27378
 Alpha  occ. eigenvalues --  -10.27303 -10.27238 -10.26778 -10.26367  -1.11474
 Alpha  occ. eigenvalues --   -0.97367  -0.91437  -0.86524  -0.84691  -0.74717
 Alpha  occ. eigenvalues --   -0.71590  -0.70193  -0.65683  -0.59586  -0.58459
 Alpha  occ. eigenvalues --   -0.54586  -0.54009  -0.53862  -0.51903  -0.49785
 Alpha  occ. eigenvalues --   -0.45955  -0.44549  -0.43613  -0.38109  -0.31171
 Alpha  occ. eigenvalues --   -0.29418
 Alpha virt. eigenvalues --    0.05772   0.06647   0.08376   0.08827   0.09733
 Alpha virt. eigenvalues --    0.10122   0.10477   0.11934   0.12434   0.12931
 Alpha virt. eigenvalues --    0.13051   0.13423   0.15181   0.15920   0.16930
 Alpha virt. eigenvalues --    0.16983   0.17895   0.19487   0.20692   0.20817
 Alpha virt. eigenvalues --    0.22153   0.22545   0.23408   0.23881   0.23956
 Alpha virt. eigenvalues --    0.25365   0.25500   0.25905   0.26530   0.27209
 Alpha virt. eigenvalues --    0.27580   0.28856   0.28942   0.29869   0.30261
 Alpha virt. eigenvalues --    0.30552   0.31286   0.31510   0.32705   0.33280
 Alpha virt. eigenvalues --    0.34335   0.34549   0.36174   0.37455   0.38834
 Alpha virt. eigenvalues --    0.39896   0.39926   0.41406   0.43284   0.45906
 Alpha virt. eigenvalues --    0.46780   0.49271   0.53812   0.54758   0.61497
 Alpha virt. eigenvalues --    0.68369   0.72872   0.77663   0.77920   0.80339
 Alpha virt. eigenvalues --    0.82112   0.82489   0.83849   0.84200   0.84823
 Alpha virt. eigenvalues --    0.85701   0.86468   0.88276   0.89663   0.90608
 Alpha virt. eigenvalues --    0.92214   0.95853   1.00117   1.00960   1.02109
 Alpha virt. eigenvalues --    1.04395   1.04882   1.05891   1.07075   1.09057
 Alpha virt. eigenvalues --    1.10883   1.13484   1.15290   1.17206   1.20033
 Alpha virt. eigenvalues --    1.22024   1.22385   1.27648   1.28674   1.31120
 Alpha virt. eigenvalues --    1.32959   1.34713   1.36130   1.41998   1.43157
 Alpha virt. eigenvalues --    1.44507   1.47298   1.52106   1.52245   1.55707
 Alpha virt. eigenvalues --    1.56857   1.57295   1.60503   1.61586   1.65092
 Alpha virt. eigenvalues --    1.69610   1.75778   1.89408   1.95042   1.98841
 Alpha virt. eigenvalues --    1.99890   2.02143   2.03909   2.09465   2.10410
 Alpha virt. eigenvalues --    2.11430   2.16846   2.20364   2.24598   2.27622
 Alpha virt. eigenvalues --    2.28310   2.30234   2.35824   2.36756   2.37348
 Alpha virt. eigenvalues --    2.38901   2.42304   2.48892   2.51750   2.55096
 Alpha virt. eigenvalues --    2.65227   2.66598   2.74424   2.76519   2.77416
 Alpha virt. eigenvalues --    2.80674   2.84623   2.91597   2.95014   2.96651
 Alpha virt. eigenvalues --    3.06368   3.08105   3.21602   3.35041   3.54345
 Alpha virt. eigenvalues --    4.26566   4.37967   4.41024   4.44454   4.47913
 Alpha virt. eigenvalues --    4.51754   4.59883   4.64060   4.90223
          Condensed to atoms (all electrons):
               1          2          3          4          5          6
     1  C    5.904676   0.315935   0.283277  -0.678273   0.003289  -0.226065
     2  C    0.315935   6.184363  -0.437014   0.471482  -0.820025   0.647201
     3  C    0.283277  -0.437014  12.484329  -2.238312  -2.698102  -2.671965
     4  C   -0.678273   0.471482  -2.238312  11.764570  -2.195186  -0.889760
     5  C    0.003289  -0.820025  -2.698102  -2.195186  13.048382  -0.801048
     6  C   -0.226065   0.647201  -2.671965  -0.889760  -0.801048  12.550454
     7  N   -0.008398   0.004910  -0.447774  -0.225195   0.698334   0.112829
     8  C    0.179086  -0.312748   2.812541   1.146139  -3.888406  -3.124138
     9  C   -0.090503   0.051589  -1.068330  -0.521514   1.538390   0.919446
    10  H   -0.001643  -0.005388  -0.096454  -0.062627   0.129826   0.022113
    11  H    0.003756   0.000566   0.001102   0.019686   0.007930  -0.010581
    12  H    0.000728   0.000184   0.019479   0.062318  -0.057006  -0.015941
    13  H   -0.010623   0.307559  -0.022426   0.022198   0.004665   0.013081
    14  H    0.015744   0.027495   0.252272   0.014274   0.006233  -0.011724
    15  H    0.315664  -0.009694   0.020427  -0.015635   0.033052  -0.031011
    16  H   -0.014841   0.017057  -0.035087   0.052002   0.061870   0.272331
               7          8          9         10         11         12
     1  C   -0.008398   0.179086  -0.090503  -0.001643   0.003756   0.000728
     2  C    0.004910  -0.312748   0.051589  -0.005388   0.000566   0.000184
     3  C   -0.447774   2.812541  -1.068330  -0.096454   0.001102   0.019479
     4  C   -0.225195   1.146139  -0.521514  -0.062627   0.019686   0.062318
     5  C    0.698334  -3.888406   1.538390   0.129826   0.007930  -0.057006
     6  C    0.112829  -3.124138   0.919446   0.022113  -0.010581  -0.015941
     7  N    7.180759  -0.644148   0.579170   0.284929   0.006392  -0.047845
     8  C   -0.644148  11.160126  -1.840002  -0.014000   0.317033   0.014928
     9  C    0.579170  -1.840002   6.448549  -0.009437  -0.033684   0.344208
    10  H    0.284929  -0.014000  -0.009437   0.304638  -0.000056  -0.001679
    11  H    0.006392   0.317033  -0.033684  -0.000056   0.450009  -0.000375
    12  H   -0.047845   0.014928   0.344208  -0.001679  -0.000375   0.445218
    13  H   -0.000334  -0.000950   0.001130  -0.000001   0.000000  -0.000000
    14  H   -0.000664  -0.012046   0.012068   0.001539   0.000001   0.000002
    15  H    0.000193   0.003025   0.000091  -0.000000  -0.000001  -0.000000
    16  H   -0.000844  -0.053523   0.005453   0.000003   0.001134  -0.000001
              13         14         15         16
     1  C   -0.010623   0.015744   0.315664  -0.014841
     2  C    0.307559   0.027495  -0.009694   0.017057
     3  C   -0.022426   0.252272   0.020427  -0.035087
     4  C    0.022198   0.014274  -0.015635   0.052002
     5  C    0.004665   0.006233   0.033052   0.061870
     6  C    0.013081  -0.011724  -0.031011   0.272331
     7  N   -0.000334  -0.000664   0.000193  -0.000844
     8  C   -0.000950  -0.012046   0.003025  -0.053523
     9  C    0.001130   0.012068   0.000091   0.005453
    10  H   -0.000001   0.001539  -0.000000   0.000003
    11  H    0.000000   0.000001  -0.000001   0.001134
    12  H   -0.000000   0.000002  -0.000000  -0.000001
    13  H    0.492292  -0.003158  -0.003289  -0.000120
    14  H   -0.003158   0.496128  -0.000117   0.000013
    15  H   -0.003289  -0.000117   0.495192  -0.003135
    16  H   -0.000120   0.000013  -0.003135   0.497251
 Mulliken charges:
               1
     1  C    0.008191
     2  C   -0.443474
     3  C   -0.157963
     4  C   -0.726168
     5  C    0.927801
     6  C   -0.755224
     7  N   -0.492316
     8  C    0.257080
     9  C   -0.336625
    10  H    0.448237
    11  H    0.237089
    12  H    0.235782
    13  H    0.199976
    14  H    0.201939
    15  H    0.195238
    16  H    0.200437
 Sum of Mulliken charges =  -0.00000
 Mulliken charges with hydrogens summed into heavy atoms:
               1
     1  C    0.203429
     2  C   -0.243498
     3  C    0.043976
     4  C   -0.726168
     5  C    0.927801
     6  C   -0.554787
     7  N   -0.044079
     8  C    0.494169
     9  C   -0.100843
 Electronic spatial extent (au):  <R**2>=           1013.3880
 Charge=             -0.0000 electrons
 Dipole moment (field-independent basis, Debye):
    X=              3.6709    Y=             -1.5798    Z=              0.0289  Tot=              3.9965
 Quadrupole moment (field-independent basis, Debye-Ang):
   XX=            -45.3912   YY=            -45.8729   ZZ=            -60.4099
   XY=             -2.0987   XZ=             -0.0653   YZ=             -0.0114
 Traceless Quadrupole moment (field-independent basis, Debye-Ang):
   XX=              5.1668   YY=              4.6851   ZZ=             -9.8519
   XY=             -2.0987   XZ=             -0.0653   YZ=             -0.0114
 Octapole moment (field-independent basis, Debye-Ang**2):
  XXX=             25.2220  YYY=            -10.5196  ZZZ=              0.2160  XYY=             14.2154
  XXY=             -7.0481  XXZ=              0.3774  XZZ=              4.3823  YZZ=             -1.5819
  YYZ=             -0.1606  XYZ=             -0.5832
 Hexadecapole moment (field-independent basis, Debye-Ang**3):
 XXXX=           -842.0724 YYYY=           -387.6200 ZZZZ=            -84.5353 XXXY=            -15.6786
 XXXZ=             -0.8929 YYYX=            -15.6019 YYYZ=             -0.9381 ZZZX=             -0.0508
 ZZZY=             -0.0705 XXYY=           -195.1349 XXZZ=           -200.0441 YYZZ=           -101.8450
 XXYZ=              1.0363 YYXZ=              0.0490 ZZXY=             -1.7530
 N-N= 4.000099183022D+02 E-N=-1.641990150418D+03  KE= 3.603113027007D+02
 Calling FoFJK, ICntrl=  10005127 FMM=F ISym2X=0 I1Cent= 0 IOpClX= 0 NMat=1 NMatS=1 NMatT=0.
 ***** Axes restored to original set *****
 -------------------------------------------------------------------
 Center     Atomic                   Forces (Hartrees/Bohr)
 Number     Number              X              Y              Z
 -------------------------------------------------------------------
      1        6          -0.025978015   -0.025545231   -0.001722327
      2        6          -0.042311819    0.038566713    0.004252269
      3        6           0.048428327   -0.029446346   -0.002586825
      4        6          -0.016111557    0.004982025    0.000022918
      5        6           0.035077996   -0.005454996   -0.001823630
      6        6           0.000933708    0.035613570    0.001965532
      7        7           0.021643681    0.021503991    0.000440683
      8        6          -0.053353420    0.019251328    0.000128559
      9        6           0.022037493   -0.056151516   -0.000143341
     10        1           0.001321492   -0.001258196   -0.000019895
     11        1           0.000844799    0.000594502    0.000267419
     12        1           0.000749682   -0.000373776    0.000023727
     13        1           0.001590937    0.000730698    0.000916160
     14        1           0.000188269    0.001715119    0.000283288
     15        1           0.004599455   -0.002700815   -0.002667865
     16        1           0.000338971   -0.002027071    0.000663328
 -------------------------------------------------------------------
 Cartesian Forces:  Max     0.056151516 RMS     0.019634977

 GradGradGradGradGradGradGradGradGradGradGradGradGradGradGradGradGradGrad
 Berny optimization.
 FormGI is forming the generalized inverse of G from B-inverse, IUseBI=4.
 Internal  Forces:  Max     0.049701105 RMS     0.009575872
 Search for a local minimum.
 Step number   1 out of a maximum of   94
 All quantities printed in internal units (Hartrees-Bohrs-Radians)
 Mixed Optimization -- RFO/linear search
 Second derivative matrix not updated -- first step.
 ITU=  0
     Eigenvalues ---    0.01796   0.01876   0.01936   0.01957   0.02014
     Eigenvalues ---    0.02077   0.02091   0.02104   0.02135   0.02150
     Eigenvalues ---    0.02171   0.02192   0.02277   0.15995   0.15997
     Eigenvalues ---    0.15999   0.15999   0.16000   0.16000   0.16000
     Eigenvalues ---    0.21967   0.22184   0.22640   0.24007   0.24641
     Eigenvalues ---    0.34301   0.34775   0.34841   0.34849   0.35843
     Eigenvalues ---    0.35881   0.36568   0.37979   0.41971   0.43107
     Eigenvalues ---    0.45016   0.46141   0.46401   0.46720   0.46776
     Eigenvalues ---    0.47290   0.50149
 RFO step:  Lambda=-1.68530917D-02 EMin= 1.79641872D-02
 Linear search not attempted -- first point.
 Iteration  1 RMS(Cart)=  0.02827760 RMS(Int)=  0.00032381
 Iteration  2 RMS(Cart)=  0.00033734 RMS(Int)=  0.00014766
 Iteration  3 RMS(Cart)=  0.00000010 RMS(Int)=  0.00014766
 Variable       Old X    -DE/DX   Delta X   Delta X   Delta X     New X
                                 (Linear)    (Quad)   (Total)
    R1        2.65763  -0.01217   0.00000  -0.02477  -0.02482   2.63282
    R2        2.62302   0.02580   0.00000   0.05350   0.05348   2.67649
    R3        2.06825  -0.00548   0.00000  -0.01523  -0.01523   2.05302
    R4        2.62246   0.04970   0.00000   0.10092   0.10090   2.72336
    R5        2.05920  -0.00176   0.00000  -0.00481  -0.00481   2.05439
    R6        2.64564  -0.00557   0.00000  -0.01303  -0.01301   2.63263
    R7        2.05934  -0.00171   0.00000  -0.00469  -0.00469   2.05465
    R8        2.68977   0.00163   0.00000  -0.00031  -0.00043   2.68934
    R9        2.60613   0.01473   0.00000   0.02752   0.02762   2.63375
   R10        2.65581   0.02514   0.00000   0.05388   0.05390   2.70971
   R11        2.71547  -0.02241   0.00000  -0.05354  -0.05374   2.66174
   R12        2.06041  -0.00205   0.00000  -0.00563  -0.00563   2.05478
   R13        2.61450  -0.02676   0.00000  -0.05218  -0.05195   2.56255
   R14        1.90381   0.00161   0.00000   0.00334   0.00334   1.90715
   R15        2.58787   0.04304   0.00000   0.08364   0.08368   2.67156
   R16        2.04327   0.00085   0.00000   0.00225   0.00225   2.04553
   R17        2.04268   0.00079   0.00000   0.00209   0.00209   2.04477
    A1        2.11021  -0.00073   0.00000   0.00242   0.00215   2.11236
    A2        2.08048   0.00014   0.00000  -0.00245  -0.00233   2.07815
    A3        2.09247   0.00059   0.00000   0.00010   0.00021   2.09268
    A4        2.11832   0.00155   0.00000   0.01019   0.00986   2.12818
    A5        2.07961  -0.00062   0.00000  -0.00400  -0.00396   2.07565
    A6        2.08500  -0.00091   0.00000  -0.00569  -0.00564   2.07935
    A7        2.04953  -0.00253   0.00000  -0.01264  -0.01285   2.03668
    A8        2.11773   0.00150   0.00000   0.00768   0.00774   2.12547
    A9        2.11584   0.00104   0.00000   0.00514   0.00520   2.12104
   A10        2.13411   0.00181   0.00000   0.00542   0.00536   2.13947
   A11        2.27810  -0.00562   0.00000  -0.01500  -0.01491   2.26320
   A12        1.87093   0.00381   0.00000   0.00963   0.00958   1.88051
   A13        2.06944   0.00581   0.00000   0.02063   0.02071   2.09015
   A14        1.86461  -0.00390   0.00000  -0.01732  -0.01765   1.84695
   A15        2.34906  -0.00190   0.00000  -0.00325  -0.00301   2.34605
   A16        2.08151  -0.00578   0.00000  -0.02244  -0.02269   2.05882
   A17        2.10290   0.00317   0.00000   0.01291   0.01294   2.11585
   A18        2.09860   0.00263   0.00000   0.00988   0.00991   2.10851
   A19        1.90817   0.00374   0.00000   0.01413   0.01441   1.92258
   A20        2.18895  -0.00104   0.00000  -0.00241  -0.00255   2.18640
   A21        2.18607  -0.00269   0.00000  -0.01172  -0.01186   2.17420
   A22        1.87017   0.00641   0.00000   0.03067   0.03050   1.90067
   A23        2.21386  -0.00260   0.00000  -0.01194  -0.01185   2.20201
   A24        2.19915  -0.00381   0.00000  -0.01874  -0.01865   2.18050
   A25        1.91087  -0.01005   0.00000  -0.03704  -0.03681   1.87406
   A26        2.09958   0.00473   0.00000   0.01689   0.01677   2.11635
   A27        2.27270   0.00532   0.00000   0.02020   0.02007   2.29278
    D1        0.08496  -0.00196   0.00000  -0.05203  -0.05221   0.03275
    D2       -3.08112  -0.00112   0.00000  -0.02836  -0.02838  -3.10950
    D3       -3.06462  -0.00156   0.00000  -0.04192  -0.04207  -3.10670
    D4        0.05248  -0.00071   0.00000  -0.01825  -0.01825   0.03423
    D5       -0.08896   0.00180   0.00000   0.04587   0.04575  -0.04321
    D6        3.07230   0.00095   0.00000   0.02517   0.02523   3.09753
    D7        3.06067   0.00140   0.00000   0.03570   0.03554   3.09621
    D8       -0.06125   0.00055   0.00000   0.01501   0.01502  -0.04623
    D9       -0.03480   0.00103   0.00000   0.02886   0.02889  -0.00591
   D10        3.12057   0.00044   0.00000   0.01513   0.01535   3.13592
   D11        3.13135   0.00017   0.00000   0.00509   0.00499   3.13634
   D12        0.00354  -0.00042   0.00000  -0.00864  -0.00855  -0.00501
   D13       -0.00812  -0.00024   0.00000  -0.00117  -0.00080  -0.00891
   D14       -3.13901  -0.00049   0.00000  -0.00792  -0.00756   3.13661
   D15        3.11971   0.00035   0.00000   0.01257   0.01273   3.13244
   D16       -0.01119   0.00010   0.00000   0.00582   0.00597  -0.00522
   D17        0.00259  -0.00025   0.00000  -0.00534  -0.00523  -0.00264
   D18       -3.12801  -0.00037   0.00000  -0.00983  -0.00982  -3.13783
   D19        3.13567  -0.00010   0.00000  -0.00010   0.00010   3.13577
   D20        0.00507  -0.00022   0.00000  -0.00460  -0.00449   0.00059
   D21        3.13110   0.00028   0.00000   0.00536   0.00515   3.13625
   D22       -0.00902   0.00026   0.00000   0.00590   0.00576  -0.00326
   D23       -0.00102   0.00006   0.00000  -0.00062  -0.00084  -0.00186
   D24       -3.14114   0.00004   0.00000  -0.00008  -0.00023  -3.14137
   D25        0.04569  -0.00076   0.00000  -0.01747  -0.01730   0.02840
   D26       -3.11552   0.00010   0.00000   0.00321   0.00317  -3.11235
   D27       -3.11068  -0.00058   0.00000  -0.01146  -0.01115  -3.12183
   D28        0.01129   0.00027   0.00000   0.00921   0.00932   0.02061
   D29       -0.00728   0.00037   0.00000   0.00820   0.00810   0.00082
   D30        3.13205   0.00026   0.00000   0.00606   0.00601   3.13806
   D31       -3.13531   0.00015   0.00000   0.00246   0.00233  -3.13298
   D32        0.00402   0.00004   0.00000   0.00033   0.00023   0.00425
   D33       -0.00369   0.00024   0.00000   0.00615   0.00604   0.00235
   D34       -3.13774  -0.00001   0.00000  -0.00037  -0.00041  -3.13815
   D35        3.13643   0.00026   0.00000   0.00563   0.00545  -3.14130
   D36        0.00238   0.00001   0.00000  -0.00090  -0.00101   0.00138
   D37        0.00679  -0.00033   0.00000  -0.00873  -0.00875  -0.00196
   D38        3.13985  -0.00006   0.00000  -0.00142  -0.00146   3.13839
   D39       -3.13257  -0.00022   0.00000  -0.00663  -0.00669  -3.13926
   D40        0.00050   0.00005   0.00000   0.00069   0.00060   0.00109
         Item               Value     Threshold  Converged?
 Maximum Force            0.049701     0.000450     NO 
 RMS     Force            0.009576     0.000300     NO 
 Maximum Displacement     0.080231     0.001800     NO 
 RMS     Displacement     0.028221     0.001200     NO 
 Predicted change in Energy=-8.836960D-03
 GradGradGradGradGradGradGradGradGradGradGradGradGradGradGradGradGradGrad

                          Input orientation:                          
 ---------------------------------------------------------------------
 Center     Atomic      Atomic             Coordinates (Angstroms)
 Number     Number       Type             X           Y           Z
 ---------------------------------------------------------------------
      1          6           0       -2.191614    0.695743    0.016588
      2          6           0       -2.152017   -0.696808   -0.001053
      3          6           0       -0.907839   -1.424042   -0.006499
      4          6           0        0.260543   -0.665322   -0.000581
      5          6           0        0.250213    0.757777   -0.000380
      6          6           0       -0.999721    1.460409   -0.009732
      7          7           0        1.590998   -1.080467    0.001709
      8          6           0        1.602550    1.151654    0.001277
      9          6           0        2.416232   -0.004438    0.000966
     10          1           0        1.901889   -2.040611    0.001929
     11          1           0        1.971484    2.169284   -0.001224
     12          1           0        3.491893   -0.121820   -0.000719
     13          1           0       -3.088195   -1.249394   -0.010354
     14          1           0       -0.879890   -2.510920   -0.015035
     15          1           0       -3.155314    1.195983    0.053134
     16          1           0       -1.027562    2.547051   -0.037035
 ---------------------------------------------------------------------
                    Distance matrix (angstroms):
                    1          2          3          4          5
     1  C    0.000000
     2  C    1.393226   0.000000
     3  C    2.478326   1.441138   0.000000
     4  C    2.804615   2.412766   1.393129   0.000000
     5  C    2.442673   2.808296   2.470112   1.423136   0.000000
     6  C    1.416338   2.445700   2.885916   2.471251   1.433916
     7  N    4.178911   3.762628   2.522359   1.393722   2.275269
     8  C    3.821488   4.184924   3.596709   2.258846   1.408530
     9  C    4.660766   4.620420   3.614523   2.254720   2.296217
    10  H    4.923883   4.270828   2.876595   2.141365   3.249464
    11  H    4.416223   5.021728   4.604620   3.310938   2.226012
    12  H    5.742034   5.673124   4.588404   3.276738   3.358896
    13  H    2.141995   1.087137   2.187343   3.399306   3.895356
    14  H    3.464724   2.215741   1.087271   2.169570   3.458573
    15  H    1.086413   2.142942   3.452424   3.890427   3.434021
    16  H    2.187517   3.433412   3.973015   3.461197   2.198990
                    6          7          8          9         10
     6  C    0.000000
     7  N    3.628775   0.000000
     8  C    2.620547   2.232151   0.000000
     9  C    3.716804   1.356042   1.413728   0.000000
    10  H    4.547156   1.009223   3.206269   2.100131   0.000000
    11  H    3.054610   3.271951   1.082447   2.218755   4.210472
    12  H    4.762156   2.128946   2.278455   1.082048   2.491963
    13  H    3.421221   4.682257   5.269559   5.643471   5.052437
    14  H    3.973141   2.855130   4.424616   4.140910   2.821307
    15  H    2.172660   5.264252   4.758353   5.699637   6.004454
    16  H    1.087342   4.474064   2.977599   4.286171   5.443331
                   11         12         13         14         15
    11  H    0.000000
    12  H    2.749691   0.000000
    13  H    6.106374   6.676007   0.000000
    14  H    5.480406   4.982017   2.543242   0.000000
    15  H    5.218652   6.776789   2.447122   4.350096   0.000000
    16  H    3.022958   5.248778   4.319713   5.060175   2.522071
                   16
    16  H    0.000000
 Stoichiometry    C8H7N
 Framework group  C1[X(C8H7N)]
 Deg. of freedom    42
 Full point group                 C1      NOp   1
 Largest Abelian subgroup         C1      NOp   1
 Largest concise Abelian subgroup C1      NOp   1
                         Standard orientation:                         
 ---------------------------------------------------------------------
 Center     Atomic      Atomic             Coordinates (Angstroms)
 Number     Number       Type             X           Y           Z
 ---------------------------------------------------------------------
      1          6           0       -2.208242    0.640917    0.014162
      2          6           0       -2.134715   -0.750268   -0.002518
      3          6           0       -0.873185   -1.446977   -0.006422
      4          6           0        0.276361   -0.660013   -0.000016
      5          6           0        0.231363    0.762411   -0.000771
      6          6           0       -1.035310    1.434377   -0.011653
      7          7           0        1.616532   -1.042620    0.003682
      8          6           0        1.573701    1.189119    0.001775
      9          6           0        2.415307    0.053195    0.002925
     10          1           0        1.950722   -1.994904    0.004805
     11          1           0        1.917736    2.215434   -0.001090
     12          1           0        3.493509   -0.037948    0.002232
     13          1           0       -3.057145   -1.325504   -0.012248
     14          1           0       -0.818758   -2.532857   -0.014211
     15          1           0       -3.183874    1.117553    0.049555
     16          1           0       -1.089592    2.520000   -0.039703
 ---------------------------------------------------------------------
 Rotational constants (GHZ):           3.8641007           1.6072367           1.1351495
 Standard basis: 6-31+G(d) (6D, 7F)
 There are   185 symmetry adapted cartesian basis functions of A   symmetry.
 There are   185 symmetry adapted basis functions of A   symmetry.
   185 basis functions,   316 primitive gaussians,   185 cartesian basis functions
    31 alpha electrons       31 beta electrons
       nuclear repulsion energy       397.8895302454 Hartrees.
 NAtoms=   16 NActive=   16 NUniq=   16 SFac= 1.00D+00 NAtFMM=   60 NAOKFM=F Big=F
 Integral buffers will be    131072 words long.
 Raffenetti 1 integral format.
 Two-electron integral symmetry is turned on.
 One-electron integrals computed using PRISM.
 NBasis=   185 RedAO= T EigKep=  1.30D-06  NBF=   185
 NBsUse=   185 1.00D-06 EigRej= -1.00D+00 NBFU=   185
 Initial guess from the checkpoint file:  "FuncsWB97X.chk"
 B after Tr=     0.000000   -0.000000   -0.000000
         Rot=    0.999932   -0.000078    0.000012   -0.011690 Ang=  -1.34 deg.
 ExpMin= 4.38D-02 ExpMax= 4.17D+03 ExpMxC= 6.27D+02 IAcc=3 IRadAn=         5 AccDes= 0.00D+00
 Harris functional with IExCor= 4538 and IRadAn=       5 diagonalized for initial guess.
 HarFok:  IExCor= 4538 AccDes= 0.00D+00 IRadAn=         5 IDoV= 1 UseB2=F ITyADJ=14
 ICtDFT=  3500011 ScaDFX=  1.000000  1.000000  1.000000  1.000000
 FoFCou: FMM=F IPFlag=           0 FMFlag=      100000 FMFlg1=           0
         NFxFlg=           0 DoJE=T BraDBF=F KetDBF=T FulRan=T
         wScrn=  0.000000 ICntrl=       500 IOpCl=  0 I1Cent=   200000004 NGrid=           0
         NMat0=    1 NMatS0=      1 NMatT0=    0 NMatD0=    1 NMtDS0=    0 NMtDT0=    0
 Petite list used in FoFCou.
 Requested convergence on RMS density matrix=1.00D-08 within 128 cycles.
 Requested convergence on MAX density matrix=1.00D-06.
 Requested convergence on             energy=1.00D-06.
 No special actions if energy rises.
 SCF Done:  E(RwB97X) =  -363.721021209     A.U. after   15 cycles
            NFock= 15  Conv=0.49D-08     -V/T= 2.0105
 DoSCS=F DFT=T ScalE2(SS,OS)=  1.000000  1.000000
 ExpMin= 4.38D-02 ExpMax= 4.17D+03 ExpMxC= 6.27D+02 IAcc=3 IRadAn=         5 AccDes= 0.00D+00
 HarFok:  IExCor=  205 AccDes= 0.00D+00 IRadAn=         5 IDoV=-2 UseB2=F ITyADJ=14
 ICtDFT= 12500011 ScaDFX=  1.000000  1.000000  1.000000  1.000000
 Range of M.O.s used for correlation:    10   185
 NBasis=   185 NAE=    31 NBE=    31 NFC=     9 NFV=     0
 NROrb=    176 NOA=    22 NOB=    22 NVA=   154 NVB=   154

 **** Warning!!: The largest alpha MO coefficient is  0.19487093D+03

 Orbital symmetries:
       Occupied  (A) (A) (A) (A) (A) (A) (A) (A) (A) (A) (A) (A)
                 (A) (A) (A) (A) (A) (A) (A) (A) (A) (A) (A) (A)
                 (A) (A) (A) (A) (A) (A) (A)
       Virtual   (A) (A) (A) (A) (A) (A) (A) (A) (A) (A) (A) (A)
                 (A) (A) (A) (A) (A) (A) (A) (A) (A) (A) (A) (A)
                 (A) (A) (A) (A) (A) (A) (A) (A) (A) (A) (A) (A)
                 (A) (A) (A) (A) (A) (A) (A) (A) (A) (A) (A) (A)
                 (A) (A) (A) (A) (A) (A) (A) (A) (A) (A) (A) (A)
                 (A) (A) (A) (A) (A) (A) (A) (A) (A) (A) (A) (A)
                 (A) (A) (A) (A) (A) (A) (A) (A) (A) (A) (A) (A)
                 (A) (A) (A) (A) (A) (A) (A) (A) (A) (A) (A) (A)
                 (A) (A) (A) (A) (A) (A) (A) (A) (A) (A) (A) (A)
                 (A) (A) (A) (A) (A) (A) (A) (A) (A) (A) (A) (A)
                 (A) (A) (A) (A) (A) (A) (A) (A) (A) (A) (A) (A)
                 (A) (A) (A) (A) (A) (A) (A) (A) (A) (A) (A) (A)
                 (A) (A) (A) (A) (A) (A) (A) (A) (A) (A)
 Generating guess from densities on rwf.
 Convergence on wavefunction:    0.000001000000000
 Iteration     1 Dimension    12 NMult     0 NNew     12
 CISAX will form    12 AO SS matrices at one time.
 New state      1 was old state      2
 New state      2 was old state      1
 New state      5 was old state      6
 New state      6 was old state      5
 Iteration     2 Dimension    24 NMult    12 NNew     12
 Iteration     3 Dimension    36 NMult    24 NNew     12
 Iteration     4 Dimension    48 NMult    36 NNew     12
 Iteration     5 Dimension    60 NMult    48 NNew     12
 Iteration     6 Dimension    72 NMult    60 NNew     12
 Iteration     7 Dimension    84 NMult    72 NNew     12
 Iteration     8 Dimension    96 NMult    84 NNew     12
 Iteration     9 Dimension   108 NMult    96 NNew     12
 Iteration    10 Dimension   120 NMult   108 NNew     12
 Iteration    11 Dimension   128 NMult   120 NNew      8
 Iteration    12 Dimension   136 NMult   128 NNew      8
 Iteration    13 Dimension   142 NMult   136 NNew      6
 Iteration    14 Dimension   146 NMult   142 NNew      4
 Iteration    15 Dimension   150 NMult   146 NNew      4
 Iteration    16 Dimension   152 NMult   150 NNew      2
 ***********************************************************************
 Excited states from <AA,BB:AA,BB> singles matrix:
 ***********************************************************************
 
 Ground to excited state transition densities written to RWF  633
 Ground to excited state transition electric dipole moments (Au):
       state          X           Y           Z        Dip. S.      Osc.
         1         0.2048      0.2951     -0.0020      0.1291      0.0158
         2         1.0278     -0.7362     -0.0011      1.5984      0.1864
         3        -0.0344     -0.0112     -0.2192      0.0493      0.0069
         4         1.8966      0.7592     -0.0014      4.1734      0.6364
         5        -0.1320     -0.0583     -0.0978      0.0304      0.0047
         6        -0.0909     -0.0429      0.1931      0.0474      0.0074
 Ground to excited state transition velocity dipole moments (Au):
       state          X           Y           Z        Dip. S.      Osc.
         1        -0.0359     -0.0574      0.0005      0.0046      0.0166
         2        -0.1672      0.1383      0.0000      0.0471      0.1795
         3         0.0070      0.0024      0.0376      0.0015      0.0047
         4        -0.4216     -0.1736      0.0004      0.2079      0.6059
         5         0.0301      0.0136      0.0231      0.0016      0.0046
         6         0.0208      0.0102     -0.0449      0.0026      0.0072
 Ground to excited state transition magnetic dipole moments (Au):
       state          X           Y           Z
         1        -0.0023      0.0047     -0.0300
         2        -0.0048      0.0014     -0.1028
         3         0.1431     -0.2097     -0.0063
         4         0.0484     -0.0089      0.9304
         5         0.4111     -0.4252     -0.0745
         6         0.2675      0.4523     -0.0535
 Ground to excited state transition velocity quadrupole moments (Au):
       state          XX          YY          ZZ          XY          XZ          YZ
         1         0.0072      0.0737     -0.0209     -0.0156     -0.0041     -0.0028
         2        -0.2232      0.1753     -0.0117     -0.0377     -0.0012     -0.0051
         3         0.0007     -0.0056     -0.0001     -0.0041      0.1600      0.0557
         4        -0.2402      0.1972      0.0339      0.6155      0.0142      0.0362
         5         0.0141     -0.0133     -0.0011     -0.0502      0.4349      0.3637
         6         0.0068      0.0046     -0.0022     -0.0240     -0.3554      0.1211
 <0|del|b> * <b|rxdel|0> + <0|del|b> * <b|delr+rdel|0>
 Rotatory Strengths (R) in cgs (10**-40 erg-esu-cm/Gauss)
       state          XX          YY          ZZ    R(velocity)    E-M Angle
         1        -1.0111      0.3374     -0.0885     -0.2541       95.52
         2         0.7177      3.3725     -0.0353      1.3517       87.43
         3        -2.1573      2.2193      0.8352      0.2991       88.43
         4         7.2070    -54.8875     -9.3838    -19.0214       92.49
         5       -22.0533     34.3952      2.3557      4.8992       78.33
         6        17.5982     14.1691      6.0670     12.6114       61.91
 1/2[<0|r|b>*<b|rxdel|0> + (<0|rxdel|b>*<b|r|0>)*]
 Rotatory Strengths (R) in cgs (10**-40 erg-esu-cm/Gauss)
       state          XX          YY          ZZ     R(length)
         1         0.3342     -0.9710     -0.0427     -0.2265
         2         3.5185      0.7380     -0.0776      1.3930
         3         3.4844     -1.6607     -0.9754      0.2827
         4       -64.8877      4.7785      0.9468    -19.7208
         5        38.3853    -17.5181     -5.1513      5.2386
         6        17.1970     13.7097      7.3068     12.7378
  1/2[<0|del|b>*<b|r|0> + (<0|r|b>*<b|del|0>)*] (Au)
       state          X           Y           Z        Dip. S.   Osc.(frdel)
         1        -0.0074     -0.0170     -0.0000      0.0243      0.0162
         2        -0.1719     -0.1018     -0.0000      0.2737      0.1825
         3        -0.0002     -0.0000     -0.0082      0.0085      0.0057
         4        -0.7996     -0.1318     -0.0000      0.9314      0.6210
         5        -0.0040     -0.0008     -0.0023      0.0070      0.0047
         6        -0.0019     -0.0004     -0.0087      0.0110      0.0073

 Excitation energies and oscillator strengths:
 
 Excited State   1:      Singlet-A      5.0118 eV  247.38 nm  f=0.0158  <S**2>=0.000
      30 -> 32        -0.55760
      31 -> 36        -0.39089
 
 Excited State   2:      Singlet-A      4.7591 eV  260.52 nm  f=0.1864  <S**2>=0.000
      30 -> 36         0.14840
      31 -> 32        -0.68048
 This state for optimization and/or second-order correction.
 Total Energy, E(TD-HF/TD-DFT) =  -363.546127150    
 Copying the excited state density for this state as the 1-particle RhoCI density.
 
 Excited State   3:      Singlet-A      5.7123 eV  217.05 nm  f=0.0069  <S**2>=0.000
      29 -> 33         0.10117
      31 -> 33         0.65325
      31 -> 40         0.15435
 
 Excited State   4:      Singlet-A      6.2245 eV  199.19 nm  f=0.6364  <S**2>=0.000
      30 -> 32        -0.37909
      31 -> 36         0.54985
      31 -> 39         0.14331
 
 Excited State   5:      Singlet-A      6.3644 eV  194.81 nm  f=0.0047  <S**2>=0.000
      29 -> 33         0.10439
      30 -> 33         0.13395
      31 -> 34         0.62331
      31 -> 35        -0.12146
 
 Excited State   6:      Singlet-A      6.3932 eV  193.93 nm  f=0.0074  <S**2>=0.000
      31 -> 33         0.14233
      31 -> 35         0.59326
      31 -> 37         0.14981
      31 -> 40        -0.15240
      31 -> 43         0.16966
 SavETr:  write IOETrn=   770 NScale= 10 NData=  16 NLR=1 NState=    6 LETran=     118.
          IDoAtm=1111111111111111
          Differentiating once with respect to electric field.
                with respect to dipole field.
          Differentiating once with respect to nuclear coordinates.
          There are     1 degrees of freedom in the 1st order CPHF.  IDoFFX=0 NUNeed=     1.
 LinEq1:  Iter=  0 NonCon=     1 RMS=5.28D-03 Max=9.42D-02 NDo=     1
 AX will form     1 AO Fock derivatives at one time.
 LinEq1:  Iter=  1 NonCon=     1 RMS=2.10D-03 Max=6.36D-02 NDo=     1
 LinEq1:  Iter=  2 NonCon=     1 RMS=7.70D-04 Max=1.91D-02 NDo=     1
 LinEq1:  Iter=  3 NonCon=     1 RMS=4.68D-04 Max=1.70D-02 NDo=     1
 LinEq1:  Iter=  4 NonCon=     1 RMS=1.84D-04 Max=5.21D-03 NDo=     1
 LinEq1:  Iter=  5 NonCon=     1 RMS=9.07D-05 Max=3.20D-03 NDo=     1
 LinEq1:  Iter=  6 NonCon=     1 RMS=3.77D-05 Max=9.74D-04 NDo=     1
 LinEq1:  Iter=  7 NonCon=     1 RMS=1.87D-05 Max=3.43D-04 NDo=     1
 LinEq1:  Iter=  8 NonCon=     1 RMS=8.09D-06 Max=1.85D-04 NDo=     1
 LinEq1:  Iter=  9 NonCon=     1 RMS=2.62D-06 Max=4.26D-05 NDo=     1
 LinEq1:  Iter= 10 NonCon=     1 RMS=1.22D-06 Max=2.73D-05 NDo=     1
 LinEq1:  Iter= 11 NonCon=     1 RMS=4.82D-07 Max=1.28D-05 NDo=     1
 LinEq1:  Iter= 12 NonCon=     1 RMS=2.45D-07 Max=5.14D-06 NDo=     1
 LinEq1:  Iter= 13 NonCon=     1 RMS=8.04D-08 Max=1.48D-06 NDo=     1
 LinEq1:  Iter= 14 NonCon=     1 RMS=3.00D-08 Max=5.92D-07 NDo=     1
 LinEq1:  Iter= 15 NonCon=     1 RMS=1.29D-08 Max=2.29D-07 NDo=     1
 LinEq1:  Iter= 16 NonCon=     1 RMS=2.81D-09 Max=3.71D-08 NDo=     1
 LinEq1:  Iter= 17 NonCon=     1 RMS=1.25D-09 Max=2.68D-08 NDo=     1
 LinEq1:  Iter= 18 NonCon=     1 RMS=3.86D-10 Max=5.60D-09 NDo=     1
 LinEq1:  Iter= 19 NonCon=     1 RMS=8.82D-11 Max=1.22D-09 NDo=     1
 LinEq1:  Iter= 20 NonCon=     0 RMS=3.44D-11 Max=4.66D-10 NDo=     1
 Linear equations converged to 1.000D-10 1.000D-09 after    20 iterations.
 End of Minotr F.D. properties file   721 does not exist.
 End of Minotr F.D. properties file   722 does not exist.
 End of Minotr F.D. properties file   788 does not exist.
 Calling FoFJK, ICntrl=  10005127 FMM=F ISym2X=0 I1Cent= 0 IOpClX= 0 NMat=1 NMatS=1 NMatT=0.
 ***** Axes restored to original set *****
 -------------------------------------------------------------------
 Center     Atomic                   Forces (Hartrees/Bohr)
 Number     Number              X              Y              Z
 -------------------------------------------------------------------
      1        6           0.001976593   -0.013148244   -0.000618129
      2        6          -0.008594862    0.015454787    0.001222215
      3        6           0.014452069   -0.007297263   -0.001017566
      4        6          -0.015961163    0.000947273    0.000036877
      5        6           0.012200097   -0.007529444   -0.000822947
      6        6          -0.000660349    0.006727192    0.001145607
      7        7           0.005276758    0.009976882    0.000119154
      8        6          -0.013362255    0.010222810   -0.000269328
      9        6           0.004650869   -0.015361531    0.000104318
     10        1          -0.000988469   -0.000858264   -0.000099452
     11        1           0.001693556    0.000303015    0.000138346
     12        1          -0.000558221    0.001443495    0.000035626
     13        1           0.000808981   -0.001270967    0.000753092
     14        1          -0.001694969    0.000589773    0.000103327
     15        1           0.000195076    0.000675872   -0.001407093
     16        1           0.000566290   -0.000875386    0.000575954
 -------------------------------------------------------------------
 Cartesian Forces:  Max     0.015961163 RMS     0.006371496

 GradGradGradGradGradGradGradGradGradGradGradGradGradGradGradGradGradGrad
 Berny optimization.
 Using GEDIIS/GDIIS optimizer.
 FormGI is forming the generalized inverse of G from B-inverse, IUseBI=4.
 Internal  Forces:  Max     0.008852031 RMS     0.002429846
 Search for a local minimum.
 Step number   2 out of a maximum of   94
 All quantities printed in internal units (Hartrees-Bohrs-Radians)
 Mixed Optimization -- RFO/linear search
 Update second derivatives using D2CorX and points    1    2
 DE= -9.90D-03 DEPred=-8.84D-03 R= 1.12D+00
 TightC=F SS=  1.41D+00  RLast= 2.21D-01 DXNew= 5.0454D-01 6.6275D-01
 Trust test= 1.12D+00 RLast= 2.21D-01 DXMaxT set to 5.05D-01
 ITU=  1  0
 Use linear search instead of GDIIS.
     Eigenvalues ---    0.01797   0.01878   0.01936   0.01955   0.02013
     Eigenvalues ---    0.02073   0.02091   0.02102   0.02136   0.02150
     Eigenvalues ---    0.02168   0.02192   0.02279   0.15845   0.16000
     Eigenvalues ---    0.16000   0.16000   0.16000   0.16000   0.16020
     Eigenvalues ---    0.20781   0.22021   0.22663   0.24632   0.24779
     Eigenvalues ---    0.34357   0.34678   0.34825   0.34854   0.35513
     Eigenvalues ---    0.35866   0.35992   0.37650   0.40170   0.42404
     Eigenvalues ---    0.43722   0.46103   0.46398   0.46547   0.46787
     Eigenvalues ---    0.49054   0.49883
 RFO step:  Lambda=-1.54007139D-03 EMin= 1.79697375D-02
 Quartic linear search produced a step of  0.21634.
 Iteration  1 RMS(Cart)=  0.01377549 RMS(Int)=  0.00019017
 Iteration  2 RMS(Cart)=  0.00020862 RMS(Int)=  0.00009180
 Iteration  3 RMS(Cart)=  0.00000003 RMS(Int)=  0.00009180
 Variable       Old X    -DE/DX   Delta X   Delta X   Delta X     New X
                                 (Linear)    (Quad)   (Total)
    R1        2.63282  -0.00872  -0.00537  -0.02016  -0.02562   2.60719
    R2        2.67649   0.00201   0.01157  -0.00226   0.00924   2.68573
    R3        2.05302   0.00009  -0.00329   0.00246  -0.00084   2.05218
    R4        2.72336   0.00768   0.02183   0.00566   0.02745   2.75081
    R5        2.05439  -0.00006  -0.00104   0.00048  -0.00056   2.05383
    R6        2.63263  -0.00531  -0.00281  -0.01231  -0.01505   2.61758
    R7        2.05465  -0.00063  -0.00102  -0.00154  -0.00256   2.05209
    R8        2.68934  -0.00236  -0.00009  -0.00772  -0.00771   2.68163
    R9        2.63375   0.00252   0.00598   0.00155   0.00758   2.64133
   R10        2.70971   0.00103   0.01166  -0.00475   0.00694   2.71665
   R11        2.66174  -0.00556  -0.01163  -0.00885  -0.02052   2.64122
   R12        2.05478  -0.00090  -0.00122  -0.00236  -0.00358   2.05120
   R13        2.56255  -0.00574  -0.01124  -0.00696  -0.01817   2.54437
   R14        1.90715   0.00051   0.00072   0.00087   0.00159   1.90875
   R15        2.67156   0.00885   0.01810   0.01043   0.02850   2.70006
   R16        2.04553   0.00086   0.00049   0.00260   0.00309   2.04861
   R17        2.04477  -0.00071   0.00045  -0.00269  -0.00224   2.04253
    A1        2.11236   0.00273   0.00047   0.01511   0.01529   2.12765
    A2        2.07815  -0.00066  -0.00050  -0.00203  -0.00240   2.07575
    A3        2.09268  -0.00208   0.00005  -0.01308  -0.01289   2.07979
    A4        2.12818  -0.00003   0.00213  -0.00100   0.00085   2.12903
    A5        2.07565   0.00156  -0.00086   0.01199   0.01123   2.08688
    A6        2.07935  -0.00153  -0.00122  -0.01098  -0.01210   2.06725
    A7        2.03668  -0.00365  -0.00278  -0.01771  -0.02059   2.01609
    A8        2.12547   0.00010   0.00167  -0.00429  -0.00260   2.12287
    A9        2.12104   0.00355   0.00112   0.02200   0.02314   2.14418
   A10        2.13947   0.00466   0.00116   0.02324   0.02439   2.16386
   A11        2.26320  -0.00094  -0.00323  -0.00099  -0.00427   2.25893
   A12        1.88051  -0.00372   0.00207  -0.02223  -0.02012   1.86039
   A13        2.09015  -0.00144   0.00448  -0.00975  -0.00526   2.08490
   A14        1.84695   0.00472  -0.00382   0.02486   0.02100   1.86796
   A15        2.34605  -0.00328  -0.00065  -0.01508  -0.01572   2.33033
   A16        2.05882  -0.00224  -0.00491  -0.00894  -0.01406   2.04476
   A17        2.11585   0.00167   0.00280   0.00839   0.01123   2.12708
   A18        2.10851   0.00057   0.00214   0.00055   0.00273   2.11125
   A19        1.92258   0.00345   0.00312   0.01557   0.01876   1.94134
   A20        2.18640  -0.00287  -0.00055  -0.01710  -0.01769   2.16871
   A21        2.17420  -0.00058  -0.00257   0.00154  -0.00107   2.17314
   A22        1.90067  -0.00242   0.00660  -0.01476  -0.00824   1.89242
   A23        2.20201   0.00273  -0.00256   0.01831   0.01578   2.21779
   A24        2.18050  -0.00031  -0.00403  -0.00353  -0.00753   2.17297
   A25        1.87406  -0.00204  -0.00796  -0.00342  -0.01139   1.86267
   A26        2.11635   0.00243   0.00363   0.01256   0.01619   2.13253
   A27        2.29278  -0.00039   0.00434  -0.00914  -0.00480   2.28798
    D1        0.03275  -0.00077  -0.01130  -0.02821  -0.03968  -0.00693
    D2       -3.10950  -0.00059  -0.00614  -0.02575  -0.03196  -3.14147
    D3       -3.10670  -0.00076  -0.00910  -0.02937  -0.03857   3.13792
    D4        0.03423  -0.00058  -0.00395  -0.02690  -0.03085   0.00339
    D5       -0.04321   0.00074   0.00990   0.02842   0.03831  -0.00491
    D6        3.09753   0.00046   0.00546   0.01884   0.02438   3.12191
    D7        3.09621   0.00073   0.00769   0.02960   0.03720   3.13341
    D8       -0.04623   0.00045   0.00325   0.02002   0.02327  -0.02296
    D9       -0.00591   0.00039   0.00625   0.01232   0.01841   0.01250
   D10        3.13592   0.00018   0.00332   0.00475   0.00813  -3.13914
   D11        3.13634   0.00021   0.00108   0.00984   0.01077  -3.13607
   D12       -0.00501  -0.00000  -0.00185   0.00226   0.00048  -0.00452
   D13       -0.00891   0.00003  -0.00017   0.00239   0.00236  -0.00656
   D14        3.13661  -0.00011  -0.00163  -0.00362  -0.00515   3.13147
   D15        3.13244   0.00024   0.00275   0.00994   0.01277  -3.13797
   D16       -0.00522   0.00010   0.00129   0.00393   0.00527   0.00005
   D17       -0.00264  -0.00007  -0.00113  -0.00121  -0.00220  -0.00485
   D18       -3.13783  -0.00015  -0.00212  -0.00535  -0.00744   3.13792
   D19        3.13577   0.00005   0.00002   0.00367   0.00385   3.13962
   D20        0.00059  -0.00004  -0.00097  -0.00047  -0.00138  -0.00079
   D21        3.13625   0.00018   0.00111   0.00791   0.00885  -3.13808
   D22       -0.00326   0.00014   0.00125   0.00574   0.00687   0.00361
   D23       -0.00186   0.00004  -0.00018   0.00252   0.00228   0.00042
   D24       -3.14137  -0.00000  -0.00005   0.00034   0.00030  -3.14107
   D25        0.02840  -0.00039  -0.00374  -0.01426  -0.01777   0.01062
   D26       -3.11235  -0.00011   0.00069  -0.00472  -0.00398  -3.11633
   D27       -3.12183  -0.00023  -0.00241  -0.00849  -0.01069  -3.13252
   D28        0.02061   0.00004   0.00202   0.00105   0.00310   0.02370
   D29        0.00082   0.00001   0.00175  -0.00166   0.00005   0.00087
   D30        3.13806   0.00010   0.00130   0.00420   0.00552  -3.13961
   D31       -3.13298  -0.00011   0.00050  -0.00677  -0.00633  -3.13930
   D32        0.00425  -0.00002   0.00005  -0.00091  -0.00085   0.00340
   D33        0.00235  -0.00003   0.00131  -0.00351  -0.00224   0.00011
   D34       -3.13815  -0.00005  -0.00009  -0.00309  -0.00318  -3.14134
   D35       -3.14130   0.00000   0.00118  -0.00138  -0.00027  -3.14158
   D36        0.00138  -0.00002  -0.00022  -0.00096  -0.00122   0.00016
   D37       -0.00196   0.00001  -0.00189   0.00322   0.00134  -0.00062
   D38        3.13839   0.00004  -0.00032   0.00277   0.00242   3.14081
   D39       -3.13926  -0.00009  -0.00145  -0.00261  -0.00403   3.13990
   D40        0.00109  -0.00006   0.00013  -0.00307  -0.00295  -0.00186
         Item               Value     Threshold  Converged?
 Maximum Force            0.008852     0.000450     NO 
 RMS     Force            0.002430     0.000300     NO 
 Maximum Displacement     0.074882     0.001800     NO 
 RMS     Displacement     0.013756     0.001200     NO 
 Predicted change in Energy=-1.093442D-03
 GradGradGradGradGradGradGradGradGradGradGradGradGradGradGradGradGradGrad

                          Input orientation:                          
 ---------------------------------------------------------------------
 Center     Atomic      Atomic             Coordinates (Angstroms)
 Number     Number       Type             X           Y           Z
 ---------------------------------------------------------------------
      1          6           0       -2.183791    0.687587    0.006098
      2          6           0       -2.153405   -0.691743    0.008042
      3          6           0       -0.902131   -1.435436   -0.005991
      4          6           0        0.249452   -0.665675   -0.005719
      5          6           0        0.254904    0.753361   -0.000600
      6          6           0       -0.994128    1.465106   -0.001368
[...]
 ! D10   D(1,2,3,14)           179.971          -DE/DX =    0.0                 !
 ! D11   D(13,2,3,4)           179.9713         -DE/DX =    0.0                 !
 ! D12   D(13,2,3,14)           -0.0258         -DE/DX =    0.0                 !
 ! D13   D(2,3,4,5)              0.0397         -DE/DX =    0.0                 !
 ! D14   D(2,3,4,7)            179.952          -DE/DX =    0.0                 !
 ! D15   D(14,3,4,5)          -179.9633         -DE/DX =    0.0                 !
 ! D16   D(14,3,4,7)            -0.0509         -DE/DX =    0.0                 !
 ! D17   D(3,4,5,6)             -0.0272         -DE/DX =    0.0                 !
 ! D18   D(3,4,5,8)            179.9108         -DE/DX =    0.0                 !
 ! D19   D(7,4,5,6)           -179.9565         -DE/DX =    0.0                 !
 ! D20   D(7,4,5,8)             -0.0184         -DE/DX =    0.0                 !
 ! D21   D(3,4,7,9)           -179.9078         -DE/DX =    0.0                 !
 ! D22   D(3,4,7,10)             0.1409         -DE/DX =    0.0                 !
 ! D23   D(5,4,7,9)              0.0165         -DE/DX =    0.0                 !
 ! D24   D(5,4,7,10)          -179.9348         -DE/DX =    0.0                 !
 ! D25   D(4,5,6,1)              0.0042         -DE/DX =    0.0                 !
 ! D26   D(4,5,6,16)          -179.9658         -DE/DX =    0.0                 !
 ! D27   D(8,5,6,1)           -179.9142         -DE/DX =    0.0                 !
 ! D28   D(8,5,6,16)             0.1159         -DE/DX =    0.0                 !
 ! D29   D(4,5,8,9)              0.0142         -DE/DX =    0.0                 !
 ! D30   D(4,5,8,11)          -179.9641         -DE/DX =    0.0                 !
 ! D31   D(6,5,8,9)            179.9398         -DE/DX =    0.0                 !
 ! D32   D(6,5,8,11)            -0.0384         -DE/DX =    0.0                 !
 ! D33   D(4,7,9,8)             -0.0077         -DE/DX =    0.0                 !
 ! D34   D(4,7,9,12)          -179.9135         -DE/DX =    0.0                 !
 ! D35   D(10,7,9,8)           179.9432         -DE/DX =    0.0                 !
 ! D36   D(10,7,9,12)            0.0375         -DE/DX =    0.0                 !
 ! D37   D(5,8,9,7)             -0.0042         -DE/DX =    0.0                 !
 ! D38   D(5,8,9,12)           179.8905         -DE/DX =    0.0                 !
 ! D39   D(11,8,9,7)           179.9748         -DE/DX =    0.0                 !
 ! D40   D(11,8,9,12)           -0.1304         -DE/DX =    0.0                 !
 --------------------------------------------------------------------------------
 GradGradGradGradGradGradGradGradGradGradGradGradGradGradGradGradGradGrad

                          Input orientation:                          
 ---------------------------------------------------------------------
 Center     Atomic      Atomic             Coordinates (Angstroms)
 Number     Number       Type             X           Y           Z
 ---------------------------------------------------------------------
      1          6           0       -2.182845    0.686939    0.003296
      2          6           0       -2.155537   -0.692328    0.002542
      3          6           0       -0.901307   -1.436719    0.000120
      4          6           0        0.247611   -0.665497   -0.002045
      5          6           0        0.253439    0.752985   -0.001191
      6          6           0       -0.993643    1.463554    0.001512
      7          7           0        1.588504   -1.070146   -0.003713
      8          6           0        1.594302    1.159660   -0.001936
      9          6           0        2.417876   -0.009054   -0.003587
     10          1           0        1.888238   -2.035032   -0.005568
     11          1           0        1.972834    2.174670   -0.001061
     12          1           0        3.493438   -0.115542   -0.006111
     13          1           0       -3.087054   -1.252456    0.003820
     14          1           0       -0.888181   -2.522157    0.000008
     15          1           0       -3.143433    1.196355    0.005238
     16          1           0       -1.020591    2.548848    0.001667
 ---------------------------------------------------------------------
                    Distance matrix (angstroms):
                    1          2          3          4          5
     1  C    0.000000
     2  C    1.379537   0.000000
     3  C    2.480377   1.458498   0.000000
     4  C    2.781407   2.403302   1.383763   0.000000
     5  C    2.437183   2.809289   2.475529   1.418494   0.000000
     6  C    1.420330   2.449046   2.901743   2.464464   1.435315
     7  N    4.160585   3.763061   2.516654   1.400620   2.259693
     8  C    3.806616   4.182244   3.601285   2.268209   1.401178
     9  C    4.653073   4.624177   3.613201   2.267371   2.294667
    10  H    4.897236   4.260873   2.852993   2.137123   3.231969
    11  H    4.413959   5.026245   4.615498   3.323092   2.231033
    12  H    5.732734   5.678351   4.589044   3.292090   3.354394
    13  H    2.139823   1.086954   2.193503   3.385933   3.896243
    14  H    3.460413   2.225864   1.085517   2.176514   3.468407
    15  H    1.087308   2.131448   3.458358   3.868556   3.425691
    16  H    2.194890   3.434141   3.987352   3.455483   2.201882
                    6          7          8          9         10
     6  C    0.000000
     7  N    3.617616   0.000000
     8  C    2.605728   2.229814   0.000000
     9  C    3.715785   1.346765   1.429744   0.000000
    10  H    4.532703   1.010371   3.208188   2.094065   0.000000
    11  H    3.050521   3.267498   1.083297   2.228613   4.210554
    12  H    4.756836   2.130739   2.287548   1.080823   2.502221
    13  H    3.429152   4.679117   5.266253   5.643612   5.036471
    14  H    3.987106   2.870943   4.440551   4.152796   2.818833
    15  H    2.166335   5.246745   4.737882   5.690453   5.979941
    16  H    1.085628   4.461448   2.961000   4.285551   5.428931
                   11         12         13         14         15
    11  H    0.000000
    12  H    2.749060   0.000000
    13  H    6.111275   6.677989   0.000000
    14  H    5.499598   4.999041   2.539134   0.000000
    15  H    5.208966   6.765298   2.449460   4.348968   0.000000
    16  H    3.016722   5.241707   4.326682   5.072733   2.517083
                   16
    16  H    0.000000
 Stoichiometry    C8H7N
 Framework group  C1[X(C8H7N)]
 Deg. of freedom    42
 Full point group                 C1      NOp   1
 Largest Abelian subgroup         C1      NOp   1
 Largest concise Abelian subgroup C1      NOp   1
                         Standard orientation:                         
 ---------------------------------------------------------------------
 Center     Atomic      Atomic             Coordinates (Angstroms)
 Number     Number       Type             X           Y           Z
 ---------------------------------------------------------------------
      1          6           0       -2.196417    0.641959    0.000203
      2          6           0       -2.141403   -0.736481    0.000288
      3          6           0       -0.872469   -1.455524    0.000178
      4          6           0        0.260725   -0.661375   -0.000712
      5          6           0        0.238052    0.756938   -0.000671
      6          6           0       -1.023056    1.442309   -0.000248
      7          7           0        1.609477   -1.039003   -0.000136
      8          6           0        1.570473    1.190470    0.000359
      9          6           0        2.417363    0.038538    0.000619
     10          1           0        1.928539   -1.997673   -0.000982
     11          1           0        1.928536    2.212880    0.001213
     12          1           0        3.494850   -0.046320   -0.000231
     13          1           0       -3.061480   -1.315210    0.000495
     14          1           0       -0.837538   -2.540478    0.000715
     15          1           0       -3.167048    1.131974    0.000410
     16          1           0       -1.071804    2.526842   -0.000763
 ---------------------------------------------------------------------
 Rotational constants (GHZ):           3.8567133           1.6129655           1.1373147

 **********************************************************************

            Population analysis using the CI Density.

 **********************************************************************

 Orbital symmetries:
       Occupied  (A) (A) (A) (A) (A) (A) (A) (A) (A) (A) (A) (A)
                 (A) (A) (A) (A) (A) (A) (A) (A) (A) (A) (A) (A)
                 (A) (A) (A) (A) (A) (A) (A)
       Virtual   (A) (A) (A) (A) (A) (A) (A) (A) (A) (A) (A) (A)
                 (A) (A) (A) (A) (A) (A) (A) (A) (A) (A) (A) (A)
                 (A) (A) (A) (A) (A) (A) (A) (A) (A) (A) (A) (A)
                 (A) (A) (A) (A) (A) (A) (A) (A) (A) (A) (A) (A)
                 (A) (A) (A) (A) (A) (A) (A) (A) (A) (A) (A) (A)
                 (A) (A) (A) (A) (A) (A) (A) (A) (A) (A) (A) (A)
                 (A) (A) (A) (A) (A) (A) (A) (A) (A) (A) (A) (A)
                 (A) (A) (A) (A) (A) (A) (A) (A) (A) (A) (A) (A)
                 (A) (A) (A) (A) (A) (A) (A) (A) (A) (A) (A) (A)
                 (A) (A) (A) (A) (A) (A) (A) (A) (A) (A) (A) (A)
                 (A) (A) (A) (A) (A) (A) (A) (A) (A) (A) (A) (A)
                 (A) (A) (A) (A) (A) (A) (A) (A) (A) (A) (A) (A)
                 (A) (A) (A) (A) (A) (A) (A) (A) (A) (A)
 The electronic state is 1-A.
 Alpha  occ. eigenvalues --  -14.46691 -10.31649 -10.30852 -10.28537 -10.27925
 Alpha  occ. eigenvalues --  -10.27667 -10.27489 -10.27099 -10.26232  -1.11957
 Alpha  occ. eigenvalues --   -0.97003  -0.90988  -0.87151  -0.83544  -0.75139
 Alpha  occ. eigenvalues --   -0.71873  -0.69767  -0.65673  -0.59782  -0.58510
 Alpha  occ. eigenvalues --   -0.54806  -0.54161  -0.54089  -0.51026  -0.49871
 Alpha  occ. eigenvalues --   -0.45106  -0.44624  -0.44459  -0.37630  -0.32238
 Alpha  occ. eigenvalues --   -0.27870
 Alpha virt. eigenvalues --    0.04551   0.06527   0.08358   0.08884   0.09873
 Alpha virt. eigenvalues --    0.10070   0.10472   0.11939   0.12385   0.12893
 Alpha virt. eigenvalues --    0.12925   0.13390   0.15352   0.15806   0.16780
 Alpha virt. eigenvalues --    0.16852   0.17861   0.19547   0.20535   0.20649
 Alpha virt. eigenvalues --    0.22021   0.22343   0.23268   0.23896   0.24136
 Alpha virt. eigenvalues --    0.25164   0.25649   0.25934   0.26497   0.27149
 Alpha virt. eigenvalues --    0.27673   0.28794   0.28839   0.29501   0.30391
 Alpha virt. eigenvalues --    0.30653   0.30879   0.31440   0.32397   0.33389
 Alpha virt. eigenvalues --    0.34213   0.34574   0.36171   0.37331   0.38225
 Alpha virt. eigenvalues --    0.39550   0.40018   0.41584   0.43523   0.44727
 Alpha virt. eigenvalues --    0.46701   0.48270   0.52487   0.54999   0.61470
 Alpha virt. eigenvalues --    0.67935   0.71218   0.77317   0.77681   0.80140
 Alpha virt. eigenvalues --    0.82094   0.82719   0.83363   0.83732   0.84600
 Alpha virt. eigenvalues --    0.85990   0.86989   0.87979   0.89529   0.89701
 Alpha virt. eigenvalues --    0.91763   0.95746   0.99501   1.00241   1.01666
 Alpha virt. eigenvalues --    1.05092   1.05340   1.06205   1.06800   1.09419
 Alpha virt. eigenvalues --    1.10616   1.13573   1.15451   1.16954   1.19445
 Alpha virt. eigenvalues --    1.21737   1.23150   1.27946   1.28238   1.31520
 Alpha virt. eigenvalues --    1.32823   1.34286   1.35335   1.42566   1.42572
 Alpha virt. eigenvalues --    1.45171   1.46763   1.51125   1.51640   1.54733
 Alpha virt. eigenvalues --    1.57548   1.57798   1.59881   1.60656   1.65069
 Alpha virt. eigenvalues --    1.69152   1.74237   1.88853   1.91927   1.99283
 Alpha virt. eigenvalues --    2.00542   2.01758   2.04538   2.10043   2.10667
 Alpha virt. eigenvalues --    2.11052   2.13876   2.17241   2.23082   2.25964
 Alpha virt. eigenvalues --    2.26501   2.30198   2.32606   2.35016   2.38134
 Alpha virt. eigenvalues --    2.38345   2.41734   2.47433   2.51142   2.56330
 Alpha virt. eigenvalues --    2.63257   2.66189   2.72158   2.75021   2.75927
 Alpha virt. eigenvalues --    2.77498   2.83435   2.90263   2.93880   2.95492
 Alpha virt. eigenvalues --    3.05683   3.08183   3.19622   3.34624   3.50944
 Alpha virt. eigenvalues --    4.26660   4.36403   4.39976   4.43305   4.47923
 Alpha virt. eigenvalues --    4.52448   4.59694   4.63570   4.89327
          Condensed to atoms (all electrons):
               1          2          3          4          5          6
     1  C    5.400239   0.491156   0.296839  -0.381422  -0.136606  -0.034604
     2  C    0.491156   5.716908  -0.379975   0.301722  -0.316286   0.472903
     3  C    0.296839  -0.379975  12.204951  -1.413976  -3.510342  -2.352722
     4  C   -0.381422   0.301722  -1.413976  11.243775  -2.773149  -1.139297
     5  C   -0.136606  -0.316286  -3.510342  -2.773149  13.231613   0.329341
     6  C   -0.034604   0.472903  -2.352722  -1.139297   0.329341  11.291955
     7  N   -0.012611   0.014355  -0.517025  -0.164305   0.777654   0.100179
     8  C    0.162380  -0.312099   2.718000   1.655065  -4.240628  -3.047817
     9  C   -0.078304   0.044321  -0.906711  -0.619850   1.465617   0.794966
    10  H   -0.003294  -0.002770  -0.121758  -0.061851   0.154365   0.021949
    11  H    0.002892   0.000813   0.002307   0.022639  -0.010729  -0.003588
    12  H    0.000905  -0.000217   0.019884   0.058754  -0.056522  -0.013783
    13  H   -0.003740   0.313985  -0.030159   0.015801   0.005661   0.013218
    14  H    0.017733   0.014213   0.286867  -0.005583   0.006056  -0.010558
    15  H    0.306724   0.001219   0.016837  -0.013386   0.027639  -0.027694
    16  H   -0.017527   0.014447  -0.031827   0.049844   0.052839   0.289025
               7          8          9         10         11         12
     1  C   -0.012611   0.162380  -0.078304  -0.003294   0.002892   0.000905
     2  C    0.014355  -0.312099   0.044321  -0.002770   0.000813  -0.000217
     3  C   -0.517025   2.718000  -0.906711  -0.121758   0.002307   0.019884
     4  C   -0.164305   1.655065  -0.619850  -0.061851   0.022639   0.058754
     5  C    0.777654  -4.240628   1.465617   0.154365  -0.010729  -0.056522
     6  C    0.100179  -3.047817   0.794966   0.021949  -0.003588  -0.013783
     7  N    7.135828  -0.648081   0.531206   0.283124   0.007227  -0.046729
     8  C   -0.648081  10.783185  -1.515585  -0.022582   0.333650   0.013399
     9  C    0.531206  -1.515585   6.276976  -0.003051  -0.042276   0.348913
    10  H    0.283124  -0.022582  -0.003051   0.307141  -0.000061  -0.001690
    11  H    0.007227   0.333650  -0.042276  -0.000061   0.451086  -0.000301
    12  H   -0.046729   0.013399   0.348913  -0.001690  -0.000301   0.437200
    13  H   -0.000236  -0.001024   0.001142  -0.000001   0.000000  -0.000000
    14  H   -0.000355  -0.010604   0.010309   0.001576   0.000002   0.000002
    15  H    0.000181   0.002783   0.000076  -0.000000  -0.000001  -0.000000
    16  H   -0.000665  -0.053219   0.004167   0.000003   0.001181  -0.000001
              13         14         15         16
     1  C   -0.003740   0.017733   0.306724  -0.017527
     2  C    0.313985   0.014213   0.001219   0.014447
     3  C   -0.030159   0.286867   0.016837  -0.031827
     4  C    0.015801  -0.005583  -0.013386   0.049844
     5  C    0.005661   0.006056   0.027639   0.052839
     6  C    0.013218  -0.010558  -0.027694   0.289025
     7  N   -0.000236  -0.000355   0.000181  -0.000665
     8  C   -0.001024  -0.010604   0.002783  -0.053219
     9  C    0.001142   0.010309   0.000076   0.004167
    10  H   -0.000001   0.001576  -0.000000   0.000003
    11  H    0.000000   0.000002  -0.000001   0.001181
    12  H   -0.000000   0.000002  -0.000000  -0.000001
    13  H    0.495218  -0.002493  -0.003589  -0.000111
    14  H   -0.002493   0.491304  -0.000103   0.000010
    15  H   -0.003589  -0.000103   0.498234  -0.002642
    16  H   -0.000111   0.000010  -0.002642   0.490492
 Mulliken charges:
               1
     1  C   -0.010759
     2  C   -0.374695
     3  C   -0.281190
     4  C   -0.774782
     5  C    0.993478
     6  C   -0.683473
     7  N   -0.459744
     8  C    0.183176
     9  C   -0.311917
    10  H    0.448899
    11  H    0.235159
    12  H    0.240187
    13  H    0.196330
    14  H    0.201625
    15  H    0.193724
    16  H    0.203983
 Sum of Mulliken charges =   0.00000
 Mulliken charges with hydrogens summed into heavy atoms:
               1
     1  C    0.182965
     2  C   -0.178364
     3  C   -0.079565
     4  C   -0.774782
     5  C    0.993478
     6  C   -0.479490
     7  N   -0.010845
     8  C    0.418334
     9  C   -0.071730
 Electronic spatial extent (au):  <R**2>=           1022.2034
 Charge=             -0.0000 electrons
 Dipole moment (field-independent basis, Debye):
    X=              3.8711    Y=             -1.5548    Z=             -0.0027  Tot=              4.1717
 Quadrupole moment (field-independent basis, Debye-Ang):
   XX=            -44.6312   YY=            -46.0506   ZZ=            -60.6308
   XY=             -2.5511   XZ=             -0.0083   YZ=              0.0022
 Traceless Quadrupole moment (field-independent basis, Debye-Ang):
   XX=              5.8063   YY=              4.3870   ZZ=            -10.1933
   XY=             -2.5511   XZ=             -0.0083   YZ=              0.0022
 Octapole moment (field-independent basis, Debye-Ang**2):
  XXX=             26.3215  YYY=            -10.4290  ZZZ=             -0.0148  XYY=             14.1842
  XXY=             -7.6937  XXZ=             -0.0173  XZZ=              4.5276  YZZ=             -1.9574
  YYZ=             -0.0052  XYZ=              0.0152
 Hexadecapole moment (field-independent basis, Debye-Ang**3):
 XXXX=           -838.3692 YYYY=           -391.8992 ZZZZ=            -85.1926 XXXY=            -19.8015
 XXXZ=             -0.0950 YYYX=            -15.8557 YYYZ=             -0.0036 ZZZX=             -0.0301
 ZZZY=              0.0007 XXYY=           -197.3774 XXZZ=           -201.0441 YYZZ=           -103.3907
 XXYZ=              0.0181 YYXZ=             -0.0128 ZZXY=             -2.2492
 N-N= 3.980971823020D+02 E-N=-1.638018114767D+03  KE= 3.601067020939D+02
 Unable to Open any file for archive entry.
 1\1\GINC-EXP-5-27\FOpt\RwB97X TD-FC\6-31+G(d)\C8H7N1\SCAPARAS\09-Jun-2
 021\0\\# td= (nstates=6, root=2) WB97X/6-31+G* Opt density=current\\Fu
 ncsWB97X\\0,1\C,-2.1828447624,0.6869385474,0.0032962255\C,-2.155536991
 2,-0.6923280162,0.0025415513\C,-0.9013069686,-1.4367194152,0.000120053
 6\C,0.2476108207,-0.6654969046,-0.0020453109\C,0.253438566,0.752984734
 6,-0.0011914558\C,-0.9936428077,1.4635542409,0.0015120207\N,1.58850374
 84,-1.0701459702,-0.0037129371\C,1.5943016537,1.1596597945,-0.00193593
 78\C,2.4178762025,-0.0090535636,-0.0035872058\H,1.8882378125,-2.035032
 0749,-0.0055679062\H,1.9728342263,2.1746696227,-0.0010610345\H,3.49343
 75148,-0.1155420263,-0.006110955\H,-3.0870540696,-1.2524555831,0.00381
 9687\H,-0.8881805155,-2.5221566273,0.0000083594\H,-3.1434331701,1.1963
 55455,0.0052379291\H,-1.0205912599,2.5488477865,0.0016669164\\Version=
 AS64L-G16RevC.01\State=1-A\HF=-363.7170435\RMSD=5.848e-09\RMSF=1.930e-
 05\Dipole=1.5230251,-0.611715,-0.0010608\Quadrupole=4.3168599,3.261602
 8,-7.5784627,-1.8966778,-0.0061913,0.0016697\PG=C01 [X(C8H7N1)]\\@
 The archive entry for this job was punched.


 ADVERTISING--  HE WHO HAS SOMETHING TO SELL AND GOES AND WHISPERS
                IN A WELL, IS NOT SO APT TO GET THE DOLLARS AS HE
                WHO CLIMBS A TREE AND HOLLERS.

                   -- FROM THE BACK OF A SUGAR PACKET
 Job cpu time:       0 days  3 hours 50 minutes 26.3 seconds.
 Elapsed time:       0 days  0 hours 58 minutes  1.3 seconds.
 File lengths (MBytes):  RWF=    238 Int=      0 D2E=      0 Chk=     16 Scr=      1
 Normal termination of Gaussian 16 at Wed Jun  9 08:36:24 2021.
