 Entering Gaussian System, Link 0=/cm/shared/apps/spack/cpu/opt/spack/linux-centos8-zen/gcc-8.3.1/gaussian-16.C.01-po5bqktfeugvmjyga3v7eigbecnokxng/g16/g16
 Initial command:
 /cm/shared/apps/spack/cpu/opt/spack/linux-centos8-zen/gcc-8.3.1/gaussian-16.C.01-po5bqktfeugvmjyga3v7eigbecnokxng/g16/l1.exe "/scratch/scaparas/job_3351591/Gau-67687.inp" -scrdir="/scratch/scaparas/job_3351591/"
 Entering Link 1 = /cm/shared/apps/spack/cpu/opt/spack/linux-centos8-zen/gcc-8.3.1/gaussian-16.C.01-po5bqktfeugvmjyga3v7eigbecnokxng/g16/l1.exe PID=     67688.
  
 Copyright (c) 1988-2019, Gaussian, Inc.  All Rights Reserved.
  
 This is part of the Gaussian(R) 16 program.  It is based on
 the Gaussian(R) 09 system (copyright 2009, Gaussian, Inc.),
 the Gaussian(R) 03 system (copyright 2003, Gaussian, Inc.),
 the Gaussian(R) 98 system (copyright 1998, Gaussian, Inc.),
 the Gaussian(R) 94 system (copyright 1995, Gaussian, Inc.),
 the Gaussian 92(TM) system (copyright 1992, Gaussian, Inc.),
 the Gaussian 90(TM) system (copyright 1990, Gaussian, Inc.),
 the Gaussian 88(TM) system (copyright 1988, Gaussian, Inc.),
 the Gaussian 86(TM) system (copyright 1986, Carnegie Mellon
 University), and the Gaussian 82(TM) system (copyright 1983,
 Carnegie Mellon University). Gaussian is a federally registered
 trademark of Gaussian, Inc.
  
 This software contains proprietary and confidential information,
 including trade secrets, belonging to Gaussian, Inc.
  
 This software is provided under written license and may be
 used, copied, transmitted, or stored only in accord with that
 written license.
  
 The following legend is applicable only to US Government
 contracts under FAR:
  
                    RESTRICTED RIGHTS LEGEND
  
 Use, reproduction and disclosure by the US Government is
 subject to restrictions as set forth in subparagraphs (a)
 and (c) of the Commercial Computer Software - Restricted
 Rights clause in FAR 52.227-19.
  
 Gaussian, Inc.
 340 Quinnipiac St., Bldg. 40, Wallingford CT 06492
  
  
 ---------------------------------------------------------------
 Warning -- This program may not be used in any manner that
 competes with the business of Gaussian, Inc. or will provide
 assistance to any competitor of Gaussian, Inc.  The licensee
 of this program is prohibited from giving any competitor of
 Gaussian, Inc. access to this program.  By using this program,
 the user acknowledges that Gaussian, Inc. is engaged in the
 business of creating and licensing software in the field of
 computational chemistry and represents and warrants to the
 licensee that it is not a competitor of Gaussian, Inc. and that
 it will not use this program in any manner prohibited above.
 ---------------------------------------------------------------
  

 Cite this work as:
 Gaussian 16, Revision C.01,
 M. J. Frisch, G. W. Trucks, H. B. Schlegel, G. E. Scuseria, 
 M. A. Robb, J. R. Cheeseman, G. Scalmani, V. Barone, 
 G. A. Petersson, H. Nakatsuji, X. Li, M. Caricato, A. V. Marenich, 
 J. Bloino, B. G. Janesko, R. Gomperts, B. Mennucci, H. P. Hratchian, 
 J. V. Ortiz, A. F. Izmaylov, J. L. Sonnenberg, D. Williams-Young, 
 F. Ding, F. Lipparini, F. Egidi, J. Goings, B. Peng, A. Petrone, 
 T. Henderson, D. Ranasinghe, V. G. Zakrzewski, J. Gao, N. Rega, 
 G. Zheng, W. Liang, M. Hada, M. Ehara, K. Toyota, R. Fukuda, 
 J. Hasegawa, M. Ishida, T. Nakajima, Y. Honda, O. Kitao, H. Nakai, 
 T. Vreven, K. Throssell, J. A. Montgomery, Jr., J. E. Peralta, 
 F. Ogliaro, M. J. Bearpark, J. J. Heyd, E. N. Brothers, K. N. Kudin, 
 V. N. Staroverov, T. A. Keith, R. Kobayashi, J. Normand, 
 K. Raghavachari, A. P. Rendell, J. C. Burant, S. S. Iyengar, 
 J. Tomasi, M. Cossi, J. M. Millam, M. Klene, C. Adamo, R. Cammi, 
 J. W. Ochterski, R. L. Martin, K. Morokuma, O. Farkas, 
 J. B. Foresman, and D. J. Fox, Gaussian, Inc., Wallingford CT, 2019.
 
 ******************************************
 Gaussian 16:  AS64L-G16RevC.01  3-Jul-2019
                11-Jun-2021 
 ******************************************
 %nprocshared=4
 Will use up to    4 processors via shared memory.
 %chk=FuncsM062XII1st.chk
 %Mem=3GB
 -----------------------------------------------------------
 # td= (nstates=6, root=1) M062X/6-31+G* Opt density=current
 -----------------------------------------------------------
 1/18=20,19=15,26=3,38=1/1,3;
 2/9=110,12=2,17=6,18=5,40=1/2;
 3/5=1,6=6,7=11,11=9,25=1,30=1,71=1,74=-55/1,2,3,8;
 4//1;
 5/5=2,38=5/2;
 8/6=1,10=2,107=1,108=6/1;
 9/8=1,15=2,41=6,42=1,70=2/14;
 10/5=4,28=1/2;
 6/7=2,8=2,9=2,10=2,22=-1/1;
 7/12=6,13=5,14=1/1,2,3,16;
 1/18=20,19=15,26=3/3(2);
 2/9=110/2;
 99//99;
 2/9=110/2;
 3/5=1,6=6,7=11,11=9,25=1,30=1,71=1,74=-55/1,2,3,8;
 4/5=5,16=3,69=1/1;
 5/5=2,38=5/2;
 8/6=1,10=2,107=1,108=6/1;
 9/8=1,15=2,41=6,42=1,49=4,70=2/14;
 10/5=4,28=1/2;
 7/12=6,13=5,14=1/1,2,3,16;
 1/18=20,19=15,26=3/3(-8);
 2/9=110/2;
 6/7=2,8=2,9=2,10=2,22=-1/1;
 99/9=10/99;
 ---------------
 FuncsM062XII1st
 ---------------
 Symbolic Z-matrix:
 Charge =  0 Multiplicity = 1
 C                    -2.15106   0.68921   0.00009 
 C                    -2.12793  -0.71582   0.00008 
 C                    -0.9323   -1.4131   -0.00001 
 C                     0.24691  -0.6702   -0.00004 
 C                     0.24819   0.7483    0. 
 C                    -0.97947   1.42353   0.00003 
 N                     1.56177  -1.07759  -0.00029 
 C                     1.62013   1.1629   -0.00016 
 C                     2.38201   0.03081   0.00025 
 H                     1.87632  -2.03001   0.00044 
 H                     1.99217   2.17301  -0.00035 
 H                     3.45255  -0.08243   0.00041 
 H                    -3.06159  -1.26202   0.00009 
 H                    -0.91725  -2.49534  -0.00007 
 H                    -3.1042    1.20079   0.00009 
 H                    -1.00935   2.50542  -0.00002 
 

 GradGradGradGradGradGradGradGradGradGradGradGradGradGradGradGradGradGrad
 Berny optimization.
 Initialization pass.
                           ----------------------------
                           !    Initial Parameters    !
                           ! (Angstroms and Degrees)  !
 --------------------------                            --------------------------
 ! Name  Definition              Value          Derivative Info.                !
 --------------------------------------------------------------------------------
 ! R1    R(1,2)                  1.4052         estimate D2E/DX2                !
 ! R2    R(1,6)                  1.3827         estimate D2E/DX2                !
 ! R3    R(1,15)                 1.0818         estimate D2E/DX2                !
 ! R4    R(2,3)                  1.3841         estimate D2E/DX2                !
 ! R5    R(2,13)                 1.0817         estimate D2E/DX2                !
 ! R6    R(3,4)                  1.3937         estimate D2E/DX2                !
 ! R7    R(3,14)                 1.0823         estimate D2E/DX2                !
 ! R8    R(4,5)                  1.4185         estimate D2E/DX2                !
 ! R9    R(4,7)                  1.3765         estimate D2E/DX2                !
 ! R10   R(5,6)                  1.4011         estimate D2E/DX2                !
 ! R11   R(5,8)                  1.4332         estimate D2E/DX2                !
 ! R12   R(6,16)                 1.0823         estimate D2E/DX2                !
 ! R13   R(7,9)                  1.3789         estimate D2E/DX2                !
 ! R14   R(7,10)                 1.003          estimate D2E/DX2                !
 ! R15   R(8,9)                  1.3646         estimate D2E/DX2                !
 ! R16   R(8,11)                 1.0764         estimate D2E/DX2                !
 ! R17   R(9,12)                 1.0765         estimate D2E/DX2                !
 ! A1    A(2,1,6)              121.1349         estimate D2E/DX2                !
 ! A2    A(2,1,15)             119.1671         estimate D2E/DX2                !
 ! A3    A(6,1,15)             119.698          estimate D2E/DX2                !
 ! A4    A(1,2,3)              121.1938         estimate D2E/DX2                !
 ! A5    A(1,2,13)             119.3846         estimate D2E/DX2                !
 ! A6    A(3,2,13)             119.4217         estimate D2E/DX2                !
 ! A7    A(2,3,4)              117.5387         estimate D2E/DX2                !
 ! A8    A(2,3,14)             121.0469         estimate D2E/DX2                !
 ! A9    A(4,3,14)             121.4144         estimate D2E/DX2                !
 ! A10   A(3,4,5)              122.2626         estimate D2E/DX2                !
 ! A11   A(3,4,7)              130.5743         estimate D2E/DX2                !
 ! A12   A(5,4,7)              107.163          estimate D2E/DX2                !
 ! A13   A(4,5,6)              118.7594         estimate D2E/DX2                !
 ! A14   A(4,5,8)              106.8666         estimate D2E/DX2                !
 ! A15   A(6,5,8)              134.374          estimate D2E/DX2                !
 ! A16   A(1,6,5)              119.1105         estimate D2E/DX2                !
 ! A17   A(1,6,16)             120.4966         estimate D2E/DX2                !
 ! A18   A(5,6,16)             120.3928         estimate D2E/DX2                !
 ! A19   A(4,7,9)              109.2874         estimate D2E/DX2                !
 ! A20   A(4,7,10)             125.4909         estimate D2E/DX2                !
 ! A21   A(9,7,10)             125.2217         estimate D2E/DX2                !
 ! A22   A(5,8,9)              107.125          estimate D2E/DX2                !
 ! A23   A(5,8,11)             127.0344         estimate D2E/DX2                !
 ! A24   A(9,8,11)             125.8405         estimate D2E/DX2                !
 ! A25   A(7,9,8)              109.5578         estimate D2E/DX2                !
 ! A26   A(7,9,12)             120.4645         estimate D2E/DX2                !
 ! A27   A(8,9,12)             129.9776         estimate D2E/DX2                !
 ! D1    D(6,1,2,3)             -0.0008         estimate D2E/DX2                !
 ! D2    D(6,1,2,13)          -179.9981         estimate D2E/DX2                !
 ! D3    D(15,1,2,3)           179.996          estimate D2E/DX2                !
 ! D4    D(15,1,2,13)           -0.0013         estimate D2E/DX2                !
 ! D5    D(2,1,6,5)             -0.0018         estimate D2E/DX2                !
 ! D6    D(2,1,6,16)           179.9965         estimate D2E/DX2                !
 ! D7    D(15,1,6,5)          -179.9986         estimate D2E/DX2                !
 ! D8    D(15,1,6,16)           -0.0003         estimate D2E/DX2                !
 ! D9    D(1,2,3,4)              0.002          estimate D2E/DX2                !
 ! D10   D(1,2,3,14)          -179.9968         estimate D2E/DX2                !
 ! D11   D(13,2,3,4)           179.9992         estimate D2E/DX2                !
 ! D12   D(13,2,3,14)            0.0005         estimate D2E/DX2                !
 ! D13   D(2,3,4,5)             -0.0005         estimate D2E/DX2                !
 ! D14   D(2,3,4,7)           -179.9911         estimate D2E/DX2                !
 ! D15   D(14,3,4,5)           179.9982         estimate D2E/DX2                !
 ! D16   D(14,3,4,7)             0.0076         estimate D2E/DX2                !
 ! D17   D(3,4,5,6)             -0.002          estimate D2E/DX2                !
 ! D18   D(3,4,5,8)           -179.9955         estimate D2E/DX2                !
 ! D19   D(7,4,5,6)            179.9905         estimate D2E/DX2                !
 ! D20   D(7,4,5,8)             -0.003          estimate D2E/DX2                !
 ! D21   D(3,4,7,9)           -179.98           estimate D2E/DX2                !
 ! D22   D(3,4,7,10)            -0.0649         estimate D2E/DX2                !
 ! D23   D(5,4,7,9)              0.0284         estimate D2E/DX2                !
 ! D24   D(5,4,7,10)           179.9434         estimate D2E/DX2                !
 ! D25   D(4,5,6,1)              0.0031         estimate D2E/DX2                !
 ! D26   D(4,5,6,16)          -179.9951         estimate D2E/DX2                !
 ! D27   D(8,5,6,1)            179.9944         estimate D2E/DX2                !
 ! D28   D(8,5,6,16)            -0.0038         estimate D2E/DX2                !
 ! D29   D(4,5,8,9)             -0.0234         estimate D2E/DX2                !
 ! D30   D(4,5,8,11)           179.9883         estimate D2E/DX2                !
 ! D31   D(6,5,8,9)            179.9846         estimate D2E/DX2                !
 ! D32   D(6,5,8,11)            -0.0037         estimate D2E/DX2                !
 ! D33   D(4,7,9,8)             -0.0444         estimate D2E/DX2                !
 ! D34   D(4,7,9,12)           179.9847         estimate D2E/DX2                !
 ! D35   D(10,7,9,8)          -179.9597         estimate D2E/DX2                !
 ! D36   D(10,7,9,12)            0.0693         estimate D2E/DX2                !
 ! D37   D(5,8,9,7)              0.0414         estimate D2E/DX2                !
 ! D38   D(5,8,9,12)          -179.9913         estimate D2E/DX2                !
 ! D39   D(11,8,9,7)          -179.9702         estimate D2E/DX2                !
 ! D40   D(11,8,9,12)           -0.0029         estimate D2E/DX2                !
 --------------------------------------------------------------------------------
 Trust Radius=3.00D-01 FncErr=1.00D-07 GrdErr=1.00D-06 EigMax=2.50D+02 EigMin=1.00D-04
 Number of steps in this run=     94 maximum allowed number of steps=    100.
 GradGradGradGradGradGradGradGradGradGradGradGradGradGradGradGradGradGrad

                          Input orientation:                          
 ---------------------------------------------------------------------
 Center     Atomic      Atomic             Coordinates (Angstroms)
 Number     Number       Type             X           Y           Z
 ---------------------------------------------------------------------
      1          6           0       -2.151063    0.689208    0.000088
      2          6           0       -2.127927   -0.715818    0.000075
      3          6           0       -0.932297   -1.413100   -0.000011
      4          6           0        0.246911   -0.670201   -0.000042
      5          6           0        0.248193    0.748299    0.000000
      6          6           0       -0.979474    1.423526    0.000032
      7          7           0        1.561774   -1.077592   -0.000285
      8          6           0        1.620133    1.162900   -0.000157
      9          6           0        2.382013    0.030806    0.000248
     10          1           0        1.876315   -2.030011    0.000438
     11          1           0        1.992173    2.173010   -0.000348
     12          1           0        3.452549   -0.082425    0.000408
     13          1           0       -3.061594   -1.262020    0.000088
     14          1           0       -0.917252   -2.495342   -0.000073
     15          1           0       -3.104203    1.200785    0.000090
     16          1           0       -1.009348    2.505421   -0.000015
 ---------------------------------------------------------------------
                    Distance matrix (angstroms):
                    1          2          3          4          5
     1  C    0.000000
     2  C    1.405216   0.000000
     3  C    2.430039   1.384100   0.000000
     4  C    2.756496   2.375276   1.393711   0.000000
     5  C    2.399984   2.790983   2.462763   1.418501   0.000000
     6  C    1.382694   2.428114   2.837018   2.426461   1.401106
     7  N    4.111781   3.707395   2.516536   1.376529   2.249305
     8  C    3.800829   4.192557   3.626386   2.290414   1.433218
     9  C    4.580641   4.571324   3.615178   2.247236   2.251218
    10  H    4.859416   4.214387   2.875566   2.122273   3.220216
    11  H    4.400917   5.031953   4.627387   3.336134   2.251948
    12  H    5.656491   5.616307   4.582311   3.259079   3.310287
    13  H    2.153220   1.081698   2.134650   3.361020   3.872476
    14  H    3.415208   2.152310   1.082347   2.164813   3.446661
    15  H    1.081752   2.150926   3.398466   3.838040   3.382795
    16  H    2.145261   3.409927   3.919278   3.415079   2.160761
                    6          7          8          9         10
     6  C    0.000000
     7  N    3.565604   0.000000
     8  C    2.612639   2.241252   0.000000
     9  C    3.638580   1.378890   1.364587   0.000000
    10  H    4.481345   1.003015   3.203172   2.121956   0.000000
    11  H    3.064704   3.278972   1.076446   2.177387   4.204618
    12  H    4.680888   2.136677   2.215532   1.076508   2.505515
    13  H    3.398144   4.627045   5.272457   5.595021   4.997275
    14  H    3.919362   2.855798   4.452085   4.155307   2.832058
    15  H    2.136372   5.192528   4.724488   5.609583   5.936632
    16  H    1.082307   4.410062   2.952378   4.198220   5.375611
                   11         12         13         14         15
    11  H    0.000000
    12  H    2.686947   0.000000
    13  H    6.110646   6.620083   0.000000
    14  H    5.500751   4.991726   2.473719   0.000000
    15  H    5.188282   6.681139   2.463174   4.294661   0.000000
    16  H    3.019872   5.158049   4.290143   5.001611   2.467892
                   16
    16  H    0.000000
 Stoichiometry    C8H7N
 Framework group  C1[X(C8H7N)]
 Deg. of freedom    42
 Full point group                 C1      NOp   1
 Largest Abelian subgroup         C1      NOp   1
 Largest concise Abelian subgroup C1      NOp   1
                         Standard orientation:                         
 ---------------------------------------------------------------------
 Center     Atomic      Atomic             Coordinates (Angstroms)
 Number     Number       Type             X           Y           Z
 ---------------------------------------------------------------------
      1          6           0       -2.151063    0.689208    0.000088
      2          6           0       -2.127927   -0.715818    0.000075
      3          6           0       -0.932297   -1.413100   -0.000011
      4          6           0        0.246911   -0.670201   -0.000042
      5          6           0        0.248193    0.748299    0.000000
      6          6           0       -0.979474    1.423526    0.000032
      7          7           0        1.561774   -1.077592   -0.000285
      8          6           0        1.620133    1.162900   -0.000157
      9          6           0        2.382013    0.030806    0.000248
     10          1           0        1.876315   -2.030011    0.000438
     11          1           0        1.992173    2.173010   -0.000348
     12          1           0        3.452549   -0.082425    0.000408
     13          1           0       -3.061594   -1.262020    0.000088
     14          1           0       -0.917252   -2.495342   -0.000073
     15          1           0       -3.104203    1.200785    0.000090
     16          1           0       -1.009348    2.505421   -0.000015
 ---------------------------------------------------------------------
 Rotational constants (GHZ):           3.9080822           1.6429452           1.1566805
 Standard basis: 6-31+G(d) (6D, 7F)
 There are   185 symmetry adapted cartesian basis functions of A   symmetry.
 There are   185 symmetry adapted basis functions of A   symmetry.
   185 basis functions,   316 primitive gaussians,   185 cartesian basis functions
    31 alpha electrons       31 beta electrons
       nuclear repulsion energy       401.3368668897 Hartrees.
 NAtoms=   16 NActive=   16 NUniq=   16 SFac= 1.00D+00 NAtFMM=   60 NAOKFM=F Big=F
 Integral buffers will be    131072 words long.
 Regular integral format.
 Two-electron integral symmetry is turned on.
 One-electron integrals computed using PRISM.
 NBasis=   185 RedAO= T EigKep=  1.26D-06  NBF=   185
 NBsUse=   185 1.00D-06 EigRej= -1.00D+00 NBFU=   185
 ExpMin= 4.38D-02 ExpMax= 4.17D+03 ExpMxC= 6.27D+02 IAcc=3 IRadAn=         5 AccDes= 0.00D+00
 Harris functional with IExCor= 1009 and IRadAn=       5 diagonalized for initial guess.
 HarFok:  IExCor= 1009 AccDes= 0.00D+00 IRadAn=         5 IDoV= 1 UseB2=F ITyADJ=14
 ICtDFT=  3500011 ScaDFX=  1.000000  1.000000  1.000000  1.000000
 FoFCou: FMM=F IPFlag=           0 FMFlag=      100000 FMFlg1=           0
         NFxFlg=           0 DoJE=T BraDBF=F KetDBF=T FulRan=T
         wScrn=  0.000000 ICntrl=       500 IOpCl=  0 I1Cent=   200000004 NGrid=           0
         NMat0=    1 NMatS0=      1 NMatT0=    0 NMatD0=    1 NMtDS0=    0 NMtDT0=    0
 Petite list used in FoFCou.
 Keep R1 ints in memory in canonical form, NReq=152074523.
 Requested convergence on RMS density matrix=1.00D-08 within 128 cycles.
 Requested convergence on MAX density matrix=1.00D-06.
 Requested convergence on             energy=1.00D-06.
 No special actions if energy rises.
 SCF Done:  E(RM062X) =  -363.671654518     A.U. after   15 cycles
            NFock= 15  Conv=0.60D-08     -V/T= 2.0085
 DoSCS=F DFT=T ScalE2(SS,OS)=  1.000000  1.000000
 ExpMin= 4.38D-02 ExpMax= 4.17D+03 ExpMxC= 6.27D+02 IAcc=3 IRadAn=         5 AccDes= 0.00D+00
 HarFok:  IExCor=  205 AccDes= 0.00D+00 IRadAn=         5 IDoV=-2 UseB2=F ITyADJ=14
 ICtDFT= 12500011 ScaDFX=  1.000000  1.000000  1.000000  1.000000
 Range of M.O.s used for correlation:    10   185
 NBasis=   185 NAE=    31 NBE=    31 NFC=     9 NFV=     0
 NROrb=    176 NOA=    22 NOB=    22 NVA=   154 NVB=   154

 **** Warning!!: The largest alpha MO coefficient is  0.19273225D+03

 Orbital symmetries:
       Occupied  (A) (A) (A) (A) (A) (A) (A) (A) (A) (A) (A) (A)
                 (A) (A) (A) (A) (A) (A) (A) (A) (A) (A) (A) (A)
                 (A) (A) (A) (A) (A) (A) (A)
       Virtual   (A) (A) (A) (A) (A) (A) (A) (A) (A) (A) (A) (A)
                 (A) (A) (A) (A) (A) (A) (A) (A) (A) (A) (A) (A)
                 (A) (A) (A) (A) (A) (A) (A) (A) (A) (A) (A) (A)
                 (A) (A) (A) (A) (A) (A) (A) (A) (A) (A) (A) (A)
                 (A) (A) (A) (A) (A) (A) (A) (A) (A) (A) (A) (A)
                 (A) (A) (A) (A) (A) (A) (A) (A) (A) (A) (A) (A)
                 (A) (A) (A) (A) (A) (A) (A) (A) (A) (A) (A) (A)
                 (A) (A) (A) (A) (A) (A) (A) (A) (A) (A) (A) (A)
                 (A) (A) (A) (A) (A) (A) (A) (A) (A) (A) (A) (A)
                 (A) (A) (A) (A) (A) (A) (A) (A) (A) (A) (A) (A)
                 (A) (A) (A) (A) (A) (A) (A) (A) (A) (A) (A) (A)
                 (A) (A) (A) (A) (A) (A) (A) (A) (A) (A) (A) (A)
                 (A) (A) (A) (A) (A) (A) (A) (A) (A) (A)
    24 initial guesses have been made.
 Convergence on wavefunction:    0.000001000000000
 Iteration     1 Dimension    24 NMult     0 NNew     24
 CISAX will form    24 AO SS matrices at one time.
 New state      2 was old state      6
 New state      3 was old state      2
 New state      4 was old state      3
 New state      5 was old state      4
 New state      6 was old state      5
 Iteration     2 Dimension    36 NMult    24 NNew     12
 New state      1 was old state      2
 New state      2 was old state      1
 Iteration     3 Dimension    48 NMult    36 NNew     12
 New state      2 was old state      3
 New state      3 was old state      2
 Iteration     4 Dimension    60 NMult    48 NNew     12
 Iteration     5 Dimension    72 NMult    60 NNew     12
 Iteration     6 Dimension    84 NMult    72 NNew     12
 Iteration     7 Dimension    96 NMult    84 NNew     12
 Iteration     8 Dimension   108 NMult    96 NNew     12
 Iteration     9 Dimension   120 NMult   108 NNew     12
 Iteration    10 Dimension   128 NMult   120 NNew      8
 Iteration    11 Dimension   130 NMult   128 NNew      2
 ***********************************************************************
 Excited states from <AA,BB:AA,BB> singles matrix:
 ***********************************************************************
 
 Ground to excited state transition densities written to RWF  633
 Ground to excited state transition electric dipole moments (Au):
       state          X           Y           Z        Dip. S.      Osc.
         1         0.0951     -0.6273      0.0003      0.4025      0.0504
         2        -0.8625      0.3254     -0.0036      0.8497      0.1077
         3         0.0253     -0.0110     -0.1196      0.0151      0.0019
         4        -0.0003      0.0000     -0.1384      0.0192      0.0027
         5         0.0003     -0.0000     -0.0297      0.0009      0.0001
         6         0.0007      0.0001      0.0991      0.0098      0.0014
 Ground to excited state transition velocity dipole moments (Au):
       state          X           Y           Z        Dip. S.      Osc.
         1        -0.0147      0.1306     -0.0000      0.0173      0.0613
         2         0.1587     -0.0698      0.0004      0.0301      0.1054
         3        -0.0046      0.0023      0.0140      0.0002      0.0008
         4         0.0001     -0.0000      0.0324      0.0010      0.0033
         5        -0.0001      0.0000      0.0069      0.0000      0.0001
         6        -0.0001     -0.0000     -0.0218      0.0005      0.0015
 Ground to excited state transition magnetic dipole moments (Au):
       state          X           Y           Z
         1        -0.0006      0.0000     -0.1936
         2         0.0042     -0.0022      0.0738
         3         0.1435     -0.0690     -0.0025
         4         0.0756     -0.3073     -0.0001
         5         0.2414     -0.2663      0.0001
         6         0.2604      0.2854      0.0006
 Ground to excited state transition velocity quadrupole moments (Au):
       state          XX          YY          ZZ          XY          XZ          YZ
         1        -0.1428      0.0307      0.0050     -0.0396     -0.0001     -0.0002
         2         0.1963     -0.1798      0.0292      0.0225      0.0017      0.0020
         3        -0.0061      0.0053     -0.0007     -0.0008      0.0561      0.0680
         4        -0.0000      0.0000      0.0000     -0.0000      0.2180      0.0133
         5        -0.0003      0.0000      0.0000      0.0001      0.2893      0.2453
         6         0.0000     -0.0001      0.0001      0.0003     -0.2122      0.1451
 <0|del|b> * <b|rxdel|0> + <0|del|b> * <b|delr+rdel|0>
 Rotatory Strengths (R) in cgs (10**-40 erg-esu-cm/Gauss)
       state          XX          YY          ZZ    R(velocity)    E-M Angle
         1         0.0526      0.0305     -0.0093      0.0246       90.00
         2         0.5870      1.8654      0.7259      1.0594       86.18
         3        -0.6302     -1.8689     -0.7075     -1.0689      111.20
         4         0.0069      0.0100      0.0102      0.0090       90.00
         5        -0.0005     -0.0559      0.0005     -0.0186       90.00
         6        -0.0432     -0.1033     -0.0286     -0.0584       90.00
 1/2[<0|r|b>*<b|rxdel|0> + (<0|rxdel|b>*<b|r|0>)*]
 Rotatory Strengths (R) in cgs (10**-40 erg-esu-cm/Gauss)
       state          XX          YY          ZZ     R(length)
         1         0.0379      0.0190      0.0390      0.0319
         2         2.5762      0.5024      0.1863      1.0883
         3        -2.5636     -0.5351     -0.2100     -1.1029
         4         0.0185      0.0089     -0.0050      0.0075
         5        -0.0535     -0.0079      0.0014     -0.0200
         6        -0.1274     -0.0266     -0.0393     -0.0644
  1/2[<0|del|b>*<b|r|0> + (<0|r|b>*<b|del|0>)*] (Au)
       state          X           Y           Z        Dip. S.   Osc.(frdel)
         1        -0.0014     -0.0819     -0.0000      0.0833      0.0556
         2        -0.1369     -0.0227     -0.0000      0.1596      0.1064
         3        -0.0001     -0.0000     -0.0017      0.0018      0.0012
         4        -0.0000     -0.0000     -0.0045      0.0045      0.0030
         5        -0.0000     -0.0000     -0.0002      0.0002      0.0001
         6        -0.0000     -0.0000     -0.0022      0.0022      0.0014

 Excitation energies and oscillator strengths:
 
 Excited State   1:      Singlet-A      5.1141 eV  242.44 nm  f=0.0504  <S**2>=0.000
      30 -> 33         0.45701
      30 -> 38        -0.11021
      31 -> 33        -0.45033
      31 -> 38        -0.23510
 This state for optimization and/or second-order correction.
 Total Energy, E(TD-HF/TD-DFT) =  -363.483715121    
 Copying the excited state density for this state as the 1-particle RhoCI density.
 
 Excited State   2:      Singlet-A      5.1712 eV  239.76 nm  f=0.1077  <S**2>=0.000
      30 -> 33         0.37232
      30 -> 38         0.12088
      31 -> 33         0.50669
      31 -> 38        -0.27376
 
 Excited State   3:      Singlet-A      5.1779 eV  239.45 nm  f=0.0019  <S**2>=0.000
      31 -> 32         0.69070
 
 Excited State   4:      Singlet-A      5.6910 eV  217.86 nm  f=0.0027  <S**2>=0.000
      30 -> 32         0.65287
      31 -> 34         0.19873
 
 Excited State   5:      Singlet-A      5.8447 eV  212.13 nm  f=0.0001  <S**2>=0.000
      30 -> 32        -0.20426
      31 -> 34         0.63871
      31 -> 35        -0.15447
 
 Excited State   6:      Singlet-A      5.8941 eV  210.35 nm  f=0.0014  <S**2>=0.000
      31 -> 34         0.15771
      31 -> 35         0.65899
      31 -> 36         0.10343
 SavETr:  write IOETrn=   770 NScale= 10 NData=  16 NLR=1 NState=    6 LETran=     118.
          IDoAtm=1111111111111111
          Differentiating once with respect to electric field.
                with respect to dipole field.
          Differentiating once with respect to nuclear coordinates.
 Keep R1 ints in memory in canonical form, NReq=152086915.
          There are     1 degrees of freedom in the 1st order CPHF.  IDoFFX=0 NUNeed=     1.
 LinEq1:  Iter=  0 NonCon=     1 RMS=5.40D-03 Max=1.18D-01 NDo=     1
 AX will form     1 AO Fock derivatives at one time.
 LinEq1:  Iter=  1 NonCon=     1 RMS=2.18D-03 Max=6.09D-02 NDo=     1
 LinEq1:  Iter=  2 NonCon=     1 RMS=1.17D-03 Max=3.08D-02 NDo=     1
 LinEq1:  Iter=  3 NonCon=     1 RMS=5.60D-04 Max=2.22D-02 NDo=     1
 LinEq1:  Iter=  4 NonCon=     1 RMS=2.52D-04 Max=6.68D-03 NDo=     1
 LinEq1:  Iter=  5 NonCon=     1 RMS=1.44D-04 Max=4.84D-03 NDo=     1
 LinEq1:  Iter=  6 NonCon=     1 RMS=6.55D-05 Max=1.28D-03 NDo=     1
 LinEq1:  Iter=  7 NonCon=     1 RMS=3.06D-05 Max=6.14D-04 NDo=     1
 LinEq1:  Iter=  8 NonCon=     1 RMS=1.72D-05 Max=3.21D-04 NDo=     1
 LinEq1:  Iter=  9 NonCon=     1 RMS=8.22D-06 Max=1.35D-04 NDo=     1
 LinEq1:  Iter= 10 NonCon=     1 RMS=2.95D-06 Max=4.81D-05 NDo=     1
 LinEq1:  Iter= 11 NonCon=     1 RMS=1.61D-06 Max=3.46D-05 NDo=     1
 LinEq1:  Iter= 12 NonCon=     1 RMS=3.96D-07 Max=5.84D-06 NDo=     1
 LinEq1:  Iter= 13 NonCon=     1 RMS=1.77D-07 Max=3.28D-06 NDo=     1
 LinEq1:  Iter= 14 NonCon=     1 RMS=7.37D-08 Max=1.45D-06 NDo=     1
 LinEq1:  Iter= 15 NonCon=     1 RMS=2.11D-08 Max=4.97D-07 NDo=     1
 LinEq1:  Iter= 16 NonCon=     1 RMS=8.28D-09 Max=1.43D-07 NDo=     1
 LinEq1:  Iter= 17 NonCon=     1 RMS=2.93D-09 Max=5.66D-08 NDo=     1
 LinEq1:  Iter= 18 NonCon=     1 RMS=6.29D-10 Max=8.18D-09 NDo=     1
 LinEq1:  Iter= 19 NonCon=     1 RMS=1.14D-10 Max=1.25D-09 NDo=     1
 LinEq1:  Iter= 20 NonCon=     0 RMS=2.55D-11 Max=2.38D-10 NDo=     1
 Linear equations converged to 1.000D-10 1.000D-09 after    20 iterations.
 End of Minotr F.D. properties file   721 does not exist.
 End of Minotr F.D. properties file   722 does not exist.
 End of Minotr F.D. properties file   788 does not exist.

 **********************************************************************

            Population analysis using the CI Density.

 **********************************************************************

 Orbital symmetries:
       Occupied  (A) (A) (A) (A) (A) (A) (A) (A) (A) (A) (A) (A)
                 (A) (A) (A) (A) (A) (A) (A) (A) (A) (A) (A) (A)
                 (A) (A) (A) (A) (A) (A) (A)
       Virtual   (A) (A) (A) (A) (A) (A) (A) (A) (A) (A) (A) (A)
                 (A) (A) (A) (A) (A) (A) (A) (A) (A) (A) (A) (A)
                 (A) (A) (A) (A) (A) (A) (A) (A) (A) (A) (A) (A)
                 (A) (A) (A) (A) (A) (A) (A) (A) (A) (A) (A) (A)
                 (A) (A) (A) (A) (A) (A) (A) (A) (A) (A) (A) (A)
                 (A) (A) (A) (A) (A) (A) (A) (A) (A) (A) (A) (A)
                 (A) (A) (A) (A) (A) (A) (A) (A) (A) (A) (A) (A)
                 (A) (A) (A) (A) (A) (A) (A) (A) (A) (A) (A) (A)
                 (A) (A) (A) (A) (A) (A) (A) (A) (A) (A) (A) (A)
                 (A) (A) (A) (A) (A) (A) (A) (A) (A) (A) (A) (A)
                 (A) (A) (A) (A) (A) (A) (A) (A) (A) (A) (A) (A)
                 (A) (A) (A) (A) (A) (A) (A) (A) (A) (A) (A) (A)
                 (A) (A) (A) (A) (A) (A) (A) (A) (A) (A)
 The electronic state is 1-A.
 Alpha  occ. eigenvalues --  -14.81043 -10.58588 -10.58293 -10.55216 -10.54724
 Alpha  occ. eigenvalues --  -10.54666 -10.54645 -10.54102 -10.53807  -1.09587
 Alpha  occ. eigenvalues --   -0.94525  -0.88334  -0.83265  -0.81325  -0.71042
 Alpha  occ. eigenvalues --   -0.67880  -0.66432  -0.61901  -0.55640  -0.54433
 Alpha  occ. eigenvalues --   -0.50520  -0.49963  -0.49875  -0.47754  -0.45664
 Alpha  occ. eigenvalues --   -0.41649  -0.40310  -0.39465  -0.33969  -0.27444
 Alpha  occ. eigenvalues --   -0.25664
 Alpha virt. eigenvalues --    0.00716   0.01304   0.02615   0.03046   0.04333
 Alpha virt. eigenvalues --    0.04583   0.05170   0.06622   0.06661   0.07040
 Alpha virt. eigenvalues --    0.07441   0.07619   0.09757   0.10432   0.10905
 Alpha virt. eigenvalues --    0.10991   0.12537   0.13697   0.14788   0.15226
 Alpha virt. eigenvalues --    0.16242   0.16393   0.17459   0.17904   0.18646
 Alpha virt. eigenvalues --    0.19609   0.19826   0.20281   0.21156   0.21618
 Alpha virt. eigenvalues --    0.22277   0.23082   0.23264   0.24170   0.24836
 Alpha virt. eigenvalues --    0.25218   0.25849   0.26179   0.26909   0.27630
 Alpha virt. eigenvalues --    0.28892   0.29084   0.30814   0.31737   0.33294
 Alpha virt. eigenvalues --    0.34339   0.34592   0.35869   0.37944   0.40334
 Alpha virt. eigenvalues --    0.41202   0.43912   0.48451   0.49192   0.55853
 Alpha virt. eigenvalues --    0.63025   0.67665   0.71604   0.71821   0.74551
 Alpha virt. eigenvalues --    0.75980   0.76706   0.77755   0.78322   0.78992
 Alpha virt. eigenvalues --    0.80019   0.80536   0.82415   0.83990   0.84652
 Alpha virt. eigenvalues --    0.86103   0.90096   0.94008   0.95786   0.96625
 Alpha virt. eigenvalues --    0.98859   0.99948   1.00475   1.01776   1.03313
 Alpha virt. eigenvalues --    1.05103   1.07784   1.09539   1.11747   1.13324
 Alpha virt. eigenvalues --    1.15458   1.15792   1.20924   1.21732   1.24166
 Alpha virt. eigenvalues --    1.26060   1.29001   1.29366   1.35605   1.37730
 Alpha virt. eigenvalues --    1.39773   1.40140   1.45090   1.47296   1.48769
 Alpha virt. eigenvalues --    1.51820   1.52384   1.55578   1.56314   1.57422
 Alpha virt. eigenvalues --    1.62490   1.68672   1.82750   1.88906   1.93187
 Alpha virt. eigenvalues --    1.94083   1.96140   1.99135   2.04589   2.05253
 Alpha virt. eigenvalues --    2.05364   2.11254   2.14305   2.18524   2.21551
 Alpha virt. eigenvalues --    2.21703   2.24194   2.29343   2.30115   2.30609
 Alpha virt. eigenvalues --    2.32596   2.35063   2.41927   2.44970   2.48397
 Alpha virt. eigenvalues --    2.58576   2.59563   2.66669   2.68560   2.69951
 Alpha virt. eigenvalues --    2.73035   2.76252   2.83908   2.87610   2.88298
 Alpha virt. eigenvalues --    2.97585   3.00125   3.14092   3.25783   3.45959
 Alpha virt. eigenvalues --    4.18343   4.28670   4.31861   4.35246   4.39001
 Alpha virt. eigenvalues --    4.42562   4.50718   4.54608   4.81432
          Condensed to atoms (all electrons):
               1          2          3          4          5          6
     1  C    5.599786   0.417791   0.144689  -0.467532  -0.033825  -0.023371
     2  C    0.417791   6.162395  -0.241361   0.234745  -0.621850   0.479863
     3  C    0.144689  -0.241361  12.639538  -1.836439  -3.308107  -2.797866
     4  C   -0.467532   0.234745  -1.836439  12.339972  -3.080485  -0.811687
     5  C   -0.033825  -0.621850  -3.308107  -3.080485  13.998954  -0.426387
     6  C   -0.023371   0.479863  -2.797866  -0.811687  -0.426387  12.518495
     7  N   -0.034801   0.026576  -0.557250  -0.295772   0.859290   0.123528
     8  C    0.098246  -0.278477   3.093891   1.397212  -4.513609  -3.557811
     9  C   -0.064374   0.020098  -1.182852  -0.606466   1.759123   1.043299
    10  H   -0.002472  -0.008744  -0.123608  -0.072151   0.162386   0.026737
    11  H    0.002268   0.000840   0.003598   0.045245  -0.006127  -0.023239
    12  H    0.000897   0.000541   0.023361   0.080039  -0.067787  -0.017258
    13  H    0.000704   0.290170  -0.016449   0.025957   0.006436   0.007247
    14  H    0.012603   0.056493   0.178772   0.058249   0.004442  -0.011016
    15  H    0.298359  -0.001287   0.029728  -0.027314   0.040115  -0.036702
    16  H    0.020641   0.008249  -0.027933   0.035378   0.106195   0.188783
               7          8          9         10         11         12
     1  C   -0.034801   0.098246  -0.064374  -0.002472   0.002268   0.000897
     2  C    0.026576  -0.278477   0.020098  -0.008744   0.000840   0.000541
     3  C   -0.557250   3.093891  -1.182852  -0.123608   0.003598   0.023361
     4  C   -0.295772   1.397212  -0.606466  -0.072151   0.045245   0.080039
     5  C    0.859290  -4.513609   1.759123   0.162386  -0.006127  -0.067787
     6  C    0.123528  -3.557811   1.043299   0.026737  -0.023239  -0.017258
     7  N    7.297294  -0.673702   0.490566   0.277527   0.006169  -0.051982
     8  C   -0.673702  11.986715  -2.069909  -0.006836   0.302981   0.024067
     9  C    0.490566  -2.069909   6.695018  -0.016074  -0.028218   0.326950
    10  H    0.277527  -0.006836  -0.016074   0.307267  -0.000072  -0.002362
    11  H    0.006169   0.302981  -0.028218  -0.000072   0.463325  -0.000755
    12  H   -0.051982   0.024067   0.326950  -0.002362  -0.000755   0.458940
    13  H   -0.000388  -0.000969   0.001531  -0.000002   0.000000  -0.000000
    14  H   -0.002889  -0.013430   0.013685   0.001651   0.000002   0.000003
    15  H    0.000287   0.007458  -0.000400  -0.000000  -0.000001  -0.000000
    16  H   -0.000878  -0.037886   0.005016   0.000004   0.001243  -0.000001
              13         14         15         16
     1  C    0.000704   0.012603   0.298359   0.020641
     2  C    0.290170   0.056493  -0.001287   0.008249
     3  C   -0.016449   0.178772   0.029728  -0.027933
     4  C    0.025957   0.058249  -0.027314   0.035378
     5  C    0.006436   0.004442   0.040115   0.106195
     6  C    0.007247  -0.011016  -0.036702   0.188783
     7  N   -0.000388  -0.002889   0.000287  -0.000878
     8  C   -0.000969  -0.013430   0.007458  -0.037886
     9  C    0.001531   0.013685  -0.000400   0.005016
    10  H   -0.000002   0.001651  -0.000000   0.000004
    11  H    0.000000   0.000002  -0.000001   0.001243
    12  H   -0.000000   0.000003  -0.000000  -0.000001
    13  H    0.498017  -0.003891  -0.003803  -0.000136
    14  H   -0.003891   0.505311  -0.000139   0.000016
    15  H   -0.003803  -0.000139   0.489691  -0.003564
    16  H   -0.000136   0.000016  -0.003564   0.496804
 Mulliken charges:
               1
     1  C    0.030391
     2  C   -0.546041
     3  C   -0.021710
     4  C   -1.018952
     5  C    1.121237
     6  C   -0.682614
     7  N   -0.463575
     8  C    0.242059
     9  C   -0.386993
    10  H    0.456748
    11  H    0.232741
    12  H    0.225348
    13  H    0.195579
    14  H    0.200138
    15  H    0.207574
    16  H    0.208071
 Sum of Mulliken charges =  -0.00000
 Mulliken charges with hydrogens summed into heavy atoms:
               1
     1  C    0.237965
     2  C   -0.350462
     3  C    0.178428
     4  C   -1.018952
     5  C    1.121237
     6  C   -0.474544
     7  N   -0.006827
     8  C    0.474800
     9  C   -0.161645
 Electronic spatial extent (au):  <R**2>=           1008.4581
 Charge=             -0.0000 electrons
 Dipole moment (field-independent basis, Debye):
    X=              2.5969    Y=             -0.9562    Z=             -0.0046  Tot=              2.7674
 Quadrupole moment (field-independent basis, Debye-Ang):
   XX=            -47.1008   YY=            -45.3121   ZZ=            -60.6101
   XY=             -4.1729   XZ=             -0.0083   YZ=              0.0049
 Traceless Quadrupole moment (field-independent basis, Debye-Ang):
   XX=              3.9069   YY=              5.6955   ZZ=             -9.6024
   XY=             -4.1729   XZ=             -0.0083   YZ=              0.0049
 Octapole moment (field-independent basis, Debye-Ang**2):
  XXX=             17.0115  YYY=             -8.3771  ZZZ=             -0.0421  XYY=             13.0226
  XXY=             -4.9370  XXZ=             -0.0262  XZZ=              2.9954  YZZ=             -0.3322
  YYZ=             -0.0283  XYZ=              0.0063
 Hexadecapole moment (field-independent basis, Debye-Ang**3):
 XXXX=           -857.7276 YYYY=           -383.1940 ZZZZ=            -86.6393 XXXY=            -29.6897
 XXXZ=             -0.1250 YYYX=            -19.3145 YYYZ=              0.0560 ZZZX=             -0.0651
 ZZZY=              0.0522 XXYY=           -194.8335 XXZZ=           -201.7465 YYZZ=           -101.3746
 XXYZ=              0.0113 YYXZ=             -0.0165 ZZXY=             -4.1253
 N-N= 4.013368668897D+02 E-N=-1.644844633523D+03  KE= 3.607638925492D+02
 Calling FoFJK, ICntrl=  10005127 FMM=F ISym2X=0 I1Cent= 0 IOpClX= 0 NMat=1 NMatS=1 NMatT=0.
 ***** Axes restored to original set *****
 -------------------------------------------------------------------
 Center     Atomic                   Forces (Hartrees/Bohr)
 Number     Number              X              Y              Z
 -------------------------------------------------------------------
      1        6          -0.025175062   -0.028212032    0.000004578
      2        6          -0.039903176    0.018717506   -0.000008456
      3        6           0.026598654   -0.026813762    0.000020704
      4        6           0.004406799   -0.011017845   -0.000003631
      5        6           0.006005528    0.005119984   -0.000049132
      6        6           0.025281356    0.028997043    0.000004758
      7        7          -0.023714712    0.014920500    0.000030085
      8        6          -0.010357137    0.007398501    0.000029012
      9        6           0.034860208   -0.006011789   -0.000020842
     10        1           0.001875219   -0.007258043    0.000001897
     11        1           0.001389988    0.003238637    0.000006463
     12        1           0.002215989   -0.000554272   -0.000007253
     13        1          -0.002038755   -0.000233680   -0.000000590
     14        1           0.000700833   -0.002447613   -0.000009156
     15        1          -0.002529585    0.001571513    0.000001243
     16        1           0.000383852    0.002585352    0.000000319
 -------------------------------------------------------------------
 Cartesian Forces:  Max     0.039903176 RMS     0.013525032

 GradGradGradGradGradGradGradGradGradGradGradGradGradGradGradGradGradGrad
 Berny optimization.
 FormGI is forming the generalized inverse of G from B-inverse, IUseBI=4.
 Internal  Forces:  Max     0.042394525 RMS     0.007896191
 Search for a local minimum.
 Step number   1 out of a maximum of   94
 All quantities printed in internal units (Hartrees-Bohrs-Radians)
 Mixed Optimization -- RFO/linear search
 Second derivative matrix not updated -- first step.
 ITU=  0
     Eigenvalues ---    0.01853   0.01931   0.01986   0.02012   0.02070
     Eigenvalues ---    0.02113   0.02148   0.02153   0.02172   0.02209
     Eigenvalues ---    0.02233   0.02248   0.02338   0.16000   0.16000
     Eigenvalues ---    0.16000   0.16000   0.16000   0.16000   0.16000
     Eigenvalues ---    0.22000   0.22188   0.22662   0.24011   0.24651
     Eigenvalues ---    0.35712   0.35717   0.35783   0.35790   0.36420
     Eigenvalues ---    0.36427   0.37009   0.38432   0.42633   0.43465
     Eigenvalues ---    0.45769   0.46692   0.47162   0.47468   0.47567
     Eigenvalues ---    0.48125   0.50955
 RFO step:  Lambda=-1.21763990D-02 EMin= 1.85287394D-02
 Linear search not attempted -- first point.
 Iteration  1 RMS(Cart)=  0.02752835 RMS(Int)=  0.00026583
 Iteration  2 RMS(Cart)=  0.00035414 RMS(Int)=  0.00008973
 Iteration  3 RMS(Cart)=  0.00000008 RMS(Int)=  0.00008973
 Variable       Old X    -DE/DX   Delta X   Delta X   Delta X     New X
                                 (Linear)    (Quad)   (Total)
    R1        2.65547  -0.00054   0.00000   0.00069   0.00073   2.65621
    R2        2.61291   0.04239   0.00000   0.08583   0.08587   2.69878
    R3        2.04421   0.00297   0.00000   0.00803   0.00803   2.05225
    R4        2.61557   0.04022   0.00000   0.08215   0.08215   2.69772
    R5        2.04411   0.00188   0.00000   0.00508   0.00508   2.04919
    R6        2.63373   0.01338   0.00000   0.02714   0.02710   2.66083
    R7        2.04534   0.00246   0.00000   0.00666   0.00666   2.05200
    R8        2.68058   0.01238   0.00000   0.02365   0.02338   2.70395
    R9        2.60126  -0.00456   0.00000  -0.01114  -0.01110   2.59016
   R10        2.64771   0.00955   0.00000   0.01942   0.01942   2.66712
   R11        2.70839   0.00819   0.00000   0.02068   0.02051   2.72890
   R12        2.04526   0.00257   0.00000   0.00696   0.00696   2.05223
   R13        2.60573   0.01374   0.00000   0.02806   0.02831   2.63403
   R14        1.89542   0.00748   0.00000   0.01546   0.01546   1.91088
   R15        2.57870   0.01674   0.00000   0.03407   0.03419   2.61289
   R16        2.03419   0.00352   0.00000   0.00935   0.00935   2.04354
   R17        2.03430   0.00226   0.00000   0.00601   0.00601   2.04031
    A1        2.11420   0.00467   0.00000   0.02444   0.02448   2.13868
    A2        2.07986  -0.00215   0.00000  -0.01113  -0.01115   2.06871
    A3        2.08912  -0.00252   0.00000  -0.01331  -0.01333   2.07580
    A4        2.11523  -0.00645   0.00000  -0.02283  -0.02283   2.09240
    A5        2.08365   0.00238   0.00000   0.00653   0.00653   2.09018
    A6        2.08430   0.00406   0.00000   0.01630   0.01630   2.10060
    A7        2.05144  -0.00206   0.00000  -0.00909  -0.00918   2.04226
    A8        2.11267   0.00171   0.00000   0.00853   0.00857   2.12124
    A9        2.11908   0.00034   0.00000   0.00056   0.00061   2.11969
   A10        2.13389   0.00774   0.00000   0.02901   0.02898   2.16287
   A11        2.27895  -0.00262   0.00000  -0.00247  -0.00229   2.27666
   A12        1.87035  -0.00513   0.00000  -0.02654  -0.02669   1.84366
   A13        2.07274  -0.00142   0.00000  -0.00935  -0.00925   2.06349
   A14        1.86517   0.00188   0.00000   0.00602   0.00568   1.87085
   A15        2.34527  -0.00046   0.00000   0.00332   0.00357   2.34884
   A16        2.07887  -0.00249   0.00000  -0.01219  -0.01220   2.06667
   A17        2.10306   0.00171   0.00000   0.00877   0.00878   2.11184
   A18        2.10125   0.00079   0.00000   0.00342   0.00342   2.10467
   A19        1.90743   0.01349   0.00000   0.05356   0.05378   1.96120
   A20        2.19023  -0.00721   0.00000  -0.02948  -0.02959   2.16064
   A21        2.18553  -0.00628   0.00000  -0.02408  -0.02418   2.16135
   A22        1.86968   0.00260   0.00000   0.01686   0.01681   1.88649
   A23        2.21717  -0.00112   0.00000  -0.00736  -0.00734   2.20983
   A24        2.19633  -0.00148   0.00000  -0.00950  -0.00947   2.18686
   A25        1.91215  -0.01284   0.00000  -0.04990  -0.04958   1.86257
   A26        2.10250   0.00610   0.00000   0.02310   0.02294   2.12545
   A27        2.26854   0.00674   0.00000   0.02680   0.02663   2.29517
    D1       -0.00001   0.00000   0.00000   0.00012   0.00012   0.00011
    D2       -3.14156   0.00000   0.00000   0.00005   0.00005  -3.14151
    D3        3.14152   0.00000   0.00000   0.00011   0.00011  -3.14155
    D4       -0.00002   0.00000   0.00000   0.00004   0.00004   0.00002
    D5       -0.00003   0.00000   0.00000   0.00004   0.00004   0.00001
    D6        3.14153  -0.00000   0.00000   0.00002   0.00002   3.14155
    D7       -3.14157   0.00000   0.00000   0.00005   0.00005  -3.14152
    D8       -0.00001   0.00000   0.00000   0.00003   0.00003   0.00002
    D9        0.00003  -0.00001   0.00000  -0.00016  -0.00016  -0.00012
   D10       -3.14154   0.00000   0.00000   0.00005   0.00005  -3.14149
   D11        3.14158  -0.00000   0.00000  -0.00008  -0.00008   3.14150
   D12        0.00001   0.00000   0.00000   0.00013   0.00013   0.00014
   D13       -0.00001   0.00000   0.00000   0.00004   0.00004   0.00003
   D14       -3.14144   0.00000   0.00000   0.00010   0.00010  -3.14134
   D15        3.14156  -0.00001   0.00000  -0.00017  -0.00017   3.14139
   D16        0.00013  -0.00000   0.00000  -0.00011  -0.00011   0.00002
   D17       -0.00004   0.00000   0.00000   0.00011   0.00011   0.00008
   D18       -3.14151  -0.00000   0.00000  -0.00011  -0.00011   3.14156
   D19        3.14143   0.00000   0.00000   0.00007   0.00007   3.14150
   D20       -0.00005  -0.00000   0.00000  -0.00015  -0.00015  -0.00021
   D21       -3.14124  -0.00001   0.00000  -0.00024  -0.00025  -3.14149
   D22       -0.00113   0.00001   0.00000   0.00015   0.00015  -0.00098
   D23        0.00049  -0.00000   0.00000  -0.00020  -0.00020   0.00029
   D24        3.14060   0.00001   0.00000   0.00020   0.00019   3.14080
   D25        0.00005  -0.00000   0.00000  -0.00015  -0.00015  -0.00010
   D26       -3.14151  -0.00000   0.00000  -0.00013  -0.00013   3.14154
   D27        3.14150   0.00000   0.00000   0.00015   0.00015  -3.14154
   D28       -0.00007   0.00000   0.00000   0.00016   0.00017   0.00010
   D29       -0.00041   0.00001   0.00000   0.00046   0.00046   0.00006
   D30        3.14139   0.00000   0.00000   0.00014   0.00015   3.14154
   D31        3.14132   0.00001   0.00000   0.00018   0.00019   3.14151
   D32       -0.00006  -0.00001   0.00000  -0.00013  -0.00013  -0.00019
   D33       -0.00077   0.00002   0.00000   0.00051   0.00051  -0.00026
   D34        3.14133   0.00001   0.00000   0.00024   0.00024   3.14157
   D35       -3.14089   0.00001   0.00000   0.00013   0.00012  -3.14077
   D36        0.00121  -0.00001   0.00000  -0.00015  -0.00015   0.00106
   D37        0.00072  -0.00002   0.00000  -0.00062  -0.00061   0.00012
   D38       -3.14144  -0.00001   0.00000  -0.00031  -0.00030   3.14144
   D39       -3.14107  -0.00001   0.00000  -0.00030  -0.00029  -3.14137
   D40       -0.00005  -0.00000   0.00000   0.00001   0.00001  -0.00004
         Item               Value     Threshold  Converged?
 Maximum Force            0.042395     0.000450     NO 
 RMS     Force            0.007896     0.000300     NO 
 Maximum Displacement     0.101488     0.001800     NO 
 RMS     Displacement     0.027479     0.001200     NO 
 Predicted change in Energy=-6.275667D-03
 GradGradGradGradGradGradGradGradGradGradGradGradGradGradGradGradGradGrad

                          Input orientation:                          
 ---------------------------------------------------------------------
 Center     Atomic      Atomic             Coordinates (Angstroms)
 Number     Number       Type             X           Y           Z
 ---------------------------------------------------------------------
      1          6           0       -2.177156    0.675064    0.000033
      2          6           0       -2.174817   -0.730538    0.000014
      3          6           0       -0.935901   -1.439800    0.000114
      4          6           0        0.242350   -0.668870    0.000073
      5          6           0        0.260489    0.761885   -0.000021
      6          6           0       -0.974459    1.445185    0.000021
      7          7           0        1.557506   -1.054955   -0.000119
      8          6           0        1.645342    1.171190    0.000009
      9          6           0        2.429566    0.032419    0.000044
     10          1           0        1.860482   -2.019693    0.000561
     11          1           0        2.017834    2.186408   -0.000092
     12          1           0        3.501319   -0.098228   -0.000049
     13          1           0       -3.115299   -1.270336   -0.000051
     14          1           0       -0.902786   -2.525164    0.000002
     15          1           0       -3.132159    1.192140   -0.000002
     16          1           0       -1.005407    2.530737   -0.000002
 ---------------------------------------------------------------------
                    Distance matrix (angstroms):
                    1          2          3          4          5
     1  C    0.000000
     2  C    1.405603   0.000000
     3  C    2.452215   1.427573   0.000000
     4  C    2.767700   2.417953   1.408051   0.000000
     5  C    2.439190   2.856229   2.505747   1.430870   0.000000
     6  C    1.428134   2.484880   2.885243   2.439232   1.411381
     7  N    4.115904   3.746396   2.522932   1.370656   2.232300
     8  C    3.854560   4.267339   3.671524   2.313917   1.444074
     9  C    4.651330   4.667167   3.673391   2.296894   2.288452
    10  H    4.854300   4.236220   2.855877   2.107860   3.208918
    11  H    4.458935   5.107533   4.676958   3.362285   2.262195
    12  H    5.730887   5.711247   4.635595   3.308552   3.353025
    13  H    2.159790   1.084384   2.185976   3.411095   3.940288
    14  H    3.444630   2.199715   1.085870   2.181092   3.486818
    15  H    1.086001   2.147834   3.427923   3.853656   3.419822
    16  H    2.194657   3.464597   3.971145   3.434295   2.175162
                    6          7          8          9         10
     6  C    0.000000
     7  N    3.558307   0.000000
     8  C    2.634090   2.227877   0.000000
     9  C    3.685552   1.393869   1.382681   0.000000
    10  H    4.476859   1.011194   3.198128   2.129559   0.000000
    11  H    3.082731   3.273887   1.081396   2.192987   4.209043
    12  H    4.734418   2.166503   2.248572   1.079687   2.526732
    13  H    3.457926   4.677766   5.350211   5.695849   5.031891
    14  H    3.970997   2.866104   4.489543   4.200691   2.809119
    15  H    2.172487   5.200230   4.777547   5.681350   5.936525
    16  H    1.085993   4.407461   2.979067   4.247426   5.377707
                   11         12         13         14         15
    11  H    0.000000
    12  H    2.724021   0.000000
    13  H    6.188549   6.719634   0.000000
    14  H    5.543369   5.028535   2.543581   0.000000
    15  H    5.245093   6.757817   2.462534   4.334565   0.000000
    16  H    3.042787   5.217475   4.347391   5.056943   2.512950
                   16
    16  H    0.000000
 Stoichiometry    C8H7N
 Framework group  C1[X(C8H7N)]
 Deg. of freedom    42
 Full point group                 C1      NOp   1
 Largest Abelian subgroup         C1      NOp   1
 Largest concise Abelian subgroup C1      NOp   1
                         Standard orientation:                         
 ---------------------------------------------------------------------
 Center     Atomic      Atomic             Coordinates (Angstroms)
 Number     Number       Type             X           Y           Z
 ---------------------------------------------------------------------
      1          6           0       -2.168082    0.703211    0.000013
      2          6           0       -2.184895   -0.702292   -0.000006
      3          6           0       -0.955758   -1.428368    0.000093
      4          6           0        0.232888   -0.673564    0.000052
      5          6           0        0.270519    0.756812   -0.000041
      6          6           0       -0.955004    1.456874    0.000000
      7          7           0        1.542662   -1.077532   -0.000139
      8          6           0        1.660820    1.147210   -0.000011
      9          6           0        2.429456   -0.002140    0.000024
     10          1           0        1.832465   -2.046308    0.000541
     11          1           0        2.047110    2.157259   -0.000112
     12          1           0        3.499330   -0.147378   -0.000070
     13          1           0       -3.132644   -1.229227   -0.000071
     14          1           0       -0.937434   -2.514083   -0.000018
     15          1           0       -3.115952    1.233251   -0.000022
     16          1           0       -0.971159    2.542747   -0.000022
 ---------------------------------------------------------------------
 Rotational constants (GHZ):           3.8564270           1.6001412           1.1308991
 Standard basis: 6-31+G(d) (6D, 7F)
 There are   185 symmetry adapted cartesian basis functions of A   symmetry.
 There are   185 symmetry adapted basis functions of A   symmetry.
   185 basis functions,   316 primitive gaussians,   185 cartesian basis functions
    31 alpha electrons       31 beta electrons
       nuclear repulsion energy       397.2125940162 Hartrees.
 NAtoms=   16 NActive=   16 NUniq=   16 SFac= 1.00D+00 NAtFMM=   60 NAOKFM=F Big=F
 Integral buffers will be    131072 words long.
 Regular integral format.
 Two-electron integral symmetry is turned on.
 One-electron integrals computed using PRISM.
 NBasis=   185 RedAO= T EigKep=  1.39D-06  NBF=   185
 NBsUse=   185 1.00D-06 EigRej= -1.00D+00 NBFU=   185
 Initial guess from the checkpoint file:  "FuncsM062XII1st.chk"
 B after Tr=     0.000000   -0.000000   -0.000000
         Rot=    0.999980    0.000010    0.000004    0.006295 Ang=   0.72 deg.
 ExpMin= 4.38D-02 ExpMax= 4.17D+03 ExpMxC= 6.27D+02 IAcc=3 IRadAn=         5 AccDes= 0.00D+00
 Harris functional with IExCor= 1009 and IRadAn=       5 diagonalized for initial guess.
 HarFok:  IExCor= 1009 AccDes= 0.00D+00 IRadAn=         5 IDoV= 1 UseB2=F ITyADJ=14
 ICtDFT=  3500011 ScaDFX=  1.000000  1.000000  1.000000  1.000000
 FoFCou: FMM=F IPFlag=           0 FMFlag=      100000 FMFlg1=           0
         NFxFlg=           0 DoJE=T BraDBF=F KetDBF=T FulRan=T
         wScrn=  0.000000 ICntrl=       500 IOpCl=  0 I1Cent=   200000004 NGrid=           0
         NMat0=    1 NMatS0=      1 NMatT0=    0 NMatD0=    1 NMtDS0=    0 NMtDT0=    0
 Petite list used in FoFCou.
 Keep R1 ints in memory in canonical form, NReq=152074523.
 Requested convergence on RMS density matrix=1.00D-08 within 128 cycles.
 Requested convergence on MAX density matrix=1.00D-06.
 Requested convergence on             energy=1.00D-06.
 No special actions if energy rises.
 SCF Done:  E(RM062X) =  -363.666847699     A.U. after   14 cycles
            NFock= 14  Conv=0.35D-08     -V/T= 2.0098
 DoSCS=F DFT=T ScalE2(SS,OS)=  1.000000  1.000000
 ExpMin= 4.38D-02 ExpMax= 4.17D+03 ExpMxC= 6.27D+02 IAcc=3 IRadAn=         5 AccDes= 0.00D+00
 HarFok:  IExCor=  205 AccDes= 0.00D+00 IRadAn=         5 IDoV=-2 UseB2=F ITyADJ=14
 ICtDFT= 12500011 ScaDFX=  1.000000  1.000000  1.000000  1.000000
 Range of M.O.s used for correlation:    10   185
 NBasis=   185 NAE=    31 NBE=    31 NFC=     9 NFV=     0
 NROrb=    176 NOA=    22 NOB=    22 NVA=   154 NVB=   154

 **** Warning!!: The largest alpha MO coefficient is  0.17797706D+03

 Orbital symmetries:
       Occupied  (A) (A) (A) (A) (A) (A) (A) (A) (A) (A) (A) (A)
                 (A) (A) (A) (A) (A) (A) (A) (A) (A) (A) (A) (A)
                 (A) (A) (A) (A) (A) (A) (A)
       Virtual   (A) (A) (A) (A) (A) (A) (A) (A) (A) (A) (A) (A)
                 (A) (A) (A) (A) (A) (A) (A) (A) (A) (A) (A) (A)
                 (A) (A) (A) (A) (A) (A) (A) (A) (A) (A) (A) (A)
                 (A) (A) (A) (A) (A) (A) (A) (A) (A) (A) (A) (A)
                 (A) (A) (A) (A) (A) (A) (A) (A) (A) (A) (A) (A)
                 (A) (A) (A) (A) (A) (A) (A) (A) (A) (A) (A) (A)
                 (A) (A) (A) (A) (A) (A) (A) (A) (A) (A) (A) (A)
                 (A) (A) (A) (A) (A) (A) (A) (A) (A) (A) (A) (A)
                 (A) (A) (A) (A) (A) (A) (A) (A) (A) (A) (A) (A)
                 (A) (A) (A) (A) (A) (A) (A) (A) (A) (A) (A) (A)
                 (A) (A) (A) (A) (A) (A) (A) (A) (A) (A) (A) (A)
                 (A) (A) (A) (A) (A) (A) (A) (A) (A) (A) (A) (A)
                 (A) (A) (A) (A) (A) (A) (A) (A) (A) (A)
 Generating guess from densities on rwf.
 Convergence on wavefunction:    0.000001000000000
 Iteration     1 Dimension    12 NMult     0 NNew     12
 CISAX will form    12 AO SS matrices at one time.
 New state      5 was old state      6
 New state      6 was old state      5
 Iteration     2 Dimension    24 NMult    12 NNew     12
 Iteration     3 Dimension    36 NMult    24 NNew     12
 Iteration     4 Dimension    48 NMult    36 NNew     12
 Iteration     5 Dimension    60 NMult    48 NNew     12
 Iteration     6 Dimension    72 NMult    60 NNew     12
 Iteration     7 Dimension    84 NMult    72 NNew     12
 Iteration     8 Dimension    96 NMult    84 NNew     12
 Iteration     9 Dimension   108 NMult    96 NNew     12
 Iteration    10 Dimension   120 NMult   108 NNew     12
 Iteration    11 Dimension   126 NMult   120 NNew      6
 Iteration    12 Dimension   128 NMult   126 NNew      2
 ***********************************************************************
 Excited states from <AA,BB:AA,BB> singles matrix:
 ***********************************************************************
 
 Ground to excited state transition densities written to RWF  633
 Ground to excited state transition electric dipole moments (Au):
       state          X           Y           Z        Dip. S.      Osc.
         1         0.1191     -0.7743      0.0001      0.6138      0.0723
         2        -0.8086      0.2644     -0.0001      0.7237      0.0887
         3         0.0004     -0.0005     -0.1119      0.0125      0.0016
         4        -0.0001     -0.0001     -0.1479      0.0219      0.0030
         5         0.0005      0.0001      0.0588      0.0035      0.0005
         6         0.0002      0.0000      0.0418      0.0017      0.0002
 Ground to excited state transition velocity dipole moments (Au):
       state          X           Y           Z        Dip. S.      Osc.
         1        -0.0170      0.1516     -0.0000      0.0233      0.0878
         2         0.1436     -0.0537      0.0000      0.0235      0.0853
         3        -0.0001      0.0001      0.0117      0.0001      0.0005
         4         0.0000      0.0000      0.0334      0.0011      0.0036
         5        -0.0001     -0.0000     -0.0136      0.0002      0.0006
         6        -0.0000     -0.0000     -0.0102      0.0001      0.0003
 Ground to excited state transition magnetic dipole moments (Au):
       state          X           Y           Z
         1        -0.0001     -0.0001     -0.1775
         2         0.0000     -0.0000     -0.0317
         3         0.1255     -0.0256      0.0000
         4         0.1695     -0.3578     -0.0001
         5         0.3434      0.1167      0.0002
         6         0.0866      0.3488      0.0000
 Ground to excited state transition velocity quadrupole moments (Au):
       state          XX          YY          ZZ          XY          XZ          YZ
         1        -0.1446      0.0477      0.0048     -0.0665     -0.0000      0.0000
         2         0.1923     -0.1768      0.0321      0.0010      0.0000      0.0000
         3        -0.0002      0.0002      0.0001     -0.0000      0.0383      0.0520
         4         0.0001     -0.0001     -0.0000     -0.0001      0.2772      0.0963
         5         0.0000     -0.0000      0.0000      0.0001     -0.0093      0.2957
         6         0.0001     -0.0000      0.0000      0.0000     -0.3142     -0.0220
 <0|del|b> * <b|rxdel|0> + <0|del|b> * <b|delr+rdel|0>
 Rotatory Strengths (R) in cgs (10**-40 erg-esu-cm/Gauss)
       state          XX          YY          ZZ    R(velocity)    E-M Angle
         1        -0.0133      0.0053     -0.0208     -0.0096       90.00
         2         0.0085      0.0081      0.0082      0.0083       90.00
         3        -0.0111     -0.0224     -0.0075     -0.0137       90.00
         4        -0.0388      0.0136     -0.0003     -0.0085       90.00
         5        -0.0102     -0.1255     -0.0126     -0.0494       90.00
         6        -0.0030     -0.0037     -0.0059     -0.0042       90.00
 1/2[<0|r|b>*<b|rxdel|0> + (<0|rxdel|b>*<b|r|0>)*]
 Rotatory Strengths (R) in cgs (10**-40 erg-esu-cm/Gauss)
       state          XX          YY          ZZ     R(length)
         1         0.0090     -0.0399      0.0119     -0.0064
         2         0.0182      0.0083     -0.0026      0.0080
         3        -0.0372     -0.0085      0.0021     -0.0145
         4         0.0150     -0.0286     -0.0076     -0.0070
         5        -0.1326     -0.0074     -0.0086     -0.0495
         6        -0.0097     -0.0040     -0.0014     -0.0050
  1/2[<0|del|b>*<b|r|0> + (<0|r|b>*<b|del|0>)*] (Au)
       state          X           Y           Z        Dip. S.   Osc.(frdel)
         1        -0.0020     -0.1174     -0.0000      0.1194      0.0796
         2        -0.1161     -0.0142     -0.0000      0.1303      0.0869
         3        -0.0000     -0.0000     -0.0013      0.0013      0.0009
         4        -0.0000     -0.0000     -0.0049      0.0049      0.0033
         5        -0.0000     -0.0000     -0.0008      0.0008      0.0005
         6        -0.0000     -0.0000     -0.0004      0.0004      0.0003

 Excitation energies and oscillator strengths:
 
 Excited State   1:      Singlet-A      4.8076 eV  257.89 nm  f=0.0723  <S**2>=0.000
      30 -> 32        -0.31736
      30 -> 38         0.12829
      31 -> 32        -0.58662
      31 -> 38        -0.14855
 This state for optimization and/or second-order correction.
 Total Energy, E(TD-HF/TD-DFT) =  -363.490171207    
 Copying the excited state density for this state as the 1-particle RhoCI density.
 
 Excited State   2:      Singlet-A      5.0001 eV  247.96 nm  f=0.0887  <S**2>=0.000
      30 -> 32        -0.50271
      31 -> 32         0.35145
      31 -> 38        -0.32275
 
 Excited State   3:      Singlet-A      5.1054 eV  242.85 nm  f=0.0016  <S**2>=0.000
      31 -> 33         0.68911
 
 Excited State   4:      Singlet-A      5.6671 eV  218.78 nm  f=0.0030  <S**2>=0.000
      30 -> 33        -0.57355
      31 -> 34         0.37025
 
 Excited State   5:      Singlet-A      5.8006 eV  213.74 nm  f=0.0005  <S**2>=0.000
      30 -> 33         0.30088
      31 -> 34         0.52269
      31 -> 35         0.32493
 
 Excited State   6:      Singlet-A      5.8083 eV  213.46 nm  f=0.0002  <S**2>=0.000
      30 -> 33        -0.22489
      31 -> 34        -0.24696
      31 -> 35         0.59636
 SavETr:  write IOETrn=   770 NScale= 10 NData=  16 NLR=1 NState=    6 LETran=     118.
          IDoAtm=1111111111111111
          Differentiating once with respect to electric field.
                with respect to dipole field.
          Differentiating once with respect to nuclear coordinates.
 Keep R1 ints in memory in canonical form, NReq=152086915.
          There are     1 degrees of freedom in the 1st order CPHF.  IDoFFX=0 NUNeed=     1.
 LinEq1:  Iter=  0 NonCon=     1 RMS=5.97D-03 Max=1.28D-01 NDo=     1
 AX will form     1 AO Fock derivatives at one time.
 LinEq1:  Iter=  1 NonCon=     1 RMS=2.55D-03 Max=6.75D-02 NDo=     1
 LinEq1:  Iter=  2 NonCon=     1 RMS=1.38D-03 Max=3.42D-02 NDo=     1
 LinEq1:  Iter=  3 NonCon=     1 RMS=6.21D-04 Max=2.53D-02 NDo=     1
 LinEq1:  Iter=  4 NonCon=     1 RMS=2.80D-04 Max=8.17D-03 NDo=     1
 LinEq1:  Iter=  5 NonCon=     1 RMS=1.67D-04 Max=5.49D-03 NDo=     1
 LinEq1:  Iter=  6 NonCon=     1 RMS=7.66D-05 Max=1.46D-03 NDo=     1
 LinEq1:  Iter=  7 NonCon=     1 RMS=3.75D-05 Max=7.93D-04 NDo=     1
 LinEq1:  Iter=  8 NonCon=     1 RMS=2.05D-05 Max=3.82D-04 NDo=     1
 LinEq1:  Iter=  9 NonCon=     1 RMS=9.38D-06 Max=1.24D-04 NDo=     1
 LinEq1:  Iter= 10 NonCon=     1 RMS=3.77D-06 Max=7.81D-05 NDo=     1
 LinEq1:  Iter= 11 NonCon=     1 RMS=2.01D-06 Max=3.44D-05 NDo=     1
 LinEq1:  Iter= 12 NonCon=     1 RMS=4.73D-07 Max=5.87D-06 NDo=     1
 LinEq1:  Iter= 13 NonCon=     1 RMS=2.16D-07 Max=5.01D-06 NDo=     1
 LinEq1:  Iter= 14 NonCon=     1 RMS=7.96D-08 Max=7.60D-07 NDo=     1
 LinEq1:  Iter= 15 NonCon=     1 RMS=1.98D-08 Max=2.49D-07 NDo=     1
 LinEq1:  Iter= 16 NonCon=     1 RMS=1.05D-08 Max=2.41D-07 NDo=     1
 LinEq1:  Iter= 17 NonCon=     1 RMS=2.09D-09 Max=1.83D-08 NDo=     1
 LinEq1:  Iter= 18 NonCon=     1 RMS=5.41D-10 Max=9.03D-09 NDo=     1
 LinEq1:  Iter= 19 NonCon=     1 RMS=2.58D-10 Max=3.91D-09 NDo=     1
 LinEq1:  Iter= 20 NonCon=     1 RMS=1.06D-10 Max=2.82D-09 NDo=     1
 LinEq1:  Iter= 21 NonCon=     0 RMS=2.44D-11 Max=4.20D-10 NDo=     1
 Linear equations converged to 1.000D-10 1.000D-09 after    21 iterations.
 End of Minotr F.D. properties file   721 does not exist.
 End of Minotr F.D. properties file   722 does not exist.
 End of Minotr F.D. properties file   788 does not exist.
 Calling FoFJK, ICntrl=  10005127 FMM=F ISym2X=0 I1Cent= 0 IOpClX= 0 NMat=1 NMatS=1 NMatT=0.
 ***** Axes restored to original set *****
 -------------------------------------------------------------------
 Center     Atomic                   Forces (Hartrees/Bohr)
 Number     Number              X              Y              Z
 -------------------------------------------------------------------
      1        6          -0.002579176   -0.017565178   -0.000005912
      2        6          -0.006902439    0.017472723    0.000004974
      3        6           0.011340690   -0.004636123   -0.000002133
      4        6          -0.001313267    0.004898791   -0.000018534
      5        6           0.000963536   -0.002336424    0.000002237
      6        6           0.006153130    0.005524616    0.000003751
      7        7          -0.001317882    0.003555489    0.000036434
      8        6          -0.009624485    0.001891182   -0.000009914
      9        6           0.004367029   -0.007510854   -0.000004496
     10        1           0.000463334   -0.001321930   -0.000012779
     11        1          -0.000346212    0.000338350    0.000003019
     12        1          -0.001451777   -0.001077719   -0.000000054
     13        1           0.000941412   -0.000033557    0.000001648
     14        1           0.000196122    0.000554436    0.000000235
     15        1           0.000435474    0.001102785   -0.000000210
     16        1          -0.001325489   -0.000856585    0.000001733
 -------------------------------------------------------------------
 Cartesian Forces:  Max     0.017565178 RMS     0.004820511

 GradGradGradGradGradGradGradGradGradGradGradGradGradGradGradGradGradGrad
 Berny optimization.
 Using GEDIIS/GDIIS optimizer.
 FormGI is forming the generalized inverse of G from B-inverse, IUseBI=4.
 Internal  Forces:  Max     0.012694649 RMS     0.002283614
 Search for a local minimum.
 Step number   2 out of a maximum of   94
 All quantities printed in internal units (Hartrees-Bohrs-Radians)
 Mixed Optimization -- RFO/linear search
 Update second derivatives using D2CorX and points    1    2
 DE= -6.46D-03 DEPred=-6.28D-03 R= 1.03D+00
 TightC=F SS=  1.41D+00  RLast= 1.76D-01 DXNew= 5.0454D-01 5.2930D-01
 Trust test= 1.03D+00 RLast= 1.76D-01 DXMaxT set to 5.05D-01
 ITU=  1  0
 Use linear search instead of GDIIS.
     Eigenvalues ---    0.01851   0.01931   0.01986   0.02012   0.02069
     Eigenvalues ---    0.02113   0.02143   0.02150   0.02172   0.02209
     Eigenvalues ---    0.02234   0.02248   0.02340   0.15876   0.16000
     Eigenvalues ---    0.16000   0.16000   0.16000   0.16000   0.16025
     Eigenvalues ---    0.20765   0.22031   0.22906   0.24352   0.24811
     Eigenvalues ---    0.35616   0.35717   0.35740   0.35812   0.36120
     Eigenvalues ---    0.36453   0.36640   0.38243   0.39048   0.42771
     Eigenvalues ---    0.44345   0.46369   0.47168   0.47238   0.47683
     Eigenvalues ---    0.50605   0.57577
 RFO step:  Lambda=-1.18616670D-03 EMin= 1.85062195D-02
 Quartic linear search produced a step of  0.08489.
 Iteration  1 RMS(Cart)=  0.00903184 RMS(Int)=  0.00004196
 Iteration  2 RMS(Cart)=  0.00005180 RMS(Int)=  0.00001401
 Iteration  3 RMS(Cart)=  0.00000000 RMS(Int)=  0.00001401
 Variable       Old X    -DE/DX   Delta X   Delta X   Delta X     New X
                                 (Linear)    (Quad)   (Total)
    R1        2.65621  -0.01269   0.00006  -0.03053  -0.03048   2.62573
    R2        2.69878   0.00412   0.00729   0.01043   0.01772   2.71650
    R3        2.05225   0.00014   0.00068   0.00054   0.00122   2.05347
    R4        2.69772   0.00724   0.00697   0.01731   0.02427   2.72199
    R5        2.04919  -0.00080   0.00043  -0.00235  -0.00191   2.04727
    R6        2.66083  -0.00531   0.00230  -0.01206  -0.00976   2.65107
    R7        2.05200  -0.00055   0.00057  -0.00157  -0.00100   2.05099
    R8        2.70395  -0.00375   0.00198  -0.01037  -0.00840   2.69555
    R9        2.59016  -0.00256  -0.00094  -0.00647  -0.00740   2.58277
   R10        2.66712  -0.00162   0.00165  -0.00361  -0.00195   2.66518
   R11        2.72890  -0.00516   0.00174  -0.01320  -0.01148   2.71742
   R12        2.05223  -0.00082   0.00059  -0.00238  -0.00179   2.05044
   R13        2.63403  -0.00464   0.00240  -0.00941  -0.00698   2.62705
   R14        1.91088   0.00140   0.00131   0.00342   0.00473   1.91561
   R15        2.61289   0.00671   0.00290   0.01541   0.01832   2.63121
   R16        2.04354   0.00020   0.00079   0.00072   0.00151   2.04505
   R17        2.04031  -0.00131   0.00051  -0.00381  -0.00330   2.03702
    A1        2.13868   0.00135   0.00208   0.00729   0.00936   2.14804
    A2        2.06871   0.00053  -0.00095   0.00449   0.00355   2.07226
    A3        2.07580  -0.00188  -0.00113  -0.01178  -0.01291   2.06289
    A4        2.09240   0.00033  -0.00194   0.00139  -0.00058   2.09183
    A5        2.09018   0.00035   0.00055   0.00267   0.00324   2.09342
    A6        2.10060  -0.00068   0.00138  -0.00406  -0.00266   2.09794
    A7        2.04226  -0.00156  -0.00078  -0.00819  -0.00899   2.03327
    A8        2.12124   0.00100   0.00073   0.00563   0.00637   2.12761
    A9        2.11969   0.00056   0.00005   0.00256   0.00262   2.12231
   A10        2.16287   0.00110   0.00246   0.00611   0.00857   2.17144
   A11        2.27666  -0.00392  -0.00019  -0.01509  -0.01528   2.26138
   A12        1.84366   0.00283  -0.00227   0.00898   0.00671   1.85037
   A13        2.06349   0.00085  -0.00079   0.00372   0.00298   2.06647
   A14        1.87085  -0.00106   0.00048  -0.00554  -0.00512   1.86573
   A15        2.34884   0.00021   0.00030   0.00182   0.00214   2.35098
   A16        2.06667  -0.00207  -0.00104  -0.01032  -0.01134   2.05533
   A17        2.11184  -0.00035   0.00075  -0.00412  -0.00338   2.10846
   A18        2.10467   0.00242   0.00029   0.01444   0.01472   2.11940
   A19        1.96120  -0.00006   0.00457  -0.00033   0.00428   1.96548
   A20        2.16064   0.00008  -0.00251   0.00042  -0.00211   2.15852
   A21        2.16135  -0.00001  -0.00205  -0.00009  -0.00217   2.15918
   A22        1.88649   0.00042   0.00143   0.00502   0.00643   1.89292
   A23        2.20983  -0.00066  -0.00062  -0.00553  -0.00615   2.20369
   A24        2.18686   0.00024  -0.00080   0.00051  -0.00028   2.18658
   A25        1.86257  -0.00212  -0.00421  -0.00812  -0.01229   1.85028
   A26        2.12545  -0.00021   0.00195  -0.00451  -0.00258   2.12286
   A27        2.29517   0.00233   0.00226   0.01263   0.01487   2.31005
    D1        0.00011  -0.00000   0.00001  -0.00009  -0.00008   0.00003
    D2       -3.14151  -0.00000   0.00000  -0.00009  -0.00008   3.14159
    D3       -3.14155  -0.00000   0.00001  -0.00002  -0.00001  -3.14155
    D4        0.00002  -0.00000   0.00000  -0.00001  -0.00001   0.00001
    D5        0.00001   0.00000   0.00000   0.00008   0.00008   0.00008
    D6        3.14155   0.00000   0.00000   0.00006   0.00006  -3.14157
    D7       -3.14152  -0.00000   0.00000   0.00000   0.00000  -3.14152
    D8        0.00002  -0.00000   0.00000  -0.00001  -0.00001   0.00001
    D9       -0.00012   0.00000  -0.00001   0.00007   0.00006  -0.00007
   D10       -3.14149  -0.00000   0.00000  -0.00003  -0.00003  -3.14151
   D11        3.14150   0.00000  -0.00001   0.00007   0.00006   3.14156
   D12        0.00014  -0.00000   0.00001  -0.00003  -0.00002   0.00011
   D13        0.00003  -0.00000   0.00000  -0.00005  -0.00004  -0.00001
   D14       -3.14134  -0.00001   0.00001  -0.00023  -0.00022  -3.14156
   D15        3.14139   0.00000  -0.00001   0.00006   0.00004   3.14144
   D16        0.00002  -0.00000  -0.00001  -0.00013  -0.00014  -0.00012
   D17        0.00008   0.00000   0.00001   0.00003   0.00004   0.00012
   D18        3.14156   0.00000  -0.00001   0.00005   0.00004  -3.14158
   D19        3.14150   0.00000   0.00001   0.00018   0.00018  -3.14150
   D20       -0.00021   0.00000  -0.00001   0.00020   0.00018  -0.00002
   D21       -3.14149  -0.00000  -0.00002  -0.00008  -0.00010   3.14159
   D22       -0.00098   0.00001   0.00001   0.00037   0.00038  -0.00061
   D23        0.00029  -0.00000  -0.00002  -0.00024  -0.00026   0.00003
   D24        3.14080   0.00000   0.00002   0.00021   0.00022   3.14102
   D25       -0.00010  -0.00000  -0.00001  -0.00005  -0.00006  -0.00015
   D26        3.14154  -0.00000  -0.00001  -0.00003  -0.00004   3.14150
   D27       -3.14154  -0.00000   0.00001  -0.00007  -0.00006   3.14159
   D28        0.00010  -0.00000   0.00001  -0.00006  -0.00004   0.00006
   D29        0.00006  -0.00000   0.00004  -0.00009  -0.00005   0.00000
   D30        3.14154  -0.00000   0.00001  -0.00002  -0.00000   3.14153
   D31        3.14151  -0.00000   0.00002  -0.00007  -0.00005   3.14146
   D32       -0.00019   0.00000  -0.00001   0.00001  -0.00000  -0.00020
   D33       -0.00026   0.00000   0.00004   0.00019   0.00023  -0.00003
   D34        3.14157   0.00000   0.00002   0.00016   0.00018  -3.14144
   D35       -3.14077  -0.00000   0.00001  -0.00026  -0.00025  -3.14102
   D36        0.00106  -0.00001  -0.00001  -0.00029  -0.00030   0.00076
   D37        0.00012  -0.00000  -0.00005  -0.00005  -0.00010   0.00002
   D38        3.14144  -0.00000  -0.00003  -0.00002  -0.00004   3.14140
   D39       -3.14137  -0.00000  -0.00002  -0.00013  -0.00015  -3.14152
   D40       -0.00004  -0.00000   0.00000  -0.00009  -0.00009  -0.00013
         Item               Value     Threshold  Converged?
 Maximum Force            0.012695     0.000450     NO 
 RMS     Force            0.002284     0.000300     NO 
 Maximum Displacement     0.039581     0.001800     NO 
 RMS     Displacement     0.009042     0.001200     NO 
 Predicted change in Energy=-6.274176D-04
 GradGradGradGradGradGradGradGradGradGradGradGradGradGradGradGradGradGrad

                          Input orientation:                          
 ---------------------------------------------------------------------
 Center     Atomic      Atomic             Coordinates (Angstroms)
 Number     Number       Type             X           Y           Z
 ---------------------------------------------------------------------
      1          6           0       -2.176520    0.665819    0.000007
      2          6           0       -2.174037   -0.723656   -0.000007
      3          6           0       -0.923475   -1.438425    0.000055
      4          6           0        0.242957   -0.658983    0.000042
      5          6           0        0.259445    0.767346   -0.000034
      6          6           0       -0.973329    1.452441    0.000046
      7          7           0        1.552184   -1.051288    0.000056
      8          6           0        1.640090    1.169409   -0.000034
      9          6           0        2.432592    0.024573    0.000035
     10          1           0        1.848455   -2.020723    0.000591
     11          1           0        2.010677    2.186175   -0.000135
     12          1           0        3.500906   -0.119174   -0.000098
[...]
 ! D9    D(1,2,3,4)             -0.0022         -DE/DX =    0.0                 !
 ! D10   D(1,2,3,14)          -179.9975         -DE/DX =    0.0                 !
 ! D11   D(13,2,3,4)           179.9983         -DE/DX =    0.0                 !
 ! D12   D(13,2,3,14)            0.0029         -DE/DX =    0.0                 !
 ! D13   D(2,3,4,5)              0.0022         -DE/DX =    0.0                 !
 ! D14   D(2,3,4,7)           -180.0001         -DE/DX =    0.0                 !
 ! D15   D(14,3,4,5)           179.9975         -DE/DX =    0.0                 !
 ! D16   D(14,3,4,7)            -0.0049         -DE/DX =    0.0                 !
 ! D17   D(3,4,5,6)             -0.0003         -DE/DX =    0.0                 !
 ! D18   D(3,4,5,8)            179.9985         -DE/DX =    0.0                 !
 ! D19   D(7,4,5,6)           -179.9984         -DE/DX =    0.0                 !
 ! D20   D(7,4,5,8)              0.0005         -DE/DX =    0.0                 !
 ! D21   D(3,4,7,9)           -179.9974         -DE/DX =    0.0                 !
 ! D22   D(3,4,7,10)             0.0005         -DE/DX =    0.0                 !
 ! D23   D(5,4,7,9)              0.0006         -DE/DX =    0.0                 !
 ! D24   D(5,4,7,10)           179.9985         -DE/DX =    0.0                 !
 ! D25   D(4,5,6,1)             -0.0018         -DE/DX =    0.0                 !
 ! D26   D(4,5,6,16)           179.9994         -DE/DX =    0.0                 !
 ! D27   D(8,5,6,1)           -180.0002         -DE/DX =    0.0                 !
 ! D28   D(8,5,6,16)             0.0009         -DE/DX =    0.0                 !
 ! D29   D(4,5,8,9)             -0.0013         -DE/DX =    0.0                 !
 ! D30   D(4,5,8,11)          -179.9997         -DE/DX =    0.0                 !
 ! D31   D(6,5,8,9)            179.9973         -DE/DX =    0.0                 !
 ! D32   D(6,5,8,11)            -0.0011         -DE/DX =    0.0                 !
 ! D33   D(4,7,9,8)             -0.0014         -DE/DX =    0.0                 !
 ! D34   D(4,7,9,12)          -179.9978         -DE/DX =    0.0                 !
 ! D35   D(10,7,9,8)          -179.9993         -DE/DX =    0.0                 !
 ! D36   D(10,7,9,12)            0.0043         -DE/DX =    0.0                 !
 ! D37   D(5,8,9,7)              0.0016         -DE/DX =    0.0                 !
 ! D38   D(5,8,9,12)           179.9976         -DE/DX =    0.0                 !
 ! D39   D(11,8,9,7)           180.0001         -DE/DX =    0.0                 !
 ! D40   D(11,8,9,12)           -0.0039         -DE/DX =    0.0                 !
 --------------------------------------------------------------------------------
 GradGradGradGradGradGradGradGradGradGradGradGradGradGradGradGradGradGrad

                          Input orientation:                          
 ---------------------------------------------------------------------
 Center     Atomic      Atomic             Coordinates (Angstroms)
 Number     Number       Type             X           Y           Z
 ---------------------------------------------------------------------
      1          6           0       -2.180600    0.685055   -0.000014
      2          6           0       -2.150573   -0.695085    0.000043
      3          6           0       -0.905688   -1.441179    0.000104
      4          6           0        0.243542   -0.656293    0.000052
      5          6           0        0.246063    0.752231   -0.000006
      6          6           0       -0.991943    1.467686   -0.000021
      7          7           0        1.589915   -1.062379    0.000090
      8          6           0        1.597197    1.161114   -0.000012
      9          6           0        2.421602   -0.012291    0.000074
     10          1           0        1.885021   -2.030795    0.000157
     11          1           0        1.976483    2.174466   -0.000046
     12          1           0        3.495542   -0.120746    0.000063
     13          1           0       -3.083380   -1.250671    0.000050
     14          1           0       -0.886308   -2.524320    0.000108
     15          1           0       -3.142058    1.189815   -0.000050
     16          1           0       -1.017913    2.550837   -0.000054
 ---------------------------------------------------------------------
                    Distance matrix (angstroms):
                    1          2          3          4          5
     1  C    0.000000
     2  C    1.380467   0.000000
     3  C    2.479168   1.451343   0.000000
     4  C    2.770501   2.394429   1.391681   0.000000
     5  C    2.427593   2.799748   2.477414   1.408526   0.000000
     6  C    1.423172   2.453570   2.910144   2.457175   1.429873
     7  N    4.155756   3.758478   2.524188   1.406282   2.258041
     8  C    3.807674   4.182255   3.610590   2.266131   1.411647
     9  C    4.654734   4.622877   3.621129   2.271274   2.305962
    10  H    4.889286   4.250899   2.852315   2.140961   3.229771
    11  H    4.415844   5.026620   4.623829   3.319078   2.239889
    12  H    5.733053   5.675251   4.595037   3.295803   3.364699
    13  H    2.135895   1.085728   2.186009   3.379599   3.885461
    14  H    3.460531   2.223615   1.083314   2.183137   3.466706
    15  H    1.085903   2.129763   3.453040   3.856216   3.416262
    16  H    2.198405   3.437867   3.993594   3.446295   2.198322
                    6          7          8          9         10
     6  C    0.000000
     7  N    3.614861   0.000000
     8  C    2.607227   2.223505   0.000000
     9  C    3.720567   1.339547   1.434058   0.000000
    10  H    4.529492   1.012382   3.204860   2.088607   0.000000
    11  H    3.051408   3.259846   1.082007   2.231599   4.206255
    12  H    4.760319   2.125579   2.290606   1.079402   2.498412
    13  H    3.429807   4.677087   5.265407   5.642553   5.029275
    14  H    3.993403   2.875579   4.444122   4.153620   2.814930
    15  H    2.167996   5.240606   4.739342   5.692044   5.970248
    16  H    1.083462   4.456018   2.961441   4.289509   5.423871
                   11         12         13         14         15
    11  H    0.000000
    12  H    2.752369   0.000000
    13  H    6.110137   6.675248   0.000000
    14  H    5.502196   4.997777   2.539548   0.000000
    15  H    5.212389   6.765745   2.441192   4.345481   0.000000
    16  H    3.017957   5.244867   4.326387   5.076863   2.522771
                   16
    16  H    0.000000
 Stoichiometry    C8H7N
 Framework group  C1[X(C8H7N)]
 Deg. of freedom    42
 Full point group                 C1      NOp   1
 Largest Abelian subgroup         C1      NOp   1
 Largest concise Abelian subgroup C1      NOp   1
                         Standard orientation:                         
 ---------------------------------------------------------------------
 Center     Atomic      Atomic             Coordinates (Angstroms)
 Number     Number       Type             X           Y           Z
 ---------------------------------------------------------------------
      1          6           0       -2.193294    0.643087   -0.000049
      2          6           0       -2.138008   -0.736272    0.000008
      3          6           0       -0.879673   -1.459452    0.000069
      4          6           0        0.254995   -0.653659    0.000017
      5          6           0        0.231732    0.754674   -0.000041
      6          6           0       -1.019164    1.447347   -0.000056
      7          7           0        1.608577   -1.035031    0.000055
      8          6           0        1.575155    1.188223   -0.000047
      9          6           0        2.420902    0.030106    0.000039
     10          1           0        1.921362   -1.997883    0.000122
     11          1           0        1.935827    2.208348   -0.000081
     12          1           0        3.496647   -0.058671    0.000028
     13          1           0       -3.060488   -1.308841    0.000015
     14          1           0       -0.840469   -2.542056    0.000073
     15          1           0       -3.163832    1.130162   -0.000085
     16          1           0       -1.064957    2.529841   -0.000089
 ---------------------------------------------------------------------
 Rotational constants (GHZ):           3.8578653           1.6131479           1.1375055

 **********************************************************************

            Population analysis using the CI Density.

 **********************************************************************

 Orbital symmetries:
       Occupied  (A) (A) (A) (A) (A) (A) (A) (A) (A) (A) (A) (A)
                 (A) (A) (A) (A) (A) (A) (A) (A) (A) (A) (A) (A)
                 (A) (A) (A) (A) (A) (A) (A)
       Virtual   (A) (A) (A) (A) (A) (A) (A) (A) (A) (A) (A) (A)
                 (A) (A) (A) (A) (A) (A) (A) (A) (A) (A) (A) (A)
                 (A) (A) (A) (A) (A) (A) (A) (A) (A) (A) (A) (A)
                 (A) (A) (A) (A) (A) (A) (A) (A) (A) (A) (A) (A)
                 (A) (A) (A) (A) (A) (A) (A) (A) (A) (A) (A) (A)
                 (A) (A) (A) (A) (A) (A) (A) (A) (A) (A) (A) (A)
                 (A) (A) (A) (A) (A) (A) (A) (A) (A) (A) (A) (A)
                 (A) (A) (A) (A) (A) (A) (A) (A) (A) (A) (A) (A)
                 (A) (A) (A) (A) (A) (A) (A) (A) (A) (A) (A) (A)
                 (A) (A) (A) (A) (A) (A) (A) (A) (A) (A) (A) (A)
                 (A) (A) (A) (A) (A) (A) (A) (A) (A) (A) (A) (A)
                 (A) (A) (A) (A) (A) (A) (A) (A) (A) (A) (A) (A)
                 (A) (A) (A) (A) (A) (A) (A) (A) (A) (A)
 The electronic state is 1-A.
 Alpha  occ. eigenvalues --  -14.81474 -10.59299 -10.58633 -10.56214 -10.55546
 Alpha  occ. eigenvalues --  -10.55216 -10.55029 -10.54709 -10.53913  -1.09840
 Alpha  occ. eigenvalues --   -0.94058  -0.87488  -0.83719  -0.80013  -0.71372
 Alpha  occ. eigenvalues --   -0.67928  -0.65802  -0.61799  -0.55677  -0.54461
 Alpha  occ. eigenvalues --   -0.50591  -0.49972  -0.49939  -0.46842  -0.45542
 Alpha  occ. eigenvalues --   -0.40863  -0.40524  -0.40132  -0.33246  -0.28469
 Alpha  occ. eigenvalues --   -0.24142
 Alpha virt. eigenvalues --    0.00099   0.00593   0.02567   0.03096   0.04271
 Alpha virt. eigenvalues --    0.04563   0.05146   0.06594   0.06663   0.06960
 Alpha virt. eigenvalues --    0.07322   0.07597   0.09833   0.10222   0.10841
 Alpha virt. eigenvalues --    0.10929   0.12510   0.13853   0.14605   0.15055
 Alpha virt. eigenvalues --    0.16040   0.16079   0.17316   0.17887   0.18719
 Alpha virt. eigenvalues --    0.19511   0.19700   0.20399   0.21033   0.21358
 Alpha virt. eigenvalues --    0.22427   0.22951   0.23050   0.23745   0.24777
 Alpha virt. eigenvalues --    0.25045   0.25081   0.25945   0.26652   0.27529
 Alpha virt. eigenvalues --    0.28624   0.29023   0.30504   0.31428   0.32507
 Alpha virt. eigenvalues --    0.33735   0.34302   0.35893   0.37655   0.38923
 Alpha virt. eigenvalues --    0.40642   0.42449   0.46766   0.49026   0.55396
 Alpha virt. eigenvalues --    0.62300   0.65416   0.70938   0.71795   0.74414
 Alpha virt. eigenvalues --    0.75761   0.76927   0.77155   0.77959   0.78187
 Alpha virt. eigenvalues --    0.80235   0.80837   0.82015   0.83287   0.83859
 Alpha virt. eigenvalues --    0.85341   0.89861   0.93261   0.94719   0.95866
 Alpha virt. eigenvalues --    0.99174   0.99840   1.00623   1.01483   1.03395
 Alpha virt. eigenvalues --    1.04444   1.07398   1.09425   1.10997   1.12645
 Alpha virt. eigenvalues --    1.14971   1.16418   1.20847   1.21083   1.24212
 Alpha virt. eigenvalues --    1.25725   1.28008   1.29432   1.35317   1.37302
 Alpha virt. eigenvalues --    1.39140   1.40174   1.43495   1.46028   1.47147
 Alpha virt. eigenvalues --    1.52461   1.52799   1.54749   1.55452   1.57408
 Alpha virt. eigenvalues --    1.61505   1.66488   1.82225   1.85777   1.92405
 Alpha virt. eigenvalues --    1.93570   1.94333   1.98581   2.03714   2.04597
 Alpha virt. eigenvalues --    2.04737   2.07558   2.10416   2.16169   2.19246
 Alpha virt. eigenvalues --    2.20077   2.23680   2.25279   2.27835   2.31157
 Alpha virt. eigenvalues --    2.31541   2.34080   2.39952   2.43473   2.48972
 Alpha virt. eigenvalues --    2.55332   2.58219   2.63492   2.66674   2.67769
 Alpha virt. eigenvalues --    2.69006   2.74888   2.81704   2.85237   2.86297
 Alpha virt. eigenvalues --    2.95881   2.99143   3.10365   3.24025   3.40632
 Alpha virt. eigenvalues --    4.17728   4.26690   4.30583   4.33834   4.38195
 Alpha virt. eigenvalues --    4.42631   4.49816   4.53970   4.79451
          Condensed to atoms (all electrons):
               1          2          3          4          5          6
     1  C    5.532302   0.485513   0.285385  -0.349659  -0.171501  -0.106364
     2  C    0.485513   5.804221  -0.390195   0.215177  -0.338750   0.560093
     3  C    0.285385  -0.390195  13.038985  -0.938404  -4.462658  -2.812514
     4  C   -0.349659   0.215177  -0.938404  12.251395  -3.917416  -1.741801
     5  C   -0.171501  -0.338750  -4.462658  -3.917416  15.133550   0.683967
     6  C   -0.106364   0.560093  -2.812514  -1.741801   0.683967  12.445349
     7  N   -0.023552   0.019324  -0.544414  -0.262894   0.871477   0.097280
     8  C    0.152766  -0.351652   3.055343   2.537157  -5.008419  -3.663771
     9  C   -0.089438   0.043031  -1.033336  -0.873794   1.747261   0.976946
    10  H   -0.003757  -0.002662  -0.133215  -0.067475   0.173554   0.022778
    11  H    0.002858   0.000572   0.005969   0.032748  -0.026475  -0.006208
    12  H    0.001042  -0.000135   0.023282   0.075760  -0.074375  -0.012945
    13  H    0.009486   0.291973  -0.028102   0.018122   0.005709   0.012318
    14  H    0.011317   0.042335   0.209977   0.040838   0.005703  -0.005737
    15  H    0.298297   0.002830   0.025381  -0.021331   0.041306  -0.042351
    16  H    0.015845   0.007215  -0.024702   0.036776   0.103933   0.201870
               7          8          9         10         11         12
     1  C   -0.023552   0.152766  -0.089438  -0.003757   0.002858   0.001042
     2  C    0.019324  -0.351652   0.043031  -0.002662   0.000572  -0.000135
     3  C   -0.544414   3.055343  -1.033336  -0.133215   0.005969   0.023282
     4  C   -0.262894   2.537157  -0.873794  -0.067475   0.032748   0.075760
     5  C    0.871477  -5.008419   1.747261   0.173554  -0.026475  -0.074375
     6  C    0.097280  -3.663771   0.976946   0.022778  -0.006208  -0.012945
     7  N    7.176444  -0.688675   0.557638   0.275518   0.007082  -0.047975
     8  C   -0.688675  11.329778  -1.758231  -0.022386   0.332752   0.030422
     9  C    0.557638  -1.758231   6.418464  -0.006857  -0.043472   0.325529
    10  H    0.275518  -0.022386  -0.006857   0.303813  -0.000062  -0.002165
    11  H    0.007082   0.332752  -0.043472  -0.000062   0.450854  -0.000429
    12  H   -0.047975   0.030422   0.325529  -0.002165  -0.000429   0.437699
    13  H   -0.000382  -0.000413   0.001268  -0.000002   0.000000  -0.000000
    14  H   -0.000928  -0.014273   0.013033   0.001681   0.000002   0.000002
    15  H    0.000257   0.006237  -0.000186  -0.000000  -0.000002  -0.000000
    16  H   -0.000780  -0.044207   0.004844   0.000003   0.001277  -0.000001
              13         14         15         16
     1  C    0.009486   0.011317   0.298297   0.015845
     2  C    0.291973   0.042335   0.002830   0.007215
     3  C   -0.028102   0.209977   0.025381  -0.024702
     4  C    0.018122   0.040838  -0.021331   0.036776
     5  C    0.005709   0.005703   0.041306   0.103933
     6  C    0.012318  -0.005737  -0.042351   0.201870
     7  N   -0.000382  -0.000928   0.000257  -0.000780
     8  C   -0.000413  -0.014273   0.006237  -0.044207
     9  C    0.001268   0.013033  -0.000186   0.004844
    10  H   -0.000002   0.001681  -0.000000   0.000003
    11  H    0.000000   0.000002  -0.000002   0.001277
    12  H   -0.000000   0.000002  -0.000000  -0.000001
    13  H    0.501348  -0.002929  -0.004264  -0.000125
    14  H   -0.002929   0.500506  -0.000117   0.000012
    15  H   -0.004264  -0.000117   0.502703  -0.002986
    16  H   -0.000125   0.000012  -0.002986   0.500146
 Mulliken charges:
               1
     1  C   -0.050540
     2  C   -0.388891
     3  C   -0.276781
     4  C   -1.035200
     5  C    1.233135
     6  C   -0.608909
     7  N   -0.435419
     8  C    0.107571
     9  C   -0.282700
    10  H    0.461232
    11  H    0.242535
    12  H    0.244288
    13  H    0.195992
    14  H    0.198578
    15  H    0.194226
    16  H    0.200882
 Sum of Mulliken charges =  -0.00000
 Mulliken charges with hydrogens summed into heavy atoms:
               1
     1  C    0.143686
     2  C   -0.192899
     3  C   -0.078202
     4  C   -1.035200
     5  C    1.233135
     6  C   -0.408027
     7  N    0.025814
     8  C    0.350106
     9  C   -0.038412
 Electronic spatial extent (au):  <R**2>=           1022.9337
 Charge=              0.0000 electrons
 Dipole moment (field-independent basis, Debye):
    X=              4.4249    Y=             -1.4096    Z=             -0.0002  Tot=              4.6440
 Quadrupole moment (field-independent basis, Debye-Ang):
   XX=            -44.5100   YY=            -46.7509   ZZ=            -61.3052
   XY=             -2.3289   XZ=             -0.0001   YZ=             -0.0003
 Traceless Quadrupole moment (field-independent basis, Debye-Ang):
   XX=              6.3454   YY=              4.1044   ZZ=            -10.4498
   XY=             -2.3289   XZ=             -0.0001   YZ=             -0.0003
 Octapole moment (field-independent basis, Debye-Ang**2):
  XXX=             29.3216  YYY=             -9.7706  ZZZ=             -0.0017  XYY=             15.5841
  XXY=             -7.3233  XXZ=             -0.0010  XZZ=              5.1124  YZZ=             -1.5525
  YYZ=             -0.0011  XYZ=             -0.0004
 Hexadecapole moment (field-independent basis, Debye-Ang**3):
 XXXX=           -843.6683 YYYY=           -401.3639 ZZZZ=            -89.6917 XXXY=            -18.1822
 XXXZ=             -0.0079 YYYX=            -14.8942 YYYZ=              0.0062 ZZZX=             -0.0073
 ZZZY=              0.0112 XXYY=           -198.8991 XXZZ=           -203.5081 YYZZ=           -107.1523
 XXYZ=              0.0005 YYXZ=             -0.0005 ZZXY=             -1.5803
 N-N= 3.981479127629D+02 E-N=-1.638082009712D+03  KE= 3.603440472399D+02
 Unable to Open any file for archive entry.
 1\1\GINC-EXP-2-15\FOpt\RM062X TD-FC\6-31+G(d)\C8H7N1\SCAPARAS\11-Jun-2
 021\0\\# td= (nstates=6, root=1) M062X/6-31+G* Opt density=current\\Fu
 ncsM062XII1st\\0,1\C,-2.1805997738,0.6850549525,-0.0000135873\C,-2.150
 5727881,-0.6950850294,0.0000427063\C,-0.9056877836,-1.4411792637,0.000
 1035521\C,0.2435415496,-0.6562925343,0.0000515619\C,0.2460634405,0.752
 2311851,-0.0000064012\C,-0.9919427787,1.4676863213,-0.0000205541\N,1.5
 899152791,-1.0623790086,0.0000900994\C,1.5971971543,1.1611140592,-0.00
 0011959\C,2.4216018241,-0.0122909876,0.0000736583\H,1.8850211416,-2.03
 07950719,0.0001565522\H,1.9764831396,2.1744655476,-0.0000462685\H,3.49
 55416046,-0.1207459908,0.0000626937\H,-3.0833798811,-1.2506711583,0.00
 00499426\H,-0.8863083461,-2.5243196424,0.0001081203\H,-3.1420579949,1.
 189815365,-0.0000497103\H,-1.0179127872,2.5508372563,-0.0000544063\\Ve
 rsion=AS64L-G16RevC.01\State=1-A\HF=-363.6598459\RMSD=8.182e-09\RMSF=5
 .191e-05\Dipole=1.740878,-0.5545747,-0.0000787\Quadrupole=4.7176266,3.
 0515517,-7.7691783,-1.7314621,-0.0000649,-0.0002258\PG=C01 [X(C8H7N1)]
 \\@
 The archive entry for this job was punched.


 UNLESS WE CHANGE DIRECTIONS, WE WILL WIND UP WHERE WE ARE HEADED.
     -- CONFUCIUS
 Job cpu time:       0 days  6 hours 42 minutes 31.0 seconds.
 Elapsed time:       0 days  1 hours 41 minutes 42.7 seconds.
 File lengths (MBytes):  RWF=    239 Int=      0 D2E=      0 Chk=     11 Scr=      1
 Normal termination of Gaussian 16 at Fri Jun 11 09:19:47 2021.
