 Entering Gaussian System, Link 0=/cm/shared/apps/spack/cpu/opt/spack/linux-centos8-zen/gcc-8.3.1/gaussian-16.C.01-po5bqktfeugvmjyga3v7eigbecnokxng/g16/g16
 Initial command:
 /cm/shared/apps/spack/cpu/opt/spack/linux-centos8-zen/gcc-8.3.1/gaussian-16.C.01-po5bqktfeugvmjyga3v7eigbecnokxng/g16/l1.exe "/scratch/scaparas/job_3447321/Gau-124267.inp" -scrdir="/scratch/scaparas/job_3447321/"
 Entering Link 1 = /cm/shared/apps/spack/cpu/opt/spack/linux-centos8-zen/gcc-8.3.1/gaussian-16.C.01-po5bqktfeugvmjyga3v7eigbecnokxng/g16/l1.exe PID=    124268.
  
 Copyright (c) 1988-2019, Gaussian, Inc.  All Rights Reserved.
  
 This is part of the Gaussian(R) 16 program.  It is based on
 the Gaussian(R) 09 system (copyright 2009, Gaussian, Inc.),
 the Gaussian(R) 03 system (copyright 2003, Gaussian, Inc.),
 the Gaussian(R) 98 system (copyright 1998, Gaussian, Inc.),
 the Gaussian(R) 94 system (copyright 1995, Gaussian, Inc.),
 the Gaussian 92(TM) system (copyright 1992, Gaussian, Inc.),
 the Gaussian 90(TM) system (copyright 1990, Gaussian, Inc.),
 the Gaussian 88(TM) system (copyright 1988, Gaussian, Inc.),
 the Gaussian 86(TM) system (copyright 1986, Carnegie Mellon
 University), and the Gaussian 82(TM) system (copyright 1983,
 Carnegie Mellon University). Gaussian is a federally registered
 trademark of Gaussian, Inc.
  
 This software contains proprietary and confidential information,
 including trade secrets, belonging to Gaussian, Inc.
  
 This software is provided under written license and may be
 used, copied, transmitted, or stored only in accord with that
 written license.
  
 The following legend is applicable only to US Government
 contracts under FAR:
  
                    RESTRICTED RIGHTS LEGEND
  
 Use, reproduction and disclosure by the US Government is
 subject to restrictions as set forth in subparagraphs (a)
 and (c) of the Commercial Computer Software - Restricted
 Rights clause in FAR 52.227-19.
  
 Gaussian, Inc.
 340 Quinnipiac St., Bldg. 40, Wallingford CT 06492
  
  
 ---------------------------------------------------------------
 Warning -- This program may not be used in any manner that
 competes with the business of Gaussian, Inc. or will provide
 assistance to any competitor of Gaussian, Inc.  The licensee
 of this program is prohibited from giving any competitor of
 Gaussian, Inc. access to this program.  By using this program,
 the user acknowledges that Gaussian, Inc. is engaged in the
 business of creating and licensing software in the field of
 computational chemistry and represents and warrants to the
 licensee that it is not a competitor of Gaussian, Inc. and that
 it will not use this program in any manner prohibited above.
 ---------------------------------------------------------------
  

 Cite this work as:
 Gaussian 16, Revision C.01,
 M. J. Frisch, G. W. Trucks, H. B. Schlegel, G. E. Scuseria, 
 M. A. Robb, J. R. Cheeseman, G. Scalmani, V. Barone, 
 G. A. Petersson, H. Nakatsuji, X. Li, M. Caricato, A. V. Marenich, 
 J. Bloino, B. G. Janesko, R. Gomperts, B. Mennucci, H. P. Hratchian, 
 J. V. Ortiz, A. F. Izmaylov, J. L. Sonnenberg, D. Williams-Young, 
 F. Ding, F. Lipparini, F. Egidi, J. Goings, B. Peng, A. Petrone, 
 T. Henderson, D. Ranasinghe, V. G. Zakrzewski, J. Gao, N. Rega, 
 G. Zheng, W. Liang, M. Hada, M. Ehara, K. Toyota, R. Fukuda, 
 J. Hasegawa, M. Ishida, T. Nakajima, Y. Honda, O. Kitao, H. Nakai, 
 T. Vreven, K. Throssell, J. A. Montgomery, Jr., J. E. Peralta, 
 F. Ogliaro, M. J. Bearpark, J. J. Heyd, E. N. Brothers, K. N. Kudin, 
 V. N. Staroverov, T. A. Keith, R. Kobayashi, J. Normand, 
 K. Raghavachari, A. P. Rendell, J. C. Burant, S. S. Iyengar, 
 J. Tomasi, M. Cossi, J. M. Millam, M. Klene, C. Adamo, R. Cammi, 
 J. W. Ochterski, R. L. Martin, K. Morokuma, O. Farkas, 
 J. B. Foresman, and D. J. Fox, Gaussian, Inc., Wallingford CT, 2019.
 
 ******************************************
 Gaussian 16:  AS64L-G16RevC.01  3-Jul-2019
                16-Jun-2021 
 ******************************************
 %nprocshared=4
 Will use up to    4 processors via shared memory.
 %chk=FuncsN12SX-V-2nd.chk
 %Mem=3GB
 -----------------------------------------------------------
 # td= (nstates=6, root=2) N12SX/6-31+G* Opt density=current
 -----------------------------------------------------------
 1/18=20,19=15,26=3,38=1/1,3;
 2/9=110,12=2,17=6,18=5,40=1/2;
 3/5=1,6=6,7=11,11=9,25=1,30=1,71=1,74=-69/1,2,3,8;
 4//1;
 5/5=2,38=5/2;
 8/6=1,10=2,107=2,108=6/1;
 9/8=2,15=2,41=6,42=1,70=2/14;
 10/5=4,28=2/2;
 6/7=2,8=2,9=2,10=2,22=-1/1;
 7/12=6,13=5,14=2/1,2,3,16;
 1/18=20,19=15,26=3/3(2);
 2/9=110/2;
 99//99;
 2/9=110/2;
 3/5=1,6=6,7=11,11=9,25=1,30=1,71=1,74=-69/1,2,3,8;
 4/5=5,16=3,69=1/1;
 5/5=2,38=5/2;
 8/6=1,10=2,107=2,108=6/1;
 9/8=2,15=2,41=6,42=1,49=4,70=2/14;
 10/5=4,28=2/2;
 7/12=6,13=5,14=2/1,2,3,16;
 1/18=20,19=15,26=3/3(-8);
 2/9=110/2;
 6/7=2,8=2,9=2,10=2,22=-1/1;
 99/9=10/99;
 ----------------
 FuncsN12SX-V-2nd
 ----------------
 Symbolic Z-matrix:
 Charge =  0 Multiplicity = 1
 C                    -2.15106   0.68921   0.00009 
 C                    -2.12793  -0.71582   0.00008 
 C                    -0.9323   -1.4131   -0.00001 
 C                     0.24691  -0.6702   -0.00004 
 C                     0.24819   0.7483    0. 
 C                    -0.97947   1.42353   0.00003 
 N                     1.56177  -1.07759  -0.00029 
 C                     1.62013   1.1629   -0.00016 
 C                     2.38201   0.03081   0.00025 
 H                     1.87632  -2.03001   0.00044 
 H                     1.99217   2.17301  -0.00035 
 H                     3.45255  -0.08243   0.00041 
 H                    -3.06159  -1.26202   0.00009 
 H                    -0.91725  -2.49534  -0.00007 
 H                    -3.1042    1.20079   0.00009 
 H                    -1.00935   2.50542  -0.00002 
 

 GradGradGradGradGradGradGradGradGradGradGradGradGradGradGradGradGradGrad
 Berny optimization.
 Initialization pass.
                           ----------------------------
                           !    Initial Parameters    !
                           ! (Angstroms and Degrees)  !
 --------------------------                            --------------------------
 ! Name  Definition              Value          Derivative Info.                !
 --------------------------------------------------------------------------------
 ! R1    R(1,2)                  1.4052         estimate D2E/DX2                !
 ! R2    R(1,6)                  1.3827         estimate D2E/DX2                !
 ! R3    R(1,15)                 1.0818         estimate D2E/DX2                !
 ! R4    R(2,3)                  1.3841         estimate D2E/DX2                !
 ! R5    R(2,13)                 1.0817         estimate D2E/DX2                !
 ! R6    R(3,4)                  1.3937         estimate D2E/DX2                !
 ! R7    R(3,14)                 1.0823         estimate D2E/DX2                !
 ! R8    R(4,5)                  1.4185         estimate D2E/DX2                !
 ! R9    R(4,7)                  1.3765         estimate D2E/DX2                !
 ! R10   R(5,6)                  1.4011         estimate D2E/DX2                !
 ! R11   R(5,8)                  1.4332         estimate D2E/DX2                !
 ! R12   R(6,16)                 1.0823         estimate D2E/DX2                !
 ! R13   R(7,9)                  1.3789         estimate D2E/DX2                !
 ! R14   R(7,10)                 1.003          estimate D2E/DX2                !
 ! R15   R(8,9)                  1.3646         estimate D2E/DX2                !
 ! R16   R(8,11)                 1.0764         estimate D2E/DX2                !
 ! R17   R(9,12)                 1.0765         estimate D2E/DX2                !
 ! A1    A(2,1,6)              121.1349         estimate D2E/DX2                !
 ! A2    A(2,1,15)             119.1671         estimate D2E/DX2                !
 ! A3    A(6,1,15)             119.698          estimate D2E/DX2                !
 ! A4    A(1,2,3)              121.1938         estimate D2E/DX2                !
 ! A5    A(1,2,13)             119.3846         estimate D2E/DX2                !
 ! A6    A(3,2,13)             119.4217         estimate D2E/DX2                !
 ! A7    A(2,3,4)              117.5387         estimate D2E/DX2                !
 ! A8    A(2,3,14)             121.0469         estimate D2E/DX2                !
 ! A9    A(4,3,14)             121.4144         estimate D2E/DX2                !
 ! A10   A(3,4,5)              122.2626         estimate D2E/DX2                !
 ! A11   A(3,4,7)              130.5743         estimate D2E/DX2                !
 ! A12   A(5,4,7)              107.163          estimate D2E/DX2                !
 ! A13   A(4,5,6)              118.7594         estimate D2E/DX2                !
 ! A14   A(4,5,8)              106.8666         estimate D2E/DX2                !
 ! A15   A(6,5,8)              134.374          estimate D2E/DX2                !
 ! A16   A(1,6,5)              119.1105         estimate D2E/DX2                !
 ! A17   A(1,6,16)             120.4966         estimate D2E/DX2                !
 ! A18   A(5,6,16)             120.3928         estimate D2E/DX2                !
 ! A19   A(4,7,9)              109.2874         estimate D2E/DX2                !
 ! A20   A(4,7,10)             125.4909         estimate D2E/DX2                !
 ! A21   A(9,7,10)             125.2217         estimate D2E/DX2                !
 ! A22   A(5,8,9)              107.125          estimate D2E/DX2                !
 ! A23   A(5,8,11)             127.0344         estimate D2E/DX2                !
 ! A24   A(9,8,11)             125.8405         estimate D2E/DX2                !
 ! A25   A(7,9,8)              109.5578         estimate D2E/DX2                !
 ! A26   A(7,9,12)             120.4645         estimate D2E/DX2                !
 ! A27   A(8,9,12)             129.9776         estimate D2E/DX2                !
 ! D1    D(6,1,2,3)             -0.0008         estimate D2E/DX2                !
 ! D2    D(6,1,2,13)          -179.9981         estimate D2E/DX2                !
 ! D3    D(15,1,2,3)           179.996          estimate D2E/DX2                !
 ! D4    D(15,1,2,13)           -0.0013         estimate D2E/DX2                !
 ! D5    D(2,1,6,5)             -0.0018         estimate D2E/DX2                !
 ! D6    D(2,1,6,16)           179.9965         estimate D2E/DX2                !
 ! D7    D(15,1,6,5)          -179.9986         estimate D2E/DX2                !
 ! D8    D(15,1,6,16)           -0.0003         estimate D2E/DX2                !
 ! D9    D(1,2,3,4)              0.002          estimate D2E/DX2                !
 ! D10   D(1,2,3,14)          -179.9968         estimate D2E/DX2                !
 ! D11   D(13,2,3,4)           179.9992         estimate D2E/DX2                !
 ! D12   D(13,2,3,14)            0.0005         estimate D2E/DX2                !
 ! D13   D(2,3,4,5)             -0.0005         estimate D2E/DX2                !
 ! D14   D(2,3,4,7)           -179.9911         estimate D2E/DX2                !
 ! D15   D(14,3,4,5)           179.9982         estimate D2E/DX2                !
 ! D16   D(14,3,4,7)             0.0076         estimate D2E/DX2                !
 ! D17   D(3,4,5,6)             -0.002          estimate D2E/DX2                !
 ! D18   D(3,4,5,8)           -179.9955         estimate D2E/DX2                !
 ! D19   D(7,4,5,6)            179.9905         estimate D2E/DX2                !
 ! D20   D(7,4,5,8)             -0.003          estimate D2E/DX2                !
 ! D21   D(3,4,7,9)           -179.98           estimate D2E/DX2                !
 ! D22   D(3,4,7,10)            -0.0649         estimate D2E/DX2                !
 ! D23   D(5,4,7,9)              0.0284         estimate D2E/DX2                !
 ! D24   D(5,4,7,10)           179.9434         estimate D2E/DX2                !
 ! D25   D(4,5,6,1)              0.0031         estimate D2E/DX2                !
 ! D26   D(4,5,6,16)          -179.9951         estimate D2E/DX2                !
 ! D27   D(8,5,6,1)            179.9944         estimate D2E/DX2                !
 ! D28   D(8,5,6,16)            -0.0038         estimate D2E/DX2                !
 ! D29   D(4,5,8,9)             -0.0234         estimate D2E/DX2                !
 ! D30   D(4,5,8,11)           179.9883         estimate D2E/DX2                !
 ! D31   D(6,5,8,9)            179.9846         estimate D2E/DX2                !
 ! D32   D(6,5,8,11)            -0.0037         estimate D2E/DX2                !
 ! D33   D(4,7,9,8)             -0.0444         estimate D2E/DX2                !
 ! D34   D(4,7,9,12)           179.9847         estimate D2E/DX2                !
 ! D35   D(10,7,9,8)          -179.9597         estimate D2E/DX2                !
 ! D36   D(10,7,9,12)            0.0693         estimate D2E/DX2                !
 ! D37   D(5,8,9,7)              0.0414         estimate D2E/DX2                !
 ! D38   D(5,8,9,12)          -179.9913         estimate D2E/DX2                !
 ! D39   D(11,8,9,7)          -179.9702         estimate D2E/DX2                !
 ! D40   D(11,8,9,12)           -0.0029         estimate D2E/DX2                !
 --------------------------------------------------------------------------------
 Trust Radius=3.00D-01 FncErr=1.00D-07 GrdErr=1.00D-06 EigMax=2.50D+02 EigMin=1.00D-04
 Number of steps in this run=     94 maximum allowed number of steps=    100.
 GradGradGradGradGradGradGradGradGradGradGradGradGradGradGradGradGradGrad

                          Input orientation:                          
 ---------------------------------------------------------------------
 Center     Atomic      Atomic             Coordinates (Angstroms)
 Number     Number       Type             X           Y           Z
 ---------------------------------------------------------------------
      1          6           0       -2.151063    0.689208    0.000088
      2          6           0       -2.127927   -0.715818    0.000075
      3          6           0       -0.932297   -1.413100   -0.000011
      4          6           0        0.246911   -0.670201   -0.000042
      5          6           0        0.248193    0.748299    0.000000
      6          6           0       -0.979474    1.423526    0.000032
      7          7           0        1.561774   -1.077592   -0.000285
      8          6           0        1.620133    1.162900   -0.000157
      9          6           0        2.382013    0.030806    0.000248
     10          1           0        1.876315   -2.030011    0.000438
     11          1           0        1.992173    2.173010   -0.000348
     12          1           0        3.452549   -0.082425    0.000408
     13          1           0       -3.061594   -1.262020    0.000088
     14          1           0       -0.917252   -2.495342   -0.000073
     15          1           0       -3.104203    1.200785    0.000090
     16          1           0       -1.009348    2.505421   -0.000015
 ---------------------------------------------------------------------
                    Distance matrix (angstroms):
                    1          2          3          4          5
     1  C    0.000000
     2  C    1.405216   0.000000
     3  C    2.430039   1.384100   0.000000
     4  C    2.756496   2.375276   1.393711   0.000000
     5  C    2.399984   2.790983   2.462763   1.418501   0.000000
     6  C    1.382694   2.428114   2.837018   2.426461   1.401106
     7  N    4.111781   3.707395   2.516536   1.376529   2.249305
     8  C    3.800829   4.192557   3.626386   2.290414   1.433218
     9  C    4.580641   4.571324   3.615178   2.247236   2.251218
    10  H    4.859416   4.214387   2.875566   2.122273   3.220216
    11  H    4.400917   5.031953   4.627387   3.336134   2.251948
    12  H    5.656491   5.616307   4.582311   3.259079   3.310287
    13  H    2.153220   1.081698   2.134650   3.361020   3.872476
    14  H    3.415208   2.152310   1.082347   2.164813   3.446661
    15  H    1.081752   2.150926   3.398466   3.838040   3.382795
    16  H    2.145261   3.409927   3.919278   3.415079   2.160761
                    6          7          8          9         10
     6  C    0.000000
     7  N    3.565604   0.000000
     8  C    2.612639   2.241252   0.000000
     9  C    3.638580   1.378890   1.364587   0.000000
    10  H    4.481345   1.003015   3.203172   2.121956   0.000000
    11  H    3.064704   3.278972   1.076446   2.177387   4.204618
    12  H    4.680888   2.136677   2.215532   1.076508   2.505515
    13  H    3.398144   4.627045   5.272457   5.595021   4.997275
    14  H    3.919362   2.855798   4.452085   4.155307   2.832058
    15  H    2.136372   5.192528   4.724488   5.609583   5.936632
    16  H    1.082307   4.410062   2.952378   4.198220   5.375611
                   11         12         13         14         15
    11  H    0.000000
    12  H    2.686947   0.000000
    13  H    6.110646   6.620083   0.000000
    14  H    5.500751   4.991726   2.473719   0.000000
    15  H    5.188282   6.681139   2.463174   4.294661   0.000000
    16  H    3.019872   5.158049   4.290143   5.001611   2.467892
                   16
    16  H    0.000000
 Stoichiometry    C8H7N
 Framework group  C1[X(C8H7N)]
 Deg. of freedom    42
 Full point group                 C1      NOp   1
 Largest Abelian subgroup         C1      NOp   1
 Largest concise Abelian subgroup C1      NOp   1
                         Standard orientation:                         
 ---------------------------------------------------------------------
 Center     Atomic      Atomic             Coordinates (Angstroms)
 Number     Number       Type             X           Y           Z
 ---------------------------------------------------------------------
      1          6           0       -2.151063    0.689208    0.000088
      2          6           0       -2.127927   -0.715818    0.000075
      3          6           0       -0.932297   -1.413100   -0.000011
      4          6           0        0.246911   -0.670201   -0.000042
      5          6           0        0.248193    0.748299    0.000000
      6          6           0       -0.979474    1.423526    0.000032
      7          7           0        1.561774   -1.077592   -0.000285
      8          6           0        1.620133    1.162900   -0.000157
      9          6           0        2.382013    0.030806    0.000248
     10          1           0        1.876315   -2.030011    0.000438
     11          1           0        1.992173    2.173010   -0.000348
     12          1           0        3.452549   -0.082425    0.000408
     13          1           0       -3.061594   -1.262020    0.000088
     14          1           0       -0.917252   -2.495342   -0.000073
     15          1           0       -3.104203    1.200785    0.000090
     16          1           0       -1.009348    2.505421   -0.000015
 ---------------------------------------------------------------------
 Rotational constants (GHZ):           3.9080822           1.6429452           1.1566805
 Standard basis: 6-31+G(d) (6D, 7F)
 There are   185 symmetry adapted cartesian basis functions of A   symmetry.
 There are   185 symmetry adapted basis functions of A   symmetry.
   185 basis functions,   316 primitive gaussians,   185 cartesian basis functions
    31 alpha electrons       31 beta electrons
       nuclear repulsion energy       401.3368668897 Hartrees.
 NAtoms=   16 NActive=   16 NUniq=   16 SFac= 1.00D+00 NAtFMM=   60 NAOKFM=F Big=F
 Integral buffers will be    131072 words long.
 Regular integral format.
 Two-electron integral symmetry is turned on.
 One-electron integrals computed using PRISM.
 NBasis=   185 RedAO= T EigKep=  1.26D-06  NBF=   185
 NBsUse=   185 1.00D-06 EigRej= -1.00D+00 NBFU=   185
 ExpMin= 4.38D-02 ExpMax= 4.17D+03 ExpMxC= 6.27D+02 IAcc=3 IRadAn=         5 AccDes= 0.00D+00
 Harris functional with IExCor= 5547 and IRadAn=       5 diagonalized for initial guess.
 HarFok:  IExCor= 5547 AccDes= 0.00D+00 IRadAn=         5 IDoV= 1 UseB2=F ITyADJ=14
 ICtDFT=  3500011 ScaDFX=  1.000000  1.000000  1.000000  1.000000
 FoFCou: FMM=F IPFlag=           0 FMFlag=      100000 FMFlg1=           0
         NFxFlg=           0 DoJE=T BraDBF=F KetDBF=T FulRan=T
         wScrn=  0.000000 ICntrl=       500 IOpCl=  0 I1Cent=   200000004 NGrid=           0
         NMat0=    1 NMatS0=      1 NMatT0=    0 NMatD0=    1 NMtDS0=    0 NMtDT0=    0
 Petite list used in FoFCou.
 Keep R1 ints in memory in canonical form, NReq=303303409.
 Requested convergence on RMS density matrix=1.00D-08 within 128 cycles.
 Requested convergence on MAX density matrix=1.00D-06.
 Requested convergence on             energy=1.00D-06.
 No special actions if energy rises.
 SCF Done:  E(RN12SX) =  -363.666126635     A.U. after   15 cycles
            NFock= 15  Conv=0.32D-08     -V/T= 2.0107
 DoSCS=F DFT=T ScalE2(SS,OS)=  1.000000  1.000000
 ExpMin= 4.38D-02 ExpMax= 4.17D+03 ExpMxC= 6.27D+02 IAcc=3 IRadAn=         5 AccDes= 0.00D+00
 HarFok:  IExCor=  205 AccDes= 0.00D+00 IRadAn=         5 IDoV=-2 UseB2=F ITyADJ=14
 ICtDFT= 12500011 ScaDFX=  1.000000  1.000000  1.000000  1.000000
 Range of M.O.s used for correlation:    10   185
 NBasis=   185 NAE=    31 NBE=    31 NFC=     9 NFV=     0
 NROrb=    176 NOA=    22 NOB=    22 NVA=   154 NVB=   154

 **** Warning!!: The largest alpha MO coefficient is  0.17800257D+03

 Orbital symmetries:
       Occupied  (A) (A) (A) (A) (A) (A) (A) (A) (A) (A) (A) (A)
                 (A) (A) (A) (A) (A) (A) (A) (A) (A) (A) (A) (A)
                 (A) (A) (A) (A) (A) (A) (A)
       Virtual   (A) (A) (A) (A) (A) (A) (A) (A) (A) (A) (A) (A)
                 (A) (A) (A) (A) (A) (A) (A) (A) (A) (A) (A) (A)
                 (A) (A) (A) (A) (A) (A) (A) (A) (A) (A) (A) (A)
                 (A) (A) (A) (A) (A) (A) (A) (A) (A) (A) (A) (A)
                 (A) (A) (A) (A) (A) (A) (A) (A) (A) (A) (A) (A)
                 (A) (A) (A) (A) (A) (A) (A) (A) (A) (A) (A) (A)
                 (A) (A) (A) (A) (A) (A) (A) (A) (A) (A) (A) (A)
                 (A) (A) (A) (A) (A) (A) (A) (A) (A) (A) (A) (A)
                 (A) (A) (A) (A) (A) (A) (A) (A) (A) (A) (A) (A)
                 (A) (A) (A) (A) (A) (A) (A) (A) (A) (A) (A) (A)
                 (A) (A) (A) (A) (A) (A) (A) (A) (A) (A) (A) (A)
                 (A) (A) (A) (A) (A) (A) (A) (A) (A) (A) (A) (A)
                 (A) (A) (A) (A) (A) (A) (A) (A) (A) (A)
    24 initial guesses have been made.
 Convergence on wavefunction:    0.000001000000000
 Iteration     1 Dimension    24 NMult     0 NNew     24
 CISAX will form    24 AO SS matrices at one time.
 New state      1 was old state      2
 New state      2 was old state      3
 New state      3 was old state      1
 Iteration     2 Dimension    36 NMult    24 NNew     12
 New state      1 was old state      3
 New state      2 was old state      1
 New state      3 was old state      2
 Iteration     3 Dimension    48 NMult    36 NNew     12
 Iteration     4 Dimension    60 NMult    48 NNew     12
 Iteration     5 Dimension    72 NMult    60 NNew     12
 Iteration     6 Dimension    84 NMult    72 NNew     12
 Iteration     7 Dimension    96 NMult    84 NNew     12
 Iteration     8 Dimension   108 NMult    96 NNew     12
 Iteration     9 Dimension   120 NMult   108 NNew     12
 Iteration    10 Dimension   128 NMult   120 NNew      8
 Iteration    11 Dimension   132 NMult   128 NNew      4
 Iteration    12 Dimension   134 NMult   132 NNew      2
 ***********************************************************************
 Excited states from <AA,BB:AA,BB> singles matrix:
 ***********************************************************************
 
 Ground to excited state transition densities written to RWF  633
 Ground to excited state transition electric dipole moments (Au):
       state          X           Y           Z        Dip. S.      Osc.
         1        -0.5721      0.6212     -0.0006      0.7132      0.0844
         2         0.0024     -0.0030     -0.1119      0.0125      0.0015
         3        -0.5420     -0.1162     -0.0000      0.3072      0.0374
         4        -0.0002      0.0002     -0.1250      0.0156      0.0020
         5         0.0002     -0.0000      0.0052      0.0000      0.0000
         6         0.0003      0.0001      0.0784      0.0062      0.0008
 Ground to excited state transition velocity dipole moments (Au):
       state          X           Y           Z        Dip. S.      Osc.
         1         0.0929     -0.1186      0.0001      0.0227      0.0853
         2        -0.0004      0.0006      0.0109      0.0001      0.0004
         3         0.0936      0.0220      0.0000      0.0092      0.0337
         4         0.0001     -0.0000      0.0264      0.0007      0.0024
         5        -0.0000      0.0000      0.0004      0.0000      0.0000
         6        -0.0001     -0.0000     -0.0154      0.0002      0.0008
 Ground to excited state transition magnetic dipole moments (Au):
       state          X           Y           Z
         1         0.0008     -0.0002      0.1718
         2         0.1213     -0.0509     -0.0006
         3        -0.0002     -0.0002     -0.0340
         4         0.0247     -0.2090      0.0000
         5         0.2406     -0.1398      0.0001
         6         0.1122      0.2755      0.0003
 Ground to excited state transition velocity quadrupole moments (Au):
       state          XX          YY          ZZ          XY          XZ          YZ
         1         0.2022     -0.1167      0.0113      0.0418      0.0003      0.0003
         2        -0.0010      0.0005      0.0000     -0.0001      0.0492      0.0503
         3         0.0742     -0.1109      0.0244     -0.0011      0.0001     -0.0001
         4        -0.0000      0.0001     -0.0000     -0.0000      0.1443     -0.0276
         5        -0.0002     -0.0001      0.0000      0.0001      0.1636      0.2095
         6         0.0001     -0.0001      0.0001      0.0001     -0.2332      0.0260
 <0|del|b> * <b|rxdel|0> + <0|del|b> * <b|delr+rdel|0>
 Rotatory Strengths (R) in cgs (10**-40 erg-esu-cm/Gauss)
       state          XX          YY          ZZ    R(velocity)    E-M Angle
         1         0.1445      0.2049      0.0773      0.1422       89.76
         2        -0.1338     -0.1413     -0.0561     -0.1104       90.00
         3        -0.0117     -0.0452     -0.0173     -0.0247       90.00
         4         0.0242      0.0010      0.0098      0.0117       90.00
         5        -0.0040     -0.0353     -0.0021     -0.0138       90.00
         6        -0.0206     -0.0179     -0.0089     -0.0158       90.00
 1/2[<0|r|b>*<b|rxdel|0> + (<0|rxdel|b>*<b|r|0>)*]
 Rotatory Strengths (R) in cgs (10**-40 erg-esu-cm/Gauss)
       state          XX          YY          ZZ     R(length)
         1         0.3056      0.1001      0.0703      0.1587
         2        -0.2076     -0.1098     -0.0499     -0.1224
         3        -0.0607     -0.0146     -0.0007     -0.0253
         4         0.0043      0.0259      0.0011      0.0104
         5        -0.0396     -0.0042     -0.0004     -0.0147
         6        -0.0237     -0.0230     -0.0169     -0.0212
  1/2[<0|del|b>*<b|r|0> + (<0|r|b>*<b|del|0>)*] (Au)
       state          X           Y           Z        Dip. S.   Osc.(frdel)
         1        -0.0532     -0.0737     -0.0000      0.1269      0.0846
         2        -0.0000     -0.0000     -0.0012      0.0012      0.0008
         3        -0.0507     -0.0026     -0.0000      0.0533      0.0355
         4        -0.0000     -0.0000     -0.0033      0.0033      0.0022
         5        -0.0000     -0.0000      0.0000     -0.0000     -0.0000
         6        -0.0000     -0.0000     -0.0012      0.0012      0.0008

 Excitation energies and oscillator strengths:
 
 Excited State   1:      Singlet-A      4.8288 eV  256.76 nm  f=0.0844  <S**2>=0.000
      30 -> 32        -0.13176
      30 -> 36         0.15970
      31 -> 32         0.66329
 
 Excited State   2:      Singlet-A      4.8736 eV  254.40 nm  f=0.0015  <S**2>=0.000
      31 -> 33         0.70484
 This state for optimization and/or second-order correction.
 Total Energy, E(TD-HF/TD-DFT) =  -363.487025820    
 Copying the excited state density for this state as the 1-particle RhoCI density.
 
 Excited State   3:      Singlet-A      4.9714 eV  249.39 nm  f=0.0374  <S**2>=0.000
      30 -> 32         0.56622
      31 -> 32         0.10952
      31 -> 36        -0.39861
 
 Excited State   4:      Singlet-A      5.3489 eV  231.79 nm  f=0.0020  <S**2>=0.000
      30 -> 33         0.69650
 
 Excited State   5:      Singlet-A      5.4469 eV  227.62 nm  f=0.0000  <S**2>=0.000
      30 -> 33        -0.10066
      31 -> 34         0.69713
 
 Excited State   6:      Singlet-A      5.5640 eV  222.83 nm  f=0.0008  <S**2>=0.000
      31 -> 35         0.70274
 SavETr:  write IOETrn=   770 NScale= 10 NData=  16 NLR=1 NState=    6 LETran=     118.
          IDoAtm=1111111111111111
          Differentiating once with respect to electric field.
                with respect to dipole field.
          Differentiating once with respect to nuclear coordinates.
 Keep R1 ints in memory in canonical form, NReq=303315801.
          There are     1 degrees of freedom in the 1st order CPHF.  IDoFFX=0 NUNeed=     1.
 LinEq1:  Iter=  0 NonCon=     1 RMS=1.37D-02 Max=3.51D-01 NDo=     1
 AX will form     1 AO Fock derivatives at one time.
 LinEq1:  Iter=  1 NonCon=     1 RMS=7.99D-03 Max=1.99D-01 NDo=     1
 LinEq1:  Iter=  2 NonCon=     1 RMS=5.75D-03 Max=1.27D-01 NDo=     1
 LinEq1:  Iter=  3 NonCon=     1 RMS=2.55D-03 Max=8.08D-02 NDo=     1
 LinEq1:  Iter=  4 NonCon=     1 RMS=1.55D-03 Max=2.20D-02 NDo=     1
 LinEq1:  Iter=  5 NonCon=     1 RMS=8.05D-04 Max=2.24D-02 NDo=     1
 LinEq1:  Iter=  6 NonCon=     1 RMS=5.97D-04 Max=1.50D-02 NDo=     1
 LinEq1:  Iter=  7 NonCon=     1 RMS=2.33D-04 Max=5.61D-03 NDo=     1
 LinEq1:  Iter=  8 NonCon=     1 RMS=1.56D-04 Max=2.52D-03 NDo=     1
 LinEq1:  Iter=  9 NonCon=     1 RMS=3.96D-05 Max=4.97D-04 NDo=     1
 LinEq1:  Iter= 10 NonCon=     1 RMS=2.66D-05 Max=8.04D-04 NDo=     1
 LinEq1:  Iter= 11 NonCon=     1 RMS=1.03D-05 Max=2.29D-04 NDo=     1
 LinEq1:  Iter= 12 NonCon=     1 RMS=4.99D-06 Max=1.32D-04 NDo=     1
 LinEq1:  Iter= 13 NonCon=     1 RMS=2.41D-06 Max=3.36D-05 NDo=     1
 LinEq1:  Iter= 14 NonCon=     1 RMS=7.82D-07 Max=1.70D-05 NDo=     1
 LinEq1:  Iter= 15 NonCon=     1 RMS=4.01D-07 Max=6.01D-06 NDo=     1
 LinEq1:  Iter= 16 NonCon=     1 RMS=1.08D-07 Max=1.82D-06 NDo=     1
 LinEq1:  Iter= 17 NonCon=     1 RMS=2.23D-08 Max=3.23D-07 NDo=     1
 LinEq1:  Iter= 18 NonCon=     1 RMS=4.37D-09 Max=4.73D-08 NDo=     1
 LinEq1:  Iter= 19 NonCon=     1 RMS=2.09D-09 Max=3.08D-08 NDo=     1
 LinEq1:  Iter= 20 NonCon=     1 RMS=9.26D-10 Max=1.30D-08 NDo=     1
 LinEq1:  Iter= 21 NonCon=     1 RMS=3.76D-10 Max=4.20D-09 NDo=     1
 LinEq1:  Iter= 22 NonCon=     0 RMS=7.47D-11 Max=8.60D-10 NDo=     1
 Linear equations converged to 1.000D-10 1.000D-09 after    22 iterations.
 End of Minotr F.D. properties file   721 does not exist.
 End of Minotr F.D. properties file   722 does not exist.
 End of Minotr F.D. properties file   788 does not exist.

 **********************************************************************

            Population analysis using the CI Density.

 **********************************************************************

 Orbital symmetries:
       Occupied  (A) (A) (A) (A) (A) (A) (A) (A) (A) (A) (A) (A)
                 (A) (A) (A) (A) (A) (A) (A) (A) (A) (A) (A) (A)
                 (A) (A) (A) (A) (A) (A) (A)
       Virtual   (A) (A) (A) (A) (A) (A) (A) (A) (A) (A) (A) (A)
                 (A) (A) (A) (A) (A) (A) (A) (A) (A) (A) (A) (A)
                 (A) (A) (A) (A) (A) (A) (A) (A) (A) (A) (A) (A)
                 (A) (A) (A) (A) (A) (A) (A) (A) (A) (A) (A) (A)
                 (A) (A) (A) (A) (A) (A) (A) (A) (A) (A) (A) (A)
                 (A) (A) (A) (A) (A) (A) (A) (A) (A) (A) (A) (A)
                 (A) (A) (A) (A) (A) (A) (A) (A) (A) (A) (A) (A)
                 (A) (A) (A) (A) (A) (A) (A) (A) (A) (A) (A) (A)
                 (A) (A) (A) (A) (A) (A) (A) (A) (A) (A) (A) (A)
                 (A) (A) (A) (A) (A) (A) (A) (A) (A) (A) (A) (A)
                 (A) (A) (A) (A) (A) (A) (A) (A) (A) (A) (A) (A)
                 (A) (A) (A) (A) (A) (A) (A) (A) (A) (A) (A) (A)
                 (A) (A) (A) (A) (A) (A) (A) (A) (A) (A)
 The electronic state is 1-A.
 Alpha  occ. eigenvalues --  -14.43710 -10.27351 -10.27179 -10.24108 -10.23749
 Alpha  occ. eigenvalues --  -10.23587 -10.23582 -10.23079 -10.22844  -0.98260
 Alpha  occ. eigenvalues --   -0.84183  -0.78408  -0.73606  -0.71775  -0.62474
 Alpha  occ. eigenvalues --   -0.59440  -0.58132  -0.53988  -0.48116  -0.46969
 Alpha  occ. eigenvalues --   -0.43585  -0.42754  -0.42060  -0.40937  -0.38949
 Alpha  occ. eigenvalues --   -0.35230  -0.33167  -0.33118  -0.27495  -0.21828
 Alpha  occ. eigenvalues --   -0.20151
 Alpha virt. eigenvalues --   -0.02348  -0.01191   0.00704   0.01222   0.01276
 Alpha virt. eigenvalues --    0.02673   0.02793   0.03949   0.05117   0.05374
 Alpha virt. eigenvalues --    0.05546   0.05859   0.07974   0.08253   0.09552
 Alpha virt. eigenvalues --    0.09741   0.10674   0.11937   0.12851   0.13323
 Alpha virt. eigenvalues --    0.14543   0.14855   0.15758   0.15932   0.16479
 Alpha virt. eigenvalues --    0.17307   0.18138   0.18205   0.18964   0.19173
 Alpha virt. eigenvalues --    0.19594   0.19707   0.21115   0.21901   0.22408
 Alpha virt. eigenvalues --    0.22828   0.23152   0.23867   0.25144   0.25375
 Alpha virt. eigenvalues --    0.26389   0.26429   0.27299   0.29236   0.29937
 Alpha virt. eigenvalues --    0.30746   0.31351   0.32981   0.34947   0.36414
 Alpha virt. eigenvalues --    0.37603   0.39653   0.43364   0.44833   0.51378
 Alpha virt. eigenvalues --    0.58024   0.62595   0.67512   0.67524   0.69927
 Alpha virt. eigenvalues --    0.71570   0.72110   0.73133   0.73700   0.74077
 Alpha virt. eigenvalues --    0.75355   0.75536   0.77822   0.79239   0.79893
 Alpha virt. eigenvalues --    0.81472   0.85401   0.89161   0.89776   0.90989
 Alpha virt. eigenvalues --    0.93357   0.93963   0.95101   0.95446   0.98193
 Alpha virt. eigenvalues --    1.00013   1.03121   1.05013   1.06150   1.10055
 Alpha virt. eigenvalues --    1.11904   1.12132   1.17552   1.18508   1.21149
 Alpha virt. eigenvalues --    1.22828   1.23940   1.25751   1.32079   1.32722
 Alpha virt. eigenvalues --    1.34571   1.37438   1.42046   1.42196   1.45338
 Alpha virt. eigenvalues --    1.46663   1.47074   1.50232   1.50885   1.53975
 Alpha virt. eigenvalues --    1.59274   1.65637   1.79465   1.85345   1.89401
 Alpha virt. eigenvalues --    1.90064   1.93027   1.94937   2.00262   2.00808
 Alpha virt. eigenvalues --    2.01417   2.07473   2.10998   2.15031   2.18251
 Alpha virt. eigenvalues --    2.18275   2.20780   2.25967   2.26963   2.27509
 Alpha virt. eigenvalues --    2.29402   2.32388   2.39150   2.42066   2.45580
 Alpha virt. eigenvalues --    2.56013   2.57112   2.64506   2.66718   2.68200
 Alpha virt. eigenvalues --    2.71029   2.74618   2.82089   2.85740   2.86932
 Alpha virt. eigenvalues --    2.96940   2.98967   3.13074   3.25576   3.46477
 Alpha virt. eigenvalues --    4.15625   4.27598   4.30430   4.33914   4.37506
 Alpha virt. eigenvalues --    4.40858   4.49318   4.53263   4.80176
          Condensed to atoms (all electrons):
               1          2          3          4          5          6
     1  C   36.399153  11.202383  -2.556280 -28.831702 -10.552680 -28.618042
     2  C   11.202383  32.742049  10.873291 -36.132463  15.534826 -44.607241
     3  C   -2.556280  10.873291  31.027547 -20.908552   9.429177 -24.752975
     4  C  -28.831702 -36.132463 -20.908552 134.621992 -36.444607  71.526351
     5  C  -10.552680  15.534826   9.429177 -36.444607 124.806081 -50.699253
     6  C  -28.618042 -44.607241 -24.752975  71.526351 -50.699253 109.038630
     7  N   -0.364008   0.027352   0.980660   4.716733  -5.060726   2.641980
     8  C   47.087388  26.984110  -1.002965-152.168713 -78.933339 -42.274572
     9  C  -18.104442 -10.200213   3.024617  70.769279  35.484781  13.803174
    10  H    0.014173  -0.112368  -0.577197   0.129957   0.804325  -0.090371
    11  H   -0.016942   0.001545  -0.020187  -0.037281   0.200706   0.054701
    12  H    0.011293  -0.003844   0.105303   0.240616  -0.575139  -0.028612
    13  H    0.081774   0.163167  -0.070830   0.114980  -0.094805   0.124103
    14  H   -0.012139  -0.085116   0.083240   0.351642  -0.010173  -0.045025
    15  H    0.266154   0.141120  -0.009521  -0.080339   0.036298  -0.066129
    16  H    0.003759  -0.045012  -0.029457   0.062856   0.294610   0.103960
               7          8          9         10         11         12
     1  C   -0.364008  47.087388 -18.104442   0.014173  -0.016942   0.011293
     2  C    0.027352  26.984110 -10.200213  -0.112368   0.001545  -0.003844
     3  C    0.980660  -1.002965   3.024617  -0.577197  -0.020187   0.105303
     4  C    4.716733-152.168713  70.769279   0.129957  -0.037281   0.240616
     5  C   -5.060726 -78.933339  35.484781   0.804325   0.200706  -0.575139
     6  C    2.641980 -42.274572  13.803174  -0.090371   0.054701  -0.028612
     7  N   13.512384 -27.751101  18.247567  -0.853888   0.002661  -0.062861
     8  C  -27.751101 491.640680-254.689219   2.777436  -0.098034   1.011108
     9  C   18.247567-254.689219 145.668965  -1.943207   0.212306  -0.380768
    10  H   -0.853888   2.777436  -1.943207   0.549901  -0.000123   0.001358
    11  H    0.002661  -0.098034   0.212306  -0.000123   0.448892  -0.000985
    12  H   -0.062861   1.011108  -0.380768   0.001358  -0.000985   0.399630
    13  H    0.002214  -0.030907   0.014134  -0.000017   0.000000  -0.000000
    14  H   -0.004351  -0.000584   0.011854   0.002743   0.000001   0.000001
    15  H   -0.000837   0.027326  -0.005386   0.000000  -0.000001  -0.000000
    16  H    0.002883  -0.144140   0.039094   0.000002   0.001290  -0.000002
              13         14         15         16
     1  C    0.081774  -0.012139   0.266154   0.003759
     2  C    0.163167  -0.085116   0.141120  -0.045012
     3  C   -0.070830   0.083240  -0.009521  -0.029457
     4  C    0.114980   0.351642  -0.080339   0.062856
     5  C   -0.094805  -0.010173   0.036298   0.294610
     6  C    0.124103  -0.045025  -0.066129   0.103960
     7  N    0.002214  -0.004351  -0.000837   0.002883
     8  C   -0.030907  -0.000584   0.027326  -0.144140
     9  C    0.014134   0.011854  -0.005386   0.039094
    10  H   -0.000017   0.002743   0.000000   0.000002
    11  H    0.000000   0.000001  -0.000001   0.001290
    12  H   -0.000000   0.000001  -0.000000  -0.000002
    13  H    0.469598  -0.003503  -0.003919  -0.000122
    14  H   -0.003503   0.460801  -0.000129   0.000016
    15  H   -0.003919  -0.000129   0.477084  -0.003621
    16  H   -0.000122   0.000016  -0.003621   0.477790
 Mulliken charges:
               1
     1  C   -0.009840
     2  C   -0.483588
     3  C    0.404129
     4  C   -1.930750
     5  C    1.779920
     6  C   -0.110680
     7  N    0.963337
     8  C   -6.434475
     9  C    4.047463
    10  H    0.297276
    11  H    0.251453
    12  H    0.282903
    13  H    0.234133
    14  H    0.250723
    15  H    0.221899
    16  H    0.236096
 Sum of Mulliken charges =  -0.00000
 Mulliken charges with hydrogens summed into heavy atoms:
               1
     1  C    0.212059
     2  C   -0.249455
     3  C    0.654852
     4  C   -1.930750
     5  C    1.779920
     6  C    0.125415
     7  N    1.260614
     8  C   -6.183022
     9  C    4.330366
 Electronic spatial extent (au):  <R**2>=           1041.4993
 Charge=             -0.0000 electrons
 Dipole moment (field-independent basis, Debye):
    X=             -6.7428    Y=              6.8288    Z=              0.0085  Tot=              9.5968
 Quadrupole moment (field-independent basis, Debye-Ang):
   XX=            -67.3318   YY=            -65.6317   ZZ=            -64.5010
   XY=             17.8410   XZ=              0.0170   YZ=             -0.0130
 Traceless Quadrupole moment (field-independent basis, Debye-Ang):
   XX=             -1.5103   YY=              0.1898   ZZ=              1.3205
   XY=             17.8410   XZ=              0.0170   YZ=             -0.0130
 Octapole moment (field-independent basis, Debye-Ang**2):
  XXX=           -137.5602  YYY=             85.3263  ZZZ=              0.0547  XYY=            -51.9006
  XXY=             60.0607  XXZ=              0.0514  XZZ=            -19.7431  YZZ=             20.1388
  YYZ=              0.0527  XYZ=             -0.0142
 Hexadecapole moment (field-independent basis, Debye-Ang**3):
 XXXX=          -1456.7885 YYYY=           -730.5396 ZZZZ=           -133.0517 XXXY=            252.7350
 XXXZ=              0.2549 YYYX=            161.8233 YYYZ=             -0.1238 ZZZX=              0.1016
 ZZZY=             -0.0778 XXYY=           -373.3686 XXZZ=           -253.6221 YYZZ=           -154.5591
 XXYZ=             -0.0272 YYXZ=              0.0155 ZZXY=             42.5672
 N-N= 4.013368668897D+02 E-N=-1.641137082752D+03  KE= 3.597640377114D+02
 Calling FoFJK, ICntrl=  10005127 FMM=F ISym2X=0 I1Cent= 0 IOpClX= 0 NMat=1 NMatS=1 NMatT=0.
 ***** Axes restored to original set *****
 -------------------------------------------------------------------
 Center     Atomic                   Forces (Hartrees/Bohr)
 Number     Number              X              Y              Z
 -------------------------------------------------------------------
      1        6          -0.012444299   -0.013889778   -0.000003395
      2        6          -0.015765855    0.024628297    0.000007788
      3        6           0.030354010   -0.006628565   -0.000037557
      4        6          -0.006806404   -0.001157752   -0.000005425
      5        6           0.008277582   -0.002968818   -0.000043069
      6        6           0.006932332    0.009265388   -0.000021613
      7        7           0.020913430    0.061186358    0.000143772
      8        6          -0.039772720    0.022429069    0.000060106
      9        6          -0.009422340   -0.070315255   -0.000121944
     10        1           0.012075958   -0.022892239   -0.000022816
     11        1           0.000652681    0.001385763    0.000007271
     12        1           0.002479829   -0.003431331    0.000003655
     13        1           0.000528683    0.000368371    0.000004349
     14        1           0.001669831    0.002686475    0.000014040
     15        1           0.000596913   -0.000120807    0.000003680
     16        1          -0.000269632   -0.000545177    0.000011159
 -------------------------------------------------------------------
 Cartesian Forces:  Max     0.070315255 RMS     0.017337074

 GradGradGradGradGradGradGradGradGradGradGradGradGradGradGradGradGradGrad
 Berny optimization.
 FormGI is forming the generalized inverse of G from B-inverse, IUseBI=4.
 Internal  Forces:  Max     0.051487492 RMS     0.008789615
 Search for a local minimum.
 Step number   1 out of a maximum of   94
 All quantities printed in internal units (Hartrees-Bohrs-Radians)
 Mixed Optimization -- RFO/linear search
 Second derivative matrix not updated -- first step.
 ITU=  0
     Eigenvalues ---    0.01853   0.01931   0.01986   0.02012   0.02070
     Eigenvalues ---    0.02113   0.02148   0.02153   0.02172   0.02209
     Eigenvalues ---    0.02233   0.02248   0.02338   0.16000   0.16000
     Eigenvalues ---    0.16000   0.16000   0.16000   0.16000   0.16000
     Eigenvalues ---    0.22000   0.22188   0.22662   0.24011   0.24651
     Eigenvalues ---    0.35712   0.35717   0.35783   0.35790   0.36420
     Eigenvalues ---    0.36427   0.37009   0.38432   0.42633   0.43465
     Eigenvalues ---    0.45769   0.46692   0.47162   0.47468   0.47567
     Eigenvalues ---    0.48125   0.50955
 RFO step:  Lambda=-1.35922876D-02 EMin= 1.85287394D-02
 Linear search not attempted -- first point.
 Iteration  1 RMS(Cart)=  0.02686402 RMS(Int)=  0.00014434
 Iteration  2 RMS(Cart)=  0.00017774 RMS(Int)=  0.00002422
 Iteration  3 RMS(Cart)=  0.00000003 RMS(Int)=  0.00002422
 Variable       Old X    -DE/DX   Delta X   Delta X   Delta X     New X
                                 (Linear)    (Quad)   (Total)
    R1        2.65547  -0.01123   0.00000  -0.02323  -0.02323   2.63224
    R2        2.61291   0.00768   0.00000   0.01644   0.01644   2.62935
    R3        2.04421  -0.00058   0.00000  -0.00157  -0.00157   2.04264
    R4        2.61557   0.02392   0.00000   0.04812   0.04812   2.66369
    R5        2.04411  -0.00064   0.00000  -0.00173  -0.00173   2.04238
    R6        2.63373  -0.01561   0.00000  -0.03361  -0.03361   2.60012
    R7        2.04534  -0.00266   0.00000  -0.00718  -0.00718   2.03816
    R8        2.68058  -0.00404   0.00000  -0.01032  -0.01026   2.67032
    R9        2.60126   0.00549   0.00000   0.00760   0.00765   2.60891
   R10        2.64771   0.00352   0.00000   0.00755   0.00755   2.65526
   R11        2.70839  -0.01871   0.00000  -0.04080  -0.04082   2.66757
   R12        2.04526  -0.00054   0.00000  -0.00145  -0.00145   2.04381
   R13        2.60573  -0.05149   0.00000  -0.10364  -0.10366   2.50206
   R14        1.89542   0.02552   0.00000   0.05260   0.05260   1.94803
   R15        2.57870   0.03775   0.00000   0.07245   0.07238   2.65108
   R16        2.03419   0.00153   0.00000   0.00404   0.00404   2.03823
   R17        2.03430   0.00283   0.00000   0.00748   0.00748   2.04179
    A1        2.11420  -0.00527   0.00000  -0.01791  -0.01791   2.09629
    A2        2.07986   0.00281   0.00000   0.00999   0.00999   2.08984
    A3        2.08912   0.00246   0.00000   0.00792   0.00792   2.09705
    A4        2.11523   0.00283   0.00000   0.01440   0.01441   2.12964
    A5        2.08365  -0.00147   0.00000  -0.00750  -0.00750   2.07615
    A6        2.08430  -0.00136   0.00000  -0.00690  -0.00691   2.07739
    A7        2.05144   0.00066   0.00000   0.00059   0.00061   2.05205
    A8        2.11267   0.00142   0.00000   0.00976   0.00976   2.12242
    A9        2.11908  -0.00208   0.00000  -0.01035  -0.01036   2.10872
   A10        2.13389  -0.00403   0.00000  -0.01602  -0.01605   2.11784
   A11        2.27895  -0.00234   0.00000  -0.00380  -0.00386   2.27509
   A12        1.87035   0.00637   0.00000   0.01982   0.01991   1.89026
   A13        2.07274   0.00832   0.00000   0.02717   0.02717   2.09991
   A14        1.86517  -0.00765   0.00000  -0.02293  -0.02291   1.84227
   A15        2.34527  -0.00067   0.00000  -0.00423  -0.00426   2.34101
   A16        2.07887  -0.00251   0.00000  -0.00823  -0.00822   2.07065
   A17        2.10306   0.00096   0.00000   0.00243   0.00243   2.10549
   A18        2.10125   0.00155   0.00000   0.00579   0.00579   2.10704
   A19        1.90743   0.00320   0.00000   0.00275   0.00278   1.91020
   A20        2.19023   0.00247   0.00000   0.02204   0.02202   2.21225
   A21        2.18553  -0.00566   0.00000  -0.02478  -0.02480   2.16073
   A22        1.86968  -0.00142   0.00000   0.00342   0.00334   1.87303
   A23        2.21717   0.00084   0.00000  -0.00093  -0.00089   2.21628
   A24        2.19633   0.00057   0.00000  -0.00249  -0.00245   2.19388
   A25        1.91215  -0.00050   0.00000  -0.00305  -0.00313   1.90902
   A26        2.10250  -0.00296   0.00000  -0.01694  -0.01690   2.08560
   A27        2.26854   0.00345   0.00000   0.01999   0.02003   2.28856
    D1       -0.00001  -0.00000   0.00000  -0.00004  -0.00004  -0.00006
    D2       -3.14156  -0.00000   0.00000  -0.00012  -0.00012   3.14150
    D3        3.14152   0.00000   0.00000   0.00009   0.00009  -3.14157
    D4       -0.00002   0.00000   0.00000   0.00001   0.00001  -0.00001
    D5       -0.00003  -0.00000   0.00000  -0.00003  -0.00003  -0.00006
    D6        3.14153   0.00001   0.00000   0.00022   0.00022  -3.14143
    D7       -3.14157  -0.00000   0.00000  -0.00016  -0.00016   3.14145
    D8       -0.00001   0.00000   0.00000   0.00008   0.00008   0.00008
    D9        0.00003   0.00000   0.00000   0.00014   0.00014   0.00017
   D10       -3.14154  -0.00001   0.00000  -0.00020  -0.00019   3.14145
   D11        3.14158   0.00001   0.00000   0.00022   0.00022  -3.14138
   D12        0.00001  -0.00000   0.00000  -0.00011  -0.00011  -0.00011
   D13       -0.00001  -0.00001   0.00000  -0.00017  -0.00017  -0.00018
   D14       -3.14144  -0.00001   0.00000  -0.00013  -0.00012  -3.14156
   D15        3.14156   0.00001   0.00000   0.00017   0.00017  -3.14146
   D16        0.00013   0.00001   0.00000   0.00020   0.00021   0.00034
   D17       -0.00004   0.00001   0.00000   0.00011   0.00010   0.00006
   D18       -3.14151  -0.00000   0.00000  -0.00008  -0.00008   3.14159
   D19        3.14143   0.00001   0.00000   0.00007   0.00007   3.14149
   D20       -0.00005  -0.00000   0.00000  -0.00011  -0.00012  -0.00017
   D21       -3.14124  -0.00002   0.00000  -0.00064  -0.00066   3.14128
   D22       -0.00113   0.00002   0.00000   0.00053   0.00054  -0.00060
   D23        0.00049  -0.00002   0.00000  -0.00061  -0.00062  -0.00013
   D24        3.14060   0.00002   0.00000   0.00057   0.00058   3.14118
   D25        0.00005  -0.00000   0.00000  -0.00000   0.00000   0.00006
   D26       -3.14151  -0.00001   0.00000  -0.00025  -0.00025   3.14143
   D27        3.14150   0.00001   0.00000   0.00024   0.00025  -3.14144
   D28       -0.00007  -0.00000   0.00000  -0.00000  -0.00000  -0.00007
   D29       -0.00041   0.00003   0.00000   0.00081   0.00079   0.00039
   D30        3.14139   0.00001   0.00000   0.00014   0.00013   3.14152
   D31        3.14132   0.00002   0.00000   0.00059   0.00057  -3.14129
   D32       -0.00006  -0.00000   0.00000  -0.00008  -0.00009  -0.00015
   D33       -0.00077   0.00004   0.00000   0.00117   0.00115   0.00038
   D34        3.14133   0.00002   0.00000   0.00044   0.00043  -3.14143
   D35       -3.14089  -0.00000   0.00000  -0.00005  -0.00005  -3.14094
   D36        0.00121  -0.00003   0.00000  -0.00078  -0.00077   0.00044
   D37        0.00072  -0.00004   0.00000  -0.00119  -0.00120  -0.00048
   D38       -3.14144  -0.00001   0.00000  -0.00039  -0.00039   3.14136
   D39       -3.14107  -0.00002   0.00000  -0.00053  -0.00055   3.14156
   D40       -0.00005   0.00001   0.00000   0.00027   0.00026   0.00021
         Item               Value     Threshold  Converged?
 Maximum Force            0.051487     0.000450     NO 
 RMS     Force            0.008790     0.000300     NO 
 Maximum Displacement     0.115467     0.001800     NO 
 RMS     Displacement     0.026884     0.001200     NO 
 Predicted change in Energy=-7.000096D-03
 GradGradGradGradGradGradGradGradGradGradGradGradGradGradGradGradGradGrad

                          Input orientation:                          
 ---------------------------------------------------------------------
 Center     Atomic      Atomic             Coordinates (Angstroms)
 Number     Number       Type             X           Y           Z
 ---------------------------------------------------------------------
      1          6           0       -2.170966    0.698476   -0.000096
      2          6           0       -2.122234   -0.693593   -0.000021
      3          6           0       -0.901691   -1.398681   -0.000026
      4          6           0        0.259886   -0.661175    0.000106
      5          6           0        0.233521    0.751651    0.000029
      6          6           0       -0.992465    1.438143   -0.000108
      7          7           0        1.578473   -1.070223    0.000104
      8          6           0        1.586140    1.155485    0.000211
      9          6           0        2.369406   -0.008387   -0.000128
     10          1           0        1.922883   -2.041839    0.000490
     11          1           0        1.961398    2.166684    0.000153
     12          1           0        3.441388   -0.143528   -0.000321
     13          1           0       -3.049037   -1.249587    0.000073
     14          1           0       -0.871736   -2.476810    0.000159
     15          1           0       -3.127706    1.201507   -0.000069
     16          1           0       -1.020358    2.519324   -0.000019
 ---------------------------------------------------------------------
                    Distance matrix (angstroms):
                    1          2          3          4          5
     1  C    0.000000
     2  C    1.392922   0.000000
     3  C    2.451352   1.409566   0.000000
     4  C    2.785264   2.382341   1.375927   0.000000
     5  C    2.405075   2.763749   2.431590   1.413072   0.000000
     6  C    1.391393   2.412608   2.838276   2.444488   1.405102
     7  N    4.145672   3.719824   2.501819   1.380577   2.264536
     8  C    3.784800   4.143806   3.565538   2.249267   1.411617
     9  C    4.595066   4.543604   3.554291   2.208213   2.267082
    10  H    4.926350   4.263888   2.896872   2.161432   3.264587
    11  H    4.385439   4.985703   4.572647   3.300292   2.233356
    12  H    5.675165   5.590749   4.520812   3.223339   3.330429
    13  H    2.136810   1.080783   2.152516   3.360833   3.844494
    14  H    3.430808   2.177983   1.078545   2.139415   3.412411
    15  H    1.080921   2.145315   3.422882   3.865923   3.391196
    16  H    2.153923   3.396611   3.919801   3.428498   2.167229
                    6          7          8          9         10
     6  C    0.000000
     7  N    3.591884   0.000000
     8  C    2.594051   2.225721   0.000000
     9  C    3.659867   1.324035   1.402891   0.000000
    10  H    4.539772   1.030852   3.215007   2.081900   0.000000
    11  H    3.042380   3.259478   1.078583   2.213008   4.208699
    12  H    4.707519   2.080677   2.264813   1.080467   2.430935
    13  H    3.384285   4.630985   5.221995   5.558786   5.034645
    14  H    3.916815   2.825245   4.385740   4.074078   2.828267
    15  H    2.148313   5.225790   4.714071   5.628684   6.002311
    16  H    1.081540   4.431566   2.941750   4.228454   5.428340
                   11         12         13         14         15
    11  H    0.000000
    12  H    2.743619   0.000000
    13  H    6.064269   6.583995   0.000000
    14  H    5.439548   4.903799   2.499343   0.000000
    15  H    5.179821   6.705380   2.452356   4.315022   0.000000
    16  H    3.002537   5.195956   4.280213   4.998344   2.485469
                   16
    16  H    0.000000
 Stoichiometry    C8H7N
 Framework group  C1[X(C8H7N)]
 Deg. of freedom    42
 Full point group                 C1      NOp   1
 Largest Abelian subgroup         C1      NOp   1
 Largest concise Abelian subgroup C1      NOp   1
                         Standard orientation:                         
 ---------------------------------------------------------------------
 Center     Atomic      Atomic             Coordinates (Angstroms)
 Number     Number       Type             X           Y           Z
 ---------------------------------------------------------------------
      1          6           0       -2.187596    0.634617   -0.000112
      2          6           0       -2.099891   -0.755541   -0.000037
      3          6           0       -0.860077   -1.426165   -0.000042
      4          6           0        0.280387   -0.656413    0.000090
      5          6           0        0.214458    0.755120    0.000013
      6          6           0       -1.030275    1.407004   -0.000124
      7          7           0        1.609914   -1.028367    0.000088
      8          6           0        1.555236    1.196682    0.000195
      9          6           0        2.370794    0.055206   -0.000144
     10          1           0        1.981403   -1.989955    0.000474
     11          1           0        1.902023    2.217995    0.000137
     12          1           0        3.446141   -0.049856   -0.000337
     13          1           0       -3.010757   -1.337276    0.000057
     14          1           0       -0.799936   -2.503032    0.000143
     15          1           0       -3.158049    1.110653   -0.000085
     16          1           0       -1.088441    2.486979   -0.000035
 ---------------------------------------------------------------------
 Rotational constants (GHZ):           3.9349407           1.6472025           1.1611390
 Standard basis: 6-31+G(d) (6D, 7F)
 There are   185 symmetry adapted cartesian basis functions of A   symmetry.
 There are   185 symmetry adapted basis functions of A   symmetry.
   185 basis functions,   316 primitive gaussians,   185 cartesian basis functions
    31 alpha electrons       31 beta electrons
       nuclear repulsion energy       402.1371418826 Hartrees.
 NAtoms=   16 NActive=   16 NUniq=   16 SFac= 1.00D+00 NAtFMM=   60 NAOKFM=F Big=F
 Integral buffers will be    131072 words long.
 Regular integral format.
 Two-electron integral symmetry is turned on.
 One-electron integrals computed using PRISM.
 NBasis=   185 RedAO= T EigKep=  1.16D-06  NBF=   185
 NBsUse=   185 1.00D-06 EigRej= -1.00D+00 NBFU=   185
 Initial guess from the checkpoint file:  "FuncsN12SX-V-2nd.chk"
 B after Tr=     0.000000   -0.000000    0.000000
         Rot=    0.999905    0.000012    0.000018   -0.013779 Ang=   1.58 deg.
 ExpMin= 4.38D-02 ExpMax= 4.17D+03 ExpMxC= 6.27D+02 IAcc=3 IRadAn=         5 AccDes= 0.00D+00
 Harris functional with IExCor= 5547 and IRadAn=       5 diagonalized for initial guess.
 HarFok:  IExCor= 5547 AccDes= 0.00D+00 IRadAn=         5 IDoV= 1 UseB2=F ITyADJ=14
 ICtDFT=  3500011 ScaDFX=  1.000000  1.000000  1.000000  1.000000
 FoFCou: FMM=F IPFlag=           0 FMFlag=      100000 FMFlg1=           0
         NFxFlg=           0 DoJE=T BraDBF=F KetDBF=T FulRan=T
         wScrn=  0.000000 ICntrl=       500 IOpCl=  0 I1Cent=   200000004 NGrid=           0
         NMat0=    1 NMatS0=      1 NMatT0=    0 NMatD0=    1 NMtDS0=    0 NMtDT0=    0
 Petite list used in FoFCou.
 Keep R1 ints in memory in canonical form, NReq=303303409.
 Requested convergence on RMS density matrix=1.00D-08 within 128 cycles.
 Requested convergence on MAX density matrix=1.00D-06.
 Requested convergence on             energy=1.00D-06.
 No special actions if energy rises.
 SCF Done:  E(RN12SX) =  -363.660268976     A.U. after   13 cycles
            NFock= 13  Conv=0.85D-08     -V/T= 2.0106
 DoSCS=F DFT=T ScalE2(SS,OS)=  1.000000  1.000000
 ExpMin= 4.38D-02 ExpMax= 4.17D+03 ExpMxC= 6.27D+02 IAcc=3 IRadAn=         5 AccDes= 0.00D+00
 HarFok:  IExCor=  205 AccDes= 0.00D+00 IRadAn=         5 IDoV=-2 UseB2=F ITyADJ=14
 ICtDFT= 12500011 ScaDFX=  1.000000  1.000000  1.000000  1.000000
 Range of M.O.s used for correlation:    10   185
 NBasis=   185 NAE=    31 NBE=    31 NFC=     9 NFV=     0
 NROrb=    176 NOA=    22 NOB=    22 NVA=   154 NVB=   154

 **** Warning!!: The largest alpha MO coefficient is  0.20607858D+03

 Orbital symmetries:
       Occupied  (A) (A) (A) (A) (A) (A) (A) (A) (A) (A) (A) (A)
                 (A) (A) (A) (A) (A) (A) (A) (A) (A) (A) (A) (A)
                 (A) (A) (A) (A) (A) (A) (A)
       Virtual   (A) (A) (A) (A) (A) (A) (A) (A) (A) (A) (A) (A)
                 (A) (A) (A) (A) (A) (A) (A) (A) (A) (A) (A) (A)
                 (A) (A) (A) (A) (A) (A) (A) (A) (A) (A) (A) (A)
                 (A) (A) (A) (A) (A) (A) (A) (A) (A) (A) (A) (A)
                 (A) (A) (A) (A) (A) (A) (A) (A) (A) (A) (A) (A)
                 (A) (A) (A) (A) (A) (A) (A) (A) (A) (A) (A) (A)
                 (A) (A) (A) (A) (A) (A) (A) (A) (A) (A) (A) (A)
                 (A) (A) (A) (A) (A) (A) (A) (A) (A) (A) (A) (A)
                 (A) (A) (A) (A) (A) (A) (A) (A) (A) (A) (A) (A)
                 (A) (A) (A) (A) (A) (A) (A) (A) (A) (A) (A) (A)
                 (A) (A) (A) (A) (A) (A) (A) (A) (A) (A) (A) (A)
                 (A) (A) (A) (A) (A) (A) (A) (A) (A) (A) (A) (A)
                 (A) (A) (A) (A) (A) (A) (A) (A) (A) (A)
 Generating guess from densities on rwf.
 Convergence on wavefunction:    0.000001000000000
 Iteration     1 Dimension    12 NMult     0 NNew     12
 CISAX will form    12 AO SS matrices at one time.
 New state      2 was old state      3
 New state      3 was old state      5
 New state      4 was old state      6
 New state      5 was old state      2
 New state      6 was old state      4
 Iteration     2 Dimension    24 NMult    12 NNew     12
 New state      2 was old state      3
 New state      3 was old state      2
 Iteration     3 Dimension    36 NMult    24 NNew     12
 New state      1 was old state      2
 New state      2 was old state      1
 Iteration     4 Dimension    48 NMult    36 NNew     12
 Iteration     5 Dimension    60 NMult    48 NNew     12
 Iteration     6 Dimension    72 NMult    60 NNew     12
 Iteration     7 Dimension    84 NMult    72 NNew     12
 Iteration     8 Dimension    96 NMult    84 NNew     12
 Iteration     9 Dimension   108 NMult    96 NNew     12
 Iteration    10 Dimension   120 NMult   108 NNew     12
 Iteration    11 Dimension   130 NMult   120 NNew     10
 Iteration    12 Dimension   134 NMult   130 NNew      4
 Iteration    13 Dimension   136 NMult   134 NNew      2
 ***********************************************************************
 Excited states from <AA,BB:AA,BB> singles matrix:
 ***********************************************************************
 
 Ground to excited state transition densities written to RWF  633
 Ground to excited state transition electric dipole moments (Au):
       state          X           Y           Z        Dip. S.      Osc.
         1         0.0006     -0.0004     -0.1125      0.0126      0.0014
         2        -0.0001     -0.0001      0.1161      0.0135      0.0018
         3        -0.0296     -0.1716      0.0000      0.0303      0.0037
         4        -0.0000      0.0000     -0.0028      0.0000      0.0000
         5        -0.8539      0.5891     -0.0000      1.0761      0.1201
         6         0.0001     -0.0000     -0.0879      0.0077      0.0010
 Ground to excited state transition velocity dipole moments (Au):
       state          X           Y           Z        Dip. S.      Osc.
         1        -0.0001      0.0001      0.0106      0.0001      0.0005
         2         0.0000      0.0000     -0.0203      0.0004      0.0014
         3         0.0041      0.0335     -0.0000      0.0011      0.0042
         4        -0.0000     -0.0000      0.0033      0.0000      0.0000
         5         0.1325     -0.1075     -0.0000      0.0291      0.1160
         6        -0.0000      0.0000      0.0209      0.0004      0.0015
 Ground to excited state transition magnetic dipole moments (Au):
       state          X           Y           Z
         1         0.1386     -0.0640     -0.0001
         2         0.0879      0.2781     -0.0001
         3        -0.0001     -0.0000      0.1075
         4         0.2227     -0.1671      0.0000
         5         0.0001      0.0001      0.1832
         6        -0.0143     -0.1487     -0.0000
 Ground to excited state transition velocity quadrupole moments (Au):
       state          XX          YY          ZZ          XY          XZ          YZ
         1        -0.0001      0.0001      0.0000     -0.0000      0.0511      0.0530
         2        -0.0000      0.0000     -0.0000     -0.0000     -0.2347      0.0053
         3        -0.0254     -0.0486      0.0190      0.0262      0.0000     -0.0000
         4         0.0002     -0.0000     -0.0000      0.0000      0.1788      0.1772
         5         0.1951     -0.1443      0.0184      0.0625     -0.0000      0.0000
         6         0.0001     -0.0000     -0.0000     -0.0000      0.0871     -0.0585
 <0|del|b> * <b|rxdel|0> + <0|del|b> * <b|delr+rdel|0>
 Rotatory Strengths (R) in cgs (10**-40 erg-esu-cm/Gauss)
       state          XX          YY          ZZ    R(velocity)    E-M Angle
         1        -0.0216     -0.0399     -0.0187     -0.0267       90.00
         2         0.0249      0.0077      0.0054      0.0127       90.00
         3        -0.0023     -0.0012     -0.0012     -0.0015       90.00
         4         0.0089     -0.0015     -0.0005      0.0023       90.00
         5        -0.0230      0.0305     -0.0119     -0.0015       90.00
         6        -0.0034      0.0025     -0.0024     -0.0011       90.00
 1/2[<0|r|b>*<b|rxdel|0> + (<0|rxdel|b>*<b|r|0>)*]
 Rotatory Strengths (R) in cgs (10**-40 erg-esu-cm/Gauss)
       state          XX          YY          ZZ     R(length)
         1        -0.0582     -0.0195     -0.0104     -0.0294
         2         0.0072      0.0225      0.0103      0.0133
         3        -0.0020     -0.0021     -0.0007     -0.0016
         4         0.0016      0.0056      0.0001      0.0024
         5         0.0375     -0.0347      0.0028      0.0019
         6         0.0010     -0.0007     -0.0007     -0.0001
  1/2[<0|del|b>*<b|r|0> + (<0|r|b>*<b|del|0>)*] (Au)
       state          X           Y           Z        Dip. S.   Osc.(frdel)
         1        -0.0000     -0.0000     -0.0012      0.0012      0.0008
         2        -0.0000     -0.0000     -0.0024      0.0024      0.0016
         3        -0.0001     -0.0058     -0.0000      0.0059      0.0039
         4         0.0000     -0.0000     -0.0000      0.0000      0.0000
         5        -0.1132     -0.0634      0.0000      0.1765      0.1177
         6        -0.0000     -0.0000     -0.0018      0.0018      0.0012

 Excitation energies and oscillator strengths:
 
 Excited State   1:      Singlet-A      4.4940 eV  275.89 nm  f=0.0014  <S**2>=0.000
      31 -> 33         0.70526
 
 Excited State   2:      Singlet-A      5.3223 eV  232.95 nm  f=0.0018  <S**2>=0.000
      31 -> 35         0.70231
 This state for optimization and/or second-order correction.
 Total Energy, E(TD-HF/TD-DFT) =  -363.464679038    
 Copying the excited state density for this state as the 1-particle RhoCI density.
 
 Excited State   3:      Singlet-A      4.9723 eV  249.35 nm  f=0.0037  <S**2>=0.000
      30 -> 32         0.52508
      31 -> 36        -0.46110
 
 Excited State   4:      Singlet-A      5.1864 eV  239.06 nm  f=0.0000  <S**2>=0.000
      31 -> 34         0.70403
 
 Excited State   5:      Singlet-A      4.5555 eV  272.16 nm  f=0.1201  <S**2>=0.000
      30 -> 36         0.12716
      31 -> 32         0.67866
 
 Excited State   6:      Singlet-A      5.4324 eV  228.23 nm  f=0.0010  <S**2>=0.000
      30 -> 33         0.70263
 SavETr:  write IOETrn=   770 NScale= 10 NData=  16 NLR=1 NState=    6 LETran=     118.
          IDoAtm=1111111111111111
          Differentiating once with respect to electric field.
                with respect to dipole field.
          Differentiating once with respect to nuclear coordinates.
 Keep R1 ints in memory in canonical form, NReq=303315801.
          There are     1 degrees of freedom in the 1st order CPHF.  IDoFFX=0 NUNeed=     1.
 LinEq1:  Iter=  0 NonCon=     1 RMS=1.29D-02 Max=2.65D-01 NDo=     1
 AX will form     1 AO Fock derivatives at one time.
 LinEq1:  Iter=  1 NonCon=     1 RMS=7.27D-03 Max=2.43D-01 NDo=     1
 LinEq1:  Iter=  2 NonCon=     1 RMS=5.36D-03 Max=1.09D-01 NDo=     1
 LinEq1:  Iter=  3 NonCon=     1 RMS=2.49D-03 Max=6.86D-02 NDo=     1
 LinEq1:  Iter=  4 NonCon=     1 RMS=1.42D-03 Max=2.91D-02 NDo=     1
 LinEq1:  Iter=  5 NonCon=     1 RMS=1.02D-03 Max=2.56D-02 NDo=     1
 LinEq1:  Iter=  6 NonCon=     1 RMS=5.85D-04 Max=1.38D-02 NDo=     1
 LinEq1:  Iter=  7 NonCon=     1 RMS=2.50D-04 Max=5.66D-03 NDo=     1
 LinEq1:  Iter=  8 NonCon=     1 RMS=1.29D-04 Max=2.61D-03 NDo=     1
 LinEq1:  Iter=  9 NonCon=     1 RMS=4.98D-05 Max=9.96D-04 NDo=     1
 LinEq1:  Iter= 10 NonCon=     1 RMS=2.90D-05 Max=5.57D-04 NDo=     1
 LinEq1:  Iter= 11 NonCon=     1 RMS=8.76D-06 Max=2.56D-04 NDo=     1
 LinEq1:  Iter= 12 NonCon=     1 RMS=5.68D-06 Max=1.28D-04 NDo=     1
 LinEq1:  Iter= 13 NonCon=     1 RMS=1.59D-06 Max=2.56D-05 NDo=     1
 LinEq1:  Iter= 14 NonCon=     1 RMS=1.02D-06 Max=2.05D-05 NDo=     1
 LinEq1:  Iter= 15 NonCon=     1 RMS=2.46D-07 Max=4.84D-06 NDo=     1
 LinEq1:  Iter= 16 NonCon=     1 RMS=5.34D-08 Max=8.98D-07 NDo=     1
 LinEq1:  Iter= 17 NonCon=     1 RMS=3.05D-08 Max=6.34D-07 NDo=     1
 LinEq1:  Iter= 18 NonCon=     1 RMS=1.16D-08 Max=1.79D-07 NDo=     1
 LinEq1:  Iter= 19 NonCon=     1 RMS=2.58D-09 Max=2.29D-08 NDo=     1
 LinEq1:  Iter= 20 NonCon=     1 RMS=4.76D-10 Max=4.87D-09 NDo=     1
 LinEq1:  Iter= 21 NonCon=     1 RMS=1.47D-10 Max=1.63D-09 NDo=     1
 LinEq1:  Iter= 22 NonCon=     0 RMS=4.55D-11 Max=5.66D-10 NDo=     1
 Linear equations converged to 1.000D-10 1.000D-09 after    22 iterations.
 End of Minotr F.D. properties file   721 does not exist.
 End of Minotr F.D. properties file   722 does not exist.
 End of Minotr F.D. properties file   788 does not exist.
 Calling FoFJK, ICntrl=  10005127 FMM=F ISym2X=0 I1Cent= 0 IOpClX= 0 NMat=1 NMatS=1 NMatT=0.
 ***** Axes restored to original set *****
 -------------------------------------------------------------------
 Center     Atomic                   Forces (Hartrees/Bohr)
 Number     Number              X              Y              Z
 -------------------------------------------------------------------
      1        6           0.007063938   -0.003662933   -0.000000714
      2        6          -0.002663613    0.002372622   -0.000007479
      3        6           0.007966756   -0.001353859    0.000030095
      4        6          -0.024950905   -0.004153068   -0.000011046
      5        6           0.015472750   -0.000999966    0.000022122
      6        6          -0.005226794   -0.000763314    0.000018167
      7        7           0.007582161   -0.027943902   -0.000003900
      8        6          -0.006494413    0.011601128   -0.000062808
      9        6           0.012235172   -0.000077623    0.000045386
     10        1          -0.010177092    0.017156356   -0.000022036
     11        1           0.000713308    0.000307631    0.000005169
     12        1          -0.000517790    0.006862764    0.000005605
     13        1          -0.000319207   -0.001125862   -0.000002393
     14        1          -0.002363395   -0.002467851   -0.000008199
     15        1          -0.000024645    0.001327757   -0.000002056
     16        1           0.001703770    0.002920121   -0.000005912
 -------------------------------------------------------------------
 Cartesian Forces:  Max     0.027943902 RMS     0.007481082

 GradGradGradGradGradGradGradGradGradGradGradGradGradGradGradGradGradGrad
 Berny optimization.
 Using GEDIIS/GDIIS optimizer.
 FormGI is forming the generalized inverse of G from B-inverse, IUseBI=4.
 Internal  Forces:  Max     0.019571804 RMS     0.003915081
 Search for a local minimum.
 Step number   2 out of a maximum of   94
 All quantities printed in internal units (Hartrees-Bohrs-Radians)
 Mixed Optimization -- RFO/linear search
 Update second derivatives using D2CorX and points    2    1
 DE=  2.23D-02 DEPred=-7.00D-03 R=-3.19D+00
 Trust test=-3.19D+00 RLast= 1.73D-01 DXMaxT set to 1.50D-01
 ITU= -1  0
 Use linear search instead of GDIIS.
     Eigenvalues ---    0.01855   0.01932   0.01987   0.02011   0.02070
     Eigenvalues ---    0.02113   0.02148   0.02158   0.02172   0.02210
     Eigenvalues ---    0.02233   0.02248   0.02344   0.15914   0.16000
     Eigenvalues ---    0.16000   0.16000   0.16000   0.16000   0.16571
     Eigenvalues ---    0.22023   0.22142   0.22483   0.24374   0.25046
     Eigenvalues ---    0.35341   0.35726   0.35783   0.35788   0.36100
     Eigenvalues ---    0.36438   0.36468   0.37645   0.42227   0.43303
     Eigenvalues ---    0.43480   0.46076   0.46842   0.47391   0.48064
     Eigenvalues ---    0.49024   0.69638
 RFO step:  Lambda=-1.44704376D-03 EMin= 1.85517040D-02
 Quartic linear search produced a step of -0.91926.
 Iteration  1 RMS(Cart)=  0.03280479 RMS(Int)=  0.00052691
 Iteration  2 RMS(Cart)=  0.00054196 RMS(Int)=  0.00017399
 Iteration  3 RMS(Cart)=  0.00000045 RMS(Int)=  0.00017399
 Variable       Old X    -DE/DX   Delta X   Delta X   Delta X     New X
                                 (Linear)    (Quad)   (Total)
    R1        2.63224  -0.00022   0.02136  -0.00369   0.01766   2.64990
    R2        2.62935  -0.00233  -0.01511   0.00146  -0.01365   2.61570
    R3        2.04264   0.00064   0.00144   0.00031   0.00176   2.04440
    R4        2.66369   0.00064  -0.04424   0.00889  -0.03534   2.62835
    R5        2.04238   0.00085   0.00159   0.00038   0.00197   2.04435
    R6        2.60012  -0.00321   0.03089  -0.00437   0.02653   2.62665
    R7        2.03816   0.00240   0.00660   0.00133   0.00794   2.04609
    R8        2.67032   0.00499   0.00943   0.00121   0.01063   2.68095
    R9        2.60891   0.00809  -0.00703   0.00537  -0.00166   2.60725
   R10        2.65526  -0.00057  -0.00694   0.00063  -0.00632   2.64894
   R11        2.66757  -0.00362   0.03752  -0.00473   0.03278   2.70035
   R12        2.04381   0.00287   0.00133   0.00081   0.00214   2.04596
   R13        2.50206   0.01691   0.09529  -0.01574   0.07957   2.58163
   R14        1.94803  -0.01957  -0.04836   0.00497  -0.04339   1.90464
   R15        2.65108   0.00478  -0.06654   0.01650  -0.05004   2.60104
   R16        2.03823   0.00054  -0.00371  -0.00024  -0.00395   2.03428
   R17        2.04179  -0.00137  -0.00688  -0.00097  -0.00785   2.03394
    A1        2.09629   0.00425   0.01646   0.01099   0.02745   2.12374
    A2        2.08984  -0.00094  -0.00918  -0.00641  -0.01559   2.07425
    A3        2.09705  -0.00331  -0.00728  -0.00458  -0.01186   2.08519
    A4        2.12964  -0.00105  -0.01324  -0.01364  -0.02689   2.10275
    A5        2.07615   0.00135   0.00689   0.00766   0.01456   2.09072
    A6        2.07739  -0.00030   0.00635   0.00597   0.01232   2.08972
    A7        2.05205  -0.00379  -0.00056   0.00103   0.00046   2.05251
    A8        2.12242  -0.00058  -0.00897  -0.01648  -0.02545   2.09697
    A9        2.10872   0.00437   0.00953   0.01545   0.02497   2.13369
   A10        2.11784   0.00616   0.01475   0.01262   0.02739   2.14523
   A11        2.27509   0.00071   0.00355  -0.00211   0.00145   2.27654
   A12        1.89026  -0.00687  -0.01830  -0.01051  -0.02884   1.86142
   A13        2.09991  -0.00467  -0.02497  -0.01394  -0.03890   2.06101
   A14        1.84227   0.01046   0.02106   0.01183   0.03285   1.87511
   A15        2.34101  -0.00579   0.00392   0.00211   0.00605   2.34706
   A16        2.07065  -0.00091   0.00756   0.00294   0.01049   2.08114
   A17        2.10549   0.00227  -0.00224   0.00190  -0.00034   2.10516
   A18        2.10704  -0.00136  -0.00532  -0.00484  -0.01016   2.09688
   A19        1.91020  -0.00015  -0.00255   0.00700   0.00437   1.91457
   A20        2.21225  -0.00368  -0.02024  -0.03966  -0.05995   2.15230
   A21        2.16073   0.00383   0.02280   0.03265   0.05536   2.21609
   A22        1.87303  -0.00231  -0.00307  -0.01129  -0.01442   1.85861
   A23        2.21628   0.00172   0.00082   0.00479   0.00561   2.22188
   A24        2.19388   0.00058   0.00225   0.00650   0.00875   2.20263
   A25        1.90902  -0.00113   0.00287   0.00297   0.00581   1.91483
   A26        2.08560   0.00745   0.01553   0.02899   0.04449   2.13010
   A27        2.28856  -0.00632  -0.01841  -0.03196  -0.05039   2.23818
    D1       -0.00006   0.00000   0.00004   0.00074   0.00079   0.00073
    D2        3.14150   0.00000   0.00011   0.00197   0.00210  -3.13958
    D3       -3.14157  -0.00000  -0.00008  -0.00142  -0.00152   3.14010
    D4       -0.00001  -0.00000  -0.00001  -0.00020  -0.00020  -0.00021
    D5       -0.00006   0.00000   0.00002   0.00053   0.00054   0.00048
    D6       -3.14143  -0.00001  -0.00020  -0.00348  -0.00372   3.13804
    D7        3.14145   0.00001   0.00015   0.00270   0.00286  -3.13888
    D8        0.00008  -0.00000  -0.00008  -0.00131  -0.00140  -0.00132
    D9        0.00017  -0.00001  -0.00013  -0.00232  -0.00239  -0.00221
   D10        3.14145   0.00000   0.00018   0.00293   0.00309  -3.13864
   D11       -3.14138  -0.00001  -0.00020  -0.00355  -0.00370   3.13810
   D12       -0.00011   0.00000   0.00010   0.00170   0.00177   0.00167
   D13       -0.00018   0.00000   0.00015   0.00265   0.00279   0.00262
   D14       -3.14156   0.00000   0.00011   0.00159   0.00182  -3.13974
   D15       -3.14146  -0.00000  -0.00015  -0.00255  -0.00279   3.13894
   D16        0.00034  -0.00000  -0.00019  -0.00361  -0.00376  -0.00342
   D17        0.00006   0.00000  -0.00009  -0.00147  -0.00153  -0.00146
   D18        3.14159   0.00000   0.00008   0.00127   0.00141  -3.14018
   D19        3.14149   0.00000  -0.00006  -0.00062  -0.00075   3.14074
   D20       -0.00017   0.00000   0.00011   0.00213   0.00219   0.00202
   D21        3.14128   0.00001   0.00061   0.01134   0.01163  -3.13027
   D22       -0.00060   0.00001  -0.00049  -0.00943  -0.00933  -0.00992
   D23       -0.00013   0.00001   0.00057   0.01038   0.01077   0.01065
   D24        3.14118   0.00000  -0.00053  -0.01039  -0.01018   3.13100
   D25        0.00006  -0.00000  -0.00000  -0.00019  -0.00019  -0.00013
   D26        3.14143   0.00000   0.00023   0.00383   0.00404  -3.13771
   D27       -3.14144  -0.00001  -0.00023  -0.00387  -0.00412   3.13762
   D28       -0.00007  -0.00000   0.00000   0.00015   0.00011   0.00005
   D29        0.00039  -0.00002  -0.00073  -0.01305  -0.01402  -0.01363
   D30        3.14152   0.00000  -0.00012  -0.00182  -0.00204   3.13949
   D31       -3.14129  -0.00001  -0.00053  -0.00975  -0.01039   3.13151
   D32       -0.00015   0.00001   0.00008   0.00148   0.00160   0.00144
   D33        0.00038  -0.00002  -0.00106  -0.01888  -0.02025  -0.01987
   D34       -3.14143  -0.00001  -0.00040  -0.00706  -0.00747   3.13429
   D35       -3.14094  -0.00001   0.00005   0.00116   0.00169  -3.13925
   D36        0.00044  -0.00000   0.00071   0.01298   0.01447   0.01491
   D37       -0.00048   0.00002   0.00111   0.02002   0.02096   0.02047
   D38        3.14136   0.00001   0.00036   0.00635   0.00715  -3.13468
   D39        3.14156   0.00001   0.00051   0.00898   0.00914  -3.13248
   D40        0.00021  -0.00001  -0.00024  -0.00470  -0.00467  -0.00445
         Item               Value     Threshold  Converged?
 Maximum Force            0.019572     0.000450     NO 
 RMS     Force            0.003915     0.000300     NO 
 Maximum Displacement     0.145896     0.001800     NO 
 RMS     Displacement     0.032768     0.001200     NO 
 Predicted change in Energy=-2.608374D-02
 GradGradGradGradGradGradGradGradGradGradGradGradGradGradGradGradGradGrad

                          Input orientation:                          
 ---------------------------------------------------------------------
 Center     Atomic      Atomic             Coordinates (Angstroms)
 Number     Number       Type             X           Y           Z
 ---------------------------------------------------------------------
      1          6           0       -2.146065    0.682580    0.003158
      2          6           0       -2.132202   -0.719619    0.001571
      3          6           0       -0.926615   -1.413202   -0.000041
      4          6           0        0.245826   -0.666623   -0.002733
      5          6           0        0.256343    0.752036   -0.000756
      6          6           0       -0.975408    1.421149    0.002325
      7          7           0        1.564697   -1.071755   -0.006722
      8          6           0        1.622771    1.170105   -0.006454
      9          6           0        2.382540    0.022456    0.006401
     10          1           0        1.846632   -2.039387    0.000102
     11          1           0        1.996112    2.179782   -0.008536
     12          1           0        3.455170   -0.066323    0.012611
[...]
 ! A24   A(9,8,11)             125.8405         -DE/DX =    0.0013              !
 ! A25   A(7,9,8)              109.5578         -DE/DX =   -0.0021              !
 ! A26   A(7,9,12)             120.4645         -DE/DX =    0.003               !
 ! A27   A(8,9,12)             129.9776         -DE/DX =   -0.0009              !
 ! D1    D(6,1,2,3)             -0.0008         -DE/DX =    0.0                 !
 ! D2    D(6,1,2,13)          -179.9981         -DE/DX =    0.0                 !
 ! D3    D(15,1,2,3)           179.996          -DE/DX =    0.0                 !
 ! D4    D(15,1,2,13)           -0.0013         -DE/DX =    0.0                 !
 ! D5    D(2,1,6,5)             -0.0018         -DE/DX =    0.0                 !
 ! D6    D(2,1,6,16)           179.9965         -DE/DX =    0.0                 !
 ! D7    D(15,1,6,5)          -179.9986         -DE/DX =    0.0                 !
 ! D8    D(15,1,6,16)           -0.0003         -DE/DX =    0.0                 !
 ! D9    D(1,2,3,4)              0.002          -DE/DX =    0.0                 !
 ! D10   D(1,2,3,14)          -179.9968         -DE/DX =    0.0                 !
 ! D11   D(13,2,3,4)           179.9992         -DE/DX =    0.0                 !
 ! D12   D(13,2,3,14)            0.0005         -DE/DX =    0.0                 !
 ! D13   D(2,3,4,5)             -0.0005         -DE/DX =    0.0                 !
 ! D14   D(2,3,4,7)           -179.9911         -DE/DX =    0.0                 !
 ! D15   D(14,3,4,5)           179.9982         -DE/DX =    0.0                 !
 ! D16   D(14,3,4,7)             0.0076         -DE/DX =    0.0                 !
 ! D17   D(3,4,5,6)             -0.002          -DE/DX =    0.0                 !
 ! D18   D(3,4,5,8)           -179.9955         -DE/DX =    0.0                 !
 ! D19   D(7,4,5,6)            179.9905         -DE/DX =    0.0                 !
 ! D20   D(7,4,5,8)             -0.003          -DE/DX =    0.0                 !
 ! D21   D(3,4,7,9)           -179.98           -DE/DX =    0.0                 !
 ! D22   D(3,4,7,10)            -0.0649         -DE/DX =    0.0                 !
 ! D23   D(5,4,7,9)              0.0284         -DE/DX =    0.0                 !
 ! D24   D(5,4,7,10)           179.9434         -DE/DX =    0.0                 !
 ! D25   D(4,5,6,1)              0.0031         -DE/DX =    0.0                 !
 ! D26   D(4,5,6,16)          -179.9951         -DE/DX =    0.0                 !
 ! D27   D(8,5,6,1)            179.9944         -DE/DX =    0.0                 !
 ! D28   D(8,5,6,16)            -0.0038         -DE/DX =    0.0                 !
 ! D29   D(4,5,8,9)             -0.0234         -DE/DX =    0.0                 !
 ! D30   D(4,5,8,11)           179.9883         -DE/DX =    0.0                 !
 ! D31   D(6,5,8,9)            179.9846         -DE/DX =    0.0                 !
 ! D32   D(6,5,8,11)            -0.0037         -DE/DX =    0.0                 !
 ! D33   D(4,7,9,8)             -0.0444         -DE/DX =    0.0                 !
 ! D34   D(4,7,9,12)           179.9847         -DE/DX =    0.0                 !
 ! D35   D(10,7,9,8)          -179.9597         -DE/DX =    0.0                 !
 ! D36   D(10,7,9,12)            0.0693         -DE/DX =    0.0                 !
 ! D37   D(5,8,9,7)              0.0414         -DE/DX =    0.0                 !
 ! D38   D(5,8,9,12)          -179.9913         -DE/DX =    0.0                 !
 ! D39   D(11,8,9,7)          -179.9702         -DE/DX =    0.0                 !
 ! D40   D(11,8,9,12)           -0.0029         -DE/DX =    0.0                 !
 --------------------------------------------------------------------------------
 GradGradGradGradGradGradGradGradGradGradGradGradGradGradGradGradGradGrad

                          Input orientation:                          
 ---------------------------------------------------------------------
 Center     Atomic      Atomic             Coordinates (Angstroms)
 Number     Number       Type             X           Y           Z
 ---------------------------------------------------------------------
      1          6           0       -2.151078    0.689165    0.000095
      2          6           0       -2.127912   -0.715859    0.000045
      3          6           0       -0.932266   -1.413118   -0.000054
      4          6           0        0.246925   -0.670195   -0.000059
      5          6           0        0.248178    0.748305    0.000021
      6          6           0       -0.979503    1.423507    0.000065
      7          7           0        1.561797   -1.077559   -0.000306
      8          6           0        1.620108    1.162934   -0.000118
      9          6           0        2.382012    0.030854    0.000261
     10          1           0        1.876358   -2.029972    0.000394
     11          1           0        1.992127    2.173052   -0.000280
     12          1           0        3.452551   -0.082355    0.000424
     13          1           0       -3.061568   -1.262081    0.000038
     14          1           0       -0.917199   -2.495359   -0.000144
     15          1           0       -3.104228    1.200723    0.000106
     16          1           0       -1.009399    2.505402    0.000047
 ---------------------------------------------------------------------
                    Distance matrix (angstroms):
                    1          2          3          4          5
     1  C    0.000000
     2  C    1.405216   0.000000
     3  C    2.430040   1.384102   0.000000
     4  C    2.756497   2.375277   1.393710   0.000000
     5  C    2.399984   2.790982   2.462762   1.418500   0.000000
     6  C    1.382695   2.428113   2.837018   2.426461   1.401106
     7  N    4.111782   3.707396   2.516536   1.376530   2.249306
     8  C    3.800828   4.192555   3.626383   2.290413   1.433217
     9  C    4.580642   4.571324   3.615176   2.247235   2.251219
    10  H    4.859418   4.214389   2.875566   2.122274   3.220216
    11  H    4.400916   5.031951   4.627385   3.336133   2.251946
    12  H    5.656491   5.616306   4.582309   3.259078   3.310288
    13  H    2.153219   1.081698   2.134652   3.361020   3.872476
    14  H    3.415209   2.152312   1.082347   2.164812   3.446659
    15  H    1.081752   2.150925   3.398467   3.838041   3.382796
    16  H    2.145261   3.409926   3.919279   3.415079   2.160761
                    6          7          8          9         10
     6  C    0.000000
     7  N    3.565605   0.000000
     8  C    2.612638   2.241252   0.000000
     9  C    3.638581   1.378888   1.364589   0.000000
    10  H    4.481346   1.003015   3.203172   2.121954   0.000000
    11  H    3.064703   3.278972   1.076446   2.177389   4.204618
    12  H    4.680889   2.136675   2.215534   1.076508   2.505513
    13  H    3.398143   4.627046   5.272455   5.595020   4.997276
    14  H    3.919362   2.855798   4.452082   4.155304   2.832057
    15  H    2.136373   5.192529   4.724487   5.609584   5.936634
    16  H    1.082308   4.410064   2.952376   4.198221   5.375612
                   11         12         13         14         15
    11  H    0.000000
    12  H    2.686950   0.000000
    13  H    6.110644   6.620083   0.000000
    14  H    5.500749   4.991724   2.473721   0.000000
    15  H    5.188281   6.681140   2.463173   4.294662   0.000000
    16  H    3.019870   5.158050   4.290143   5.001611   2.467893
                   16
    16  H    0.000000
 Stoichiometry    C8H7N
 Framework group  C1[X(C8H7N)]
 Deg. of freedom    42
 Full point group                 C1      NOp   1
 Largest Abelian subgroup         C1      NOp   1
 Largest concise Abelian subgroup C1      NOp   1
                         Standard orientation:                         
 ---------------------------------------------------------------------
 Center     Atomic      Atomic             Coordinates (Angstroms)
 Number     Number       Type             X           Y           Z
 ---------------------------------------------------------------------
      1          6           0       -2.151064    0.689206    0.000095
      2          6           0       -2.127926   -0.715819    0.000045
      3          6           0       -0.932294   -1.413101   -0.000053
      4          6           0        0.246912   -0.670200   -0.000058
      5          6           0        0.248192    0.748299    0.000021
      6          6           0       -0.979476    1.423525    0.000065
      7          7           0        1.561776   -1.077590   -0.000306
      8          6           0        1.620130    1.162902   -0.000117
      9          6           0        2.382013    0.030807    0.000261
     10          1           0        1.876319   -2.030009    0.000394
     11          1           0        1.992169    2.173013   -0.000280
     12          1           0        3.452549   -0.082423    0.000424
     13          1           0       -3.061592   -1.262023    0.000039
     14          1           0       -0.917247   -2.495343   -0.000144
     15          1           0       -3.104205    1.200782    0.000106
     16          1           0       -1.009351    2.505421    0.000047
 ---------------------------------------------------------------------
 Rotational constants (GHZ):           3.9080828           1.6429453           1.1566806

 **********************************************************************

            Population analysis using the CI Density.

 **********************************************************************

 Orbital symmetries:
       Occupied  (A) (A) (A) (A) (A) (A) (A) (A) (A) (A) (A) (A)
                 (A) (A) (A) (A) (A) (A) (A) (A) (A) (A) (A) (A)
                 (A) (A) (A) (A) (A) (A) (A)
       Virtual   (A) (A) (A) (A) (A) (A) (A) (A) (A) (A) (A) (A)
                 (A) (A) (A) (A) (A) (A) (A) (A) (A) (A) (A) (A)
                 (A) (A) (A) (A) (A) (A) (A) (A) (A) (A) (A) (A)
                 (A) (A) (A) (A) (A) (A) (A) (A) (A) (A) (A) (A)
                 (A) (A) (A) (A) (A) (A) (A) (A) (A) (A) (A) (A)
                 (A) (A) (A) (A) (A) (A) (A) (A) (A) (A) (A) (A)
                 (A) (A) (A) (A) (A) (A) (A) (A) (A) (A) (A) (A)
                 (A) (A) (A) (A) (A) (A) (A) (A) (A) (A) (A) (A)
                 (A) (A) (A) (A) (A) (A) (A) (A) (A) (A) (A) (A)
                 (A) (A) (A) (A) (A) (A) (A) (A) (A) (A) (A) (A)
                 (A) (A) (A) (A) (A) (A) (A) (A) (A) (A) (A) (A)
                 (A) (A) (A) (A) (A) (A) (A) (A) (A) (A) (A) (A)
                 (A) (A) (A) (A) (A) (A) (A) (A) (A) (A)
 The electronic state is 1-A.
 Alpha  occ. eigenvalues --  -14.43710 -10.27351 -10.27179 -10.24108 -10.23749
 Alpha  occ. eigenvalues --  -10.23587 -10.23582 -10.23079 -10.22844  -0.98260
 Alpha  occ. eigenvalues --   -0.84183  -0.78408  -0.73606  -0.71775  -0.62474
 Alpha  occ. eigenvalues --   -0.59440  -0.58132  -0.53988  -0.48116  -0.46969
 Alpha  occ. eigenvalues --   -0.43585  -0.42754  -0.42060  -0.40937  -0.38949
 Alpha  occ. eigenvalues --   -0.35230  -0.33167  -0.33118  -0.27495  -0.21828
 Alpha  occ. eigenvalues --   -0.20151
 Alpha virt. eigenvalues --   -0.02348  -0.01191   0.00704   0.01222   0.01276
 Alpha virt. eigenvalues --    0.02673   0.02793   0.03949   0.05117   0.05374
 Alpha virt. eigenvalues --    0.05546   0.05859   0.07974   0.08253   0.09552
 Alpha virt. eigenvalues --    0.09741   0.10674   0.11937   0.12851   0.13323
 Alpha virt. eigenvalues --    0.14543   0.14855   0.15758   0.15932   0.16479
 Alpha virt. eigenvalues --    0.17307   0.18138   0.18205   0.18964   0.19173
 Alpha virt. eigenvalues --    0.19594   0.19707   0.21115   0.21901   0.22408
 Alpha virt. eigenvalues --    0.22828   0.23152   0.23867   0.25144   0.25375
 Alpha virt. eigenvalues --    0.26389   0.26429   0.27299   0.29236   0.29937
 Alpha virt. eigenvalues --    0.30746   0.31351   0.32981   0.34947   0.36414
 Alpha virt. eigenvalues --    0.37603   0.39653   0.43364   0.44833   0.51378
 Alpha virt. eigenvalues --    0.58024   0.62595   0.67512   0.67524   0.69927
 Alpha virt. eigenvalues --    0.71570   0.72110   0.73133   0.73700   0.74077
 Alpha virt. eigenvalues --    0.75355   0.75536   0.77822   0.79239   0.79893
 Alpha virt. eigenvalues --    0.81472   0.85401   0.89161   0.89776   0.90989
 Alpha virt. eigenvalues --    0.93357   0.93963   0.95101   0.95446   0.98193
 Alpha virt. eigenvalues --    1.00013   1.03121   1.05013   1.06150   1.10055
 Alpha virt. eigenvalues --    1.11904   1.12132   1.17552   1.18508   1.21149
 Alpha virt. eigenvalues --    1.22828   1.23940   1.25751   1.32079   1.32722
 Alpha virt. eigenvalues --    1.34571   1.37438   1.42046   1.42196   1.45338
 Alpha virt. eigenvalues --    1.46663   1.47074   1.50232   1.50885   1.53975
 Alpha virt. eigenvalues --    1.59274   1.65637   1.79465   1.85345   1.89401
 Alpha virt. eigenvalues --    1.90064   1.93027   1.94937   2.00262   2.00808
 Alpha virt. eigenvalues --    2.01417   2.07473   2.10998   2.15031   2.18251
 Alpha virt. eigenvalues --    2.18275   2.20780   2.25967   2.26963   2.27509
 Alpha virt. eigenvalues --    2.29402   2.32388   2.39150   2.42066   2.45580
 Alpha virt. eigenvalues --    2.56013   2.57112   2.64506   2.66718   2.68200
 Alpha virt. eigenvalues --    2.71029   2.74618   2.82089   2.85740   2.86932
 Alpha virt. eigenvalues --    2.96940   2.98967   3.13073   3.25576   3.46477
 Alpha virt. eigenvalues --    4.15625   4.27598   4.30430   4.33914   4.37506
 Alpha virt. eigenvalues --    4.40858   4.49318   4.53263   4.80176
          Condensed to atoms (all electrons):
               1          2          3          4          5          6
     1  C  106.851022 -96.467966 184.769711-223.761941  81.272167 -35.088963
     2  C  -96.467966 107.717711-220.222804 263.453426 -98.090647  36.492253
     3  C  184.769711-220.222804 667.584039-814.496016 308.629241 -72.926837
     4  C -223.761941 263.453426-814.4960161049.858700-421.561702  80.132963
     5  C   81.272167 -98.090647 308.629241-421.561702 210.629807 -32.637251
     6  C  -35.088963  36.492253 -72.926837  80.132963 -32.637251  33.051848
     7  N    0.825773  -1.852716   9.649846 -14.445934   6.568109  -0.098184
     8  C  -31.531864  36.211257-145.534368 223.557885-127.149619  -2.961589
     9  C   21.326545 -22.602483  90.075714-137.764729  76.458285   0.668436
    10  H   -0.096944   0.171979  -1.641781   2.109542  -0.864585   0.047714
    11  H    0.018223   0.015373  -0.169296  -0.711628   0.945674   0.611376
    12  H    0.005224  -0.004435   0.123782   0.147415  -0.236276  -0.053729
    13  H    0.217534   0.060850   0.363914  -0.338236   0.087358  -0.082352
    14  H   -0.083853   0.037485  -0.356264   0.587567   0.081370   0.042732
    15  H   -0.049199   0.159960  -0.210896   0.213900  -0.050057   0.227007
    16  H    0.411558  -0.088236   0.070635  -0.436449   0.322074   0.042673
               7          8          9         10         11         12
     1  C    0.825773 -31.531864  21.326545  -0.096944   0.018223   0.005224
     2  C   -1.852716  36.211257 -22.602483   0.171979   0.015373  -0.004435
     3  C    9.649846-145.534368  90.075714  -1.641781  -0.169296   0.123782
     4  C  -14.445934 223.557885-137.764729   2.109542  -0.711628   0.147415
     5  C    6.568109-127.149619  76.458285  -0.864585   0.945674  -0.236276
     6  C   -0.098184  -2.961589   0.668436   0.047714   0.611376  -0.053729
     7  N    7.971905  -1.978779   0.465927   0.132171   0.012191  -0.060083
     8  C   -1.978779 154.401163-102.158910   0.850108  -0.810576   0.135275
     9  C    0.465927-102.158910  82.436250  -0.496827   0.388538   0.257405
    10  H    0.132171   0.850108  -0.496827   0.359792  -0.000068  -0.002577
    11  H    0.012191  -0.810576   0.388538  -0.000068   0.402849  -0.001166
    12  H   -0.060083   0.135275   0.257405  -0.002577  -0.001166   0.426046
    13  H    0.000775  -0.006624   0.004498  -0.000007  -0.000000  -0.000000
    14  H   -0.013049  -0.033489   0.028827   0.002396   0.000001   0.000001
    15  H    0.000083   0.023728  -0.009114   0.000000  -0.000002  -0.000000
    16  H    0.001005  -0.079448   0.051220   0.000003   0.001473  -0.000001
              13         14         15         16
     1  C    0.217534  -0.083853  -0.049199   0.411558
     2  C    0.060850   0.037485   0.159960  -0.088236
     3  C    0.363914  -0.356264  -0.210896   0.070635
     4  C   -0.338236   0.587567   0.213900  -0.436449
     5  C    0.087358   0.081370  -0.050057   0.322074
     6  C   -0.082352   0.042732   0.227007   0.042673
     7  N    0.000775  -0.013049   0.000083   0.001005
     8  C   -0.006624  -0.033489   0.023728  -0.079448
     9  C    0.004498   0.028827  -0.009114   0.051220
    10  H   -0.000007   0.002396   0.000000   0.000003
    11  H   -0.000000   0.000001  -0.000002   0.001473
    12  H   -0.000000   0.000001  -0.000000  -0.000001
    13  H    0.465932  -0.003613  -0.003973  -0.000112
    14  H   -0.003613   0.477516  -0.000119   0.000013
    15  H   -0.003973  -0.000119   0.456378  -0.003623
    16  H   -0.000112   0.000013  -0.003623   0.432683
 Mulliken charges:
               1
     1  C   -2.617028
     2  C    1.008993
     3  C    0.291379
     4  C   -0.544762
     5  C    1.596053
     6  C   -1.468097
     7  N   -0.179041
     8  C    3.065851
     9  C   -3.129581
    10  H    0.429082
    11  H    0.297038
    12  H    0.263119
    13  H    0.234057
    14  H    0.232479
    15  H    0.245925
    16  H    0.274534
 Sum of Mulliken charges =  -0.00000
 Mulliken charges with hydrogens summed into heavy atoms:
               1
     1  C   -2.371103
     2  C    1.243050
     3  C    0.523857
     4  C   -0.544762
     5  C    1.596053
     6  C   -1.193563
     7  N    0.250041
     8  C    3.362888
     9  C   -2.866462
 Electronic spatial extent (au):  <R**2>=           1047.3912
 Charge=             -0.0000 electrons
 Dipole moment (field-independent basis, Debye):
    X=              0.0982    Y=            -10.1607    Z=              0.0018  Tot=             10.1611
 Quadrupole moment (field-independent basis, Debye-Ang):
   XX=            -59.6577   YY=            -84.1405   ZZ=            -61.5912
   XY=             -8.3323   XZ=              0.0038   YZ=              0.0041
 Traceless Quadrupole moment (field-independent basis, Debye-Ang):
   XX=              8.8054   YY=            -15.6774   ZZ=              6.8719
   XY=             -8.3323   XZ=              0.0038   YZ=              0.0041
 Octapole moment (field-independent basis, Debye-Ang**2):
  XXX=             -8.6852  YYY=           -166.4882  ZZZ=              0.0038  XYY=            -20.4631
  XXY=            -67.9611  XXZ=              0.0123  XZZ=             -1.3757  YZZ=            -17.3995
  YYZ=              0.0139  XYZ=              0.0059
 Hexadecapole moment (field-independent basis, Debye-Ang**3):
 XXXX=          -1255.3681 YYYY=          -1233.2372 ZZZZ=           -100.6618 XXXY=           -111.3835
 XXXZ=              0.0306 YYYX=           -114.9035 YYYZ=              0.0661 ZZZX=              0.0109
 ZZZY=              0.0271 XXYY=           -415.0837 XXZZ=           -225.9913 YYZZ=           -172.2308
 XXYZ=              0.0150 YYXZ=              0.0255 ZZXY=            -11.2612
 N-N= 4.013368757894D+02 E-N=-1.640839097644D+03  KE= 3.597818866767D+02


 Luck is a matter of preparation meeting opportunity.
                                    -- Oprah Winfrey
 Error termination request processed by link 9999.
 Error termination via Lnk1e in /cm/shared/apps/spack/cpu/opt/spack/linux-centos8-zen/gcc-8.3.1/gaussian-16.C.01-po5bqktfeugvmjyga3v7eigbecnokxng/g16/l9999.exe at Wed Jun 16 17:09:15 2021.
 Job cpu time:       1 days  3 hours  0 minutes  0.3 seconds.
 Elapsed time:       0 days  6 hours 53 minutes 40.7 seconds.
 File lengths (MBytes):  RWF=    239 Int=      0 D2E=      0 Chk=     11 Scr=      1
