 Entering Gaussian System, Link 0=/cm/shared/apps/spack/cpu/opt/spack/linux-centos8-zen/gcc-8.3.1/gaussian-16.C.01-po5bqktfeugvmjyga3v7eigbecnokxng/g16/g16
 Initial command:
 /cm/shared/apps/spack/cpu/opt/spack/linux-centos8-zen/gcc-8.3.1/gaussian-16.C.01-po5bqktfeugvmjyga3v7eigbecnokxng/g16/l1.exe "/scratch/scaparas/job_3445870/Gau-17059.inp" -scrdir="/scratch/scaparas/job_3445870/"
 Entering Link 1 = /cm/shared/apps/spack/cpu/opt/spack/linux-centos8-zen/gcc-8.3.1/gaussian-16.C.01-po5bqktfeugvmjyga3v7eigbecnokxng/g16/l1.exe PID=     17060.
  
 Copyright (c) 1988-2019, Gaussian, Inc.  All Rights Reserved.
  
 This is part of the Gaussian(R) 16 program.  It is based on
 the Gaussian(R) 09 system (copyright 2009, Gaussian, Inc.),
 the Gaussian(R) 03 system (copyright 2003, Gaussian, Inc.),
 the Gaussian(R) 98 system (copyright 1998, Gaussian, Inc.),
 the Gaussian(R) 94 system (copyright 1995, Gaussian, Inc.),
 the Gaussian 92(TM) system (copyright 1992, Gaussian, Inc.),
 the Gaussian 90(TM) system (copyright 1990, Gaussian, Inc.),
 the Gaussian 88(TM) system (copyright 1988, Gaussian, Inc.),
 the Gaussian 86(TM) system (copyright 1986, Carnegie Mellon
 University), and the Gaussian 82(TM) system (copyright 1983,
 Carnegie Mellon University). Gaussian is a federally registered
 trademark of Gaussian, Inc.
  
 This software contains proprietary and confidential information,
 including trade secrets, belonging to Gaussian, Inc.
  
 This software is provided under written license and may be
 used, copied, transmitted, or stored only in accord with that
 written license.
  
 The following legend is applicable only to US Government
 contracts under FAR:
  
                    RESTRICTED RIGHTS LEGEND
  
 Use, reproduction and disclosure by the US Government is
 subject to restrictions as set forth in subparagraphs (a)
 and (c) of the Commercial Computer Software - Restricted
 Rights clause in FAR 52.227-19.
  
 Gaussian, Inc.
 340 Quinnipiac St., Bldg. 40, Wallingford CT 06492
  
  
 ---------------------------------------------------------------
 Warning -- This program may not be used in any manner that
 competes with the business of Gaussian, Inc. or will provide
 assistance to any competitor of Gaussian, Inc.  The licensee
 of this program is prohibited from giving any competitor of
 Gaussian, Inc. access to this program.  By using this program,
 the user acknowledges that Gaussian, Inc. is engaged in the
 business of creating and licensing software in the field of
 computational chemistry and represents and warrants to the
 licensee that it is not a competitor of Gaussian, Inc. and that
 it will not use this program in any manner prohibited above.
 ---------------------------------------------------------------
  

 Cite this work as:
 Gaussian 16, Revision C.01,
 M. J. Frisch, G. W. Trucks, H. B. Schlegel, G. E. Scuseria, 
 M. A. Robb, J. R. Cheeseman, G. Scalmani, V. Barone, 
 G. A. Petersson, H. Nakatsuji, X. Li, M. Caricato, A. V. Marenich, 
 J. Bloino, B. G. Janesko, R. Gomperts, B. Mennucci, H. P. Hratchian, 
 J. V. Ortiz, A. F. Izmaylov, J. L. Sonnenberg, D. Williams-Young, 
 F. Ding, F. Lipparini, F. Egidi, J. Goings, B. Peng, A. Petrone, 
 T. Henderson, D. Ranasinghe, V. G. Zakrzewski, J. Gao, N. Rega, 
 G. Zheng, W. Liang, M. Hada, M. Ehara, K. Toyota, R. Fukuda, 
 J. Hasegawa, M. Ishida, T. Nakajima, Y. Honda, O. Kitao, H. Nakai, 
 T. Vreven, K. Throssell, J. A. Montgomery, Jr., J. E. Peralta, 
 F. Ogliaro, M. J. Bearpark, J. J. Heyd, E. N. Brothers, K. N. Kudin, 
 V. N. Staroverov, T. A. Keith, R. Kobayashi, J. Normand, 
 K. Raghavachari, A. P. Rendell, J. C. Burant, S. S. Iyengar, 
 J. Tomasi, M. Cossi, J. M. Millam, M. Klene, C. Adamo, R. Cammi, 
 J. W. Ochterski, R. L. Martin, K. Morokuma, O. Farkas, 
 J. B. Foresman, and D. J. Fox, Gaussian, Inc., Wallingford CT, 2019.
 
 ******************************************
 Gaussian 16:  AS64L-G16RevC.01  3-Jul-2019
                16-Jun-2021 
 ******************************************
 %nprocshared=4
 Will use up to    4 processors via shared memory.
 %chk=FuncsN12SX-V-3rd.chk
 %Mem=3GB
 -----------------------------------------------------------
 # td= (nstates=6, root=3) N12SX/6-31+G* Opt density=current
 -----------------------------------------------------------
 1/18=20,19=15,26=3,38=1/1,3;
 2/9=110,12=2,17=6,18=5,40=1/2;
 3/5=1,6=6,7=11,11=9,25=1,30=1,71=1,74=-69/1,2,3,8;
 4//1;
 5/5=2,38=5/2;
 8/6=1,10=2,107=3,108=6/1;
 9/8=3,15=2,41=6,42=1,70=2/14;
 10/5=4,28=3/2;
 6/7=2,8=2,9=2,10=2,22=-1/1;
 7/12=6,13=5,14=3/1,2,3,16;
 1/18=20,19=15,26=3/3(2);
 2/9=110/2;
 99//99;
 2/9=110/2;
 3/5=1,6=6,7=11,11=9,25=1,30=1,71=1,74=-69/1,2,3,8;
 4/5=5,16=3,69=1/1;
 5/5=2,38=5/2;
 8/6=1,10=2,107=3,108=6/1;
 9/8=3,15=2,41=6,42=1,49=4,70=2/14;
 10/5=4,28=3/2;
 7/12=6,13=5,14=3/1,2,3,16;
 1/18=20,19=15,26=3/3(-8);
 2/9=110/2;
 6/7=2,8=2,9=2,10=2,22=-1/1;
 99/9=10/99;
 ----------------
 FuncsN12SX-V-3rd
 ----------------
 Symbolic Z-matrix:
 Charge =  0 Multiplicity = 1
 C                    -2.15106   0.68921   0.00009 
 C                    -2.12793  -0.71582   0.00008 
 C                    -0.9323   -1.4131   -0.00001 
 C                     0.24691  -0.6702   -0.00004 
 C                     0.24819   0.7483    0. 
 C                    -0.97947   1.42353   0.00003 
 N                     1.56177  -1.07759  -0.00029 
 C                     1.62013   1.1629   -0.00016 
 C                     2.38201   0.03081   0.00025 
 H                     1.87632  -2.03001   0.00044 
 H                     1.99217   2.17301  -0.00035 
 H                     3.45255  -0.08243   0.00041 
 H                    -3.06159  -1.26202   0.00009 
 H                    -0.91725  -2.49534  -0.00007 
 H                    -3.1042    1.20079   0.00009 
 H                    -1.00935   2.50542  -0.00002 
 

 GradGradGradGradGradGradGradGradGradGradGradGradGradGradGradGradGradGrad
 Berny optimization.
 Initialization pass.
                           ----------------------------
                           !    Initial Parameters    !
                           ! (Angstroms and Degrees)  !
 --------------------------                            --------------------------
 ! Name  Definition              Value          Derivative Info.                !
 --------------------------------------------------------------------------------
 ! R1    R(1,2)                  1.4052         estimate D2E/DX2                !
 ! R2    R(1,6)                  1.3827         estimate D2E/DX2                !
 ! R3    R(1,15)                 1.0818         estimate D2E/DX2                !
 ! R4    R(2,3)                  1.3841         estimate D2E/DX2                !
 ! R5    R(2,13)                 1.0817         estimate D2E/DX2                !
 ! R6    R(3,4)                  1.3937         estimate D2E/DX2                !
 ! R7    R(3,14)                 1.0823         estimate D2E/DX2                !
 ! R8    R(4,5)                  1.4185         estimate D2E/DX2                !
 ! R9    R(4,7)                  1.3765         estimate D2E/DX2                !
 ! R10   R(5,6)                  1.4011         estimate D2E/DX2                !
 ! R11   R(5,8)                  1.4332         estimate D2E/DX2                !
 ! R12   R(6,16)                 1.0823         estimate D2E/DX2                !
 ! R13   R(7,9)                  1.3789         estimate D2E/DX2                !
 ! R14   R(7,10)                 1.003          estimate D2E/DX2                !
 ! R15   R(8,9)                  1.3646         estimate D2E/DX2                !
 ! R16   R(8,11)                 1.0764         estimate D2E/DX2                !
 ! R17   R(9,12)                 1.0765         estimate D2E/DX2                !
 ! A1    A(2,1,6)              121.1349         estimate D2E/DX2                !
 ! A2    A(2,1,15)             119.1671         estimate D2E/DX2                !
 ! A3    A(6,1,15)             119.698          estimate D2E/DX2                !
 ! A4    A(1,2,3)              121.1938         estimate D2E/DX2                !
 ! A5    A(1,2,13)             119.3846         estimate D2E/DX2                !
 ! A6    A(3,2,13)             119.4217         estimate D2E/DX2                !
 ! A7    A(2,3,4)              117.5387         estimate D2E/DX2                !
 ! A8    A(2,3,14)             121.0469         estimate D2E/DX2                !
 ! A9    A(4,3,14)             121.4144         estimate D2E/DX2                !
 ! A10   A(3,4,5)              122.2626         estimate D2E/DX2                !
 ! A11   A(3,4,7)              130.5743         estimate D2E/DX2                !
 ! A12   A(5,4,7)              107.163          estimate D2E/DX2                !
 ! A13   A(4,5,6)              118.7594         estimate D2E/DX2                !
 ! A14   A(4,5,8)              106.8666         estimate D2E/DX2                !
 ! A15   A(6,5,8)              134.374          estimate D2E/DX2                !
 ! A16   A(1,6,5)              119.1105         estimate D2E/DX2                !
 ! A17   A(1,6,16)             120.4966         estimate D2E/DX2                !
 ! A18   A(5,6,16)             120.3928         estimate D2E/DX2                !
 ! A19   A(4,7,9)              109.2874         estimate D2E/DX2                !
 ! A20   A(4,7,10)             125.4909         estimate D2E/DX2                !
 ! A21   A(9,7,10)             125.2217         estimate D2E/DX2                !
 ! A22   A(5,8,9)              107.125          estimate D2E/DX2                !
 ! A23   A(5,8,11)             127.0344         estimate D2E/DX2                !
 ! A24   A(9,8,11)             125.8405         estimate D2E/DX2                !
 ! A25   A(7,9,8)              109.5578         estimate D2E/DX2                !
 ! A26   A(7,9,12)             120.4645         estimate D2E/DX2                !
 ! A27   A(8,9,12)             129.9776         estimate D2E/DX2                !
 ! D1    D(6,1,2,3)             -0.0008         estimate D2E/DX2                !
 ! D2    D(6,1,2,13)          -179.9981         estimate D2E/DX2                !
 ! D3    D(15,1,2,3)           179.996          estimate D2E/DX2                !
 ! D4    D(15,1,2,13)           -0.0013         estimate D2E/DX2                !
 ! D5    D(2,1,6,5)             -0.0018         estimate D2E/DX2                !
 ! D6    D(2,1,6,16)           179.9965         estimate D2E/DX2                !
 ! D7    D(15,1,6,5)          -179.9986         estimate D2E/DX2                !
 ! D8    D(15,1,6,16)           -0.0003         estimate D2E/DX2                !
 ! D9    D(1,2,3,4)              0.002          estimate D2E/DX2                !
 ! D10   D(1,2,3,14)          -179.9968         estimate D2E/DX2                !
 ! D11   D(13,2,3,4)           179.9992         estimate D2E/DX2                !
 ! D12   D(13,2,3,14)            0.0005         estimate D2E/DX2                !
 ! D13   D(2,3,4,5)             -0.0005         estimate D2E/DX2                !
 ! D14   D(2,3,4,7)           -179.9911         estimate D2E/DX2                !
 ! D15   D(14,3,4,5)           179.9982         estimate D2E/DX2                !
 ! D16   D(14,3,4,7)             0.0076         estimate D2E/DX2                !
 ! D17   D(3,4,5,6)             -0.002          estimate D2E/DX2                !
 ! D18   D(3,4,5,8)           -179.9955         estimate D2E/DX2                !
 ! D19   D(7,4,5,6)            179.9905         estimate D2E/DX2                !
 ! D20   D(7,4,5,8)             -0.003          estimate D2E/DX2                !
 ! D21   D(3,4,7,9)           -179.98           estimate D2E/DX2                !
 ! D22   D(3,4,7,10)            -0.0649         estimate D2E/DX2                !
 ! D23   D(5,4,7,9)              0.0284         estimate D2E/DX2                !
 ! D24   D(5,4,7,10)           179.9434         estimate D2E/DX2                !
 ! D25   D(4,5,6,1)              0.0031         estimate D2E/DX2                !
 ! D26   D(4,5,6,16)          -179.9951         estimate D2E/DX2                !
 ! D27   D(8,5,6,1)            179.9944         estimate D2E/DX2                !
 ! D28   D(8,5,6,16)            -0.0038         estimate D2E/DX2                !
 ! D29   D(4,5,8,9)             -0.0234         estimate D2E/DX2                !
 ! D30   D(4,5,8,11)           179.9883         estimate D2E/DX2                !
 ! D31   D(6,5,8,9)            179.9846         estimate D2E/DX2                !
 ! D32   D(6,5,8,11)            -0.0037         estimate D2E/DX2                !
 ! D33   D(4,7,9,8)             -0.0444         estimate D2E/DX2                !
 ! D34   D(4,7,9,12)           179.9847         estimate D2E/DX2                !
 ! D35   D(10,7,9,8)          -179.9597         estimate D2E/DX2                !
 ! D36   D(10,7,9,12)            0.0693         estimate D2E/DX2                !
 ! D37   D(5,8,9,7)              0.0414         estimate D2E/DX2                !
 ! D38   D(5,8,9,12)          -179.9913         estimate D2E/DX2                !
 ! D39   D(11,8,9,7)          -179.9702         estimate D2E/DX2                !
 ! D40   D(11,8,9,12)           -0.0029         estimate D2E/DX2                !
 --------------------------------------------------------------------------------
 Trust Radius=3.00D-01 FncErr=1.00D-07 GrdErr=1.00D-06 EigMax=2.50D+02 EigMin=1.00D-04
 Number of steps in this run=     94 maximum allowed number of steps=    100.
 GradGradGradGradGradGradGradGradGradGradGradGradGradGradGradGradGradGrad

                          Input orientation:                          
 ---------------------------------------------------------------------
 Center     Atomic      Atomic             Coordinates (Angstroms)
 Number     Number       Type             X           Y           Z
 ---------------------------------------------------------------------
      1          6           0       -2.151063    0.689208    0.000088
      2          6           0       -2.127927   -0.715818    0.000075
      3          6           0       -0.932297   -1.413100   -0.000011
      4          6           0        0.246911   -0.670201   -0.000042
      5          6           0        0.248193    0.748299    0.000000
      6          6           0       -0.979474    1.423526    0.000032
      7          7           0        1.561774   -1.077592   -0.000285
      8          6           0        1.620133    1.162900   -0.000157
      9          6           0        2.382013    0.030806    0.000248
     10          1           0        1.876315   -2.030011    0.000438
     11          1           0        1.992173    2.173010   -0.000348
     12          1           0        3.452549   -0.082425    0.000408
     13          1           0       -3.061594   -1.262020    0.000088
     14          1           0       -0.917252   -2.495342   -0.000073
     15          1           0       -3.104203    1.200785    0.000090
     16          1           0       -1.009348    2.505421   -0.000015
 ---------------------------------------------------------------------
                    Distance matrix (angstroms):
                    1          2          3          4          5
     1  C    0.000000
     2  C    1.405216   0.000000
     3  C    2.430039   1.384100   0.000000
     4  C    2.756496   2.375276   1.393711   0.000000
     5  C    2.399984   2.790983   2.462763   1.418501   0.000000
     6  C    1.382694   2.428114   2.837018   2.426461   1.401106
     7  N    4.111781   3.707395   2.516536   1.376529   2.249305
     8  C    3.800829   4.192557   3.626386   2.290414   1.433218
     9  C    4.580641   4.571324   3.615178   2.247236   2.251218
    10  H    4.859416   4.214387   2.875566   2.122273   3.220216
    11  H    4.400917   5.031953   4.627387   3.336134   2.251948
    12  H    5.656491   5.616307   4.582311   3.259079   3.310287
    13  H    2.153220   1.081698   2.134650   3.361020   3.872476
    14  H    3.415208   2.152310   1.082347   2.164813   3.446661
    15  H    1.081752   2.150926   3.398466   3.838040   3.382795
    16  H    2.145261   3.409927   3.919278   3.415079   2.160761
                    6          7          8          9         10
     6  C    0.000000
     7  N    3.565604   0.000000
     8  C    2.612639   2.241252   0.000000
     9  C    3.638580   1.378890   1.364587   0.000000
    10  H    4.481345   1.003015   3.203172   2.121956   0.000000
    11  H    3.064704   3.278972   1.076446   2.177387   4.204618
    12  H    4.680888   2.136677   2.215532   1.076508   2.505515
    13  H    3.398144   4.627045   5.272457   5.595021   4.997275
    14  H    3.919362   2.855798   4.452085   4.155307   2.832058
    15  H    2.136372   5.192528   4.724488   5.609583   5.936632
    16  H    1.082307   4.410062   2.952378   4.198220   5.375611
                   11         12         13         14         15
    11  H    0.000000
    12  H    2.686947   0.000000
    13  H    6.110646   6.620083   0.000000
    14  H    5.500751   4.991726   2.473719   0.000000
    15  H    5.188282   6.681139   2.463174   4.294661   0.000000
    16  H    3.019872   5.158049   4.290143   5.001611   2.467892
                   16
    16  H    0.000000
 Stoichiometry    C8H7N
 Framework group  C1[X(C8H7N)]
 Deg. of freedom    42
 Full point group                 C1      NOp   1
 Largest Abelian subgroup         C1      NOp   1
 Largest concise Abelian subgroup C1      NOp   1
                         Standard orientation:                         
 ---------------------------------------------------------------------
 Center     Atomic      Atomic             Coordinates (Angstroms)
 Number     Number       Type             X           Y           Z
 ---------------------------------------------------------------------
      1          6           0       -2.151063    0.689208    0.000088
      2          6           0       -2.127927   -0.715818    0.000075
      3          6           0       -0.932297   -1.413100   -0.000011
      4          6           0        0.246911   -0.670201   -0.000042
      5          6           0        0.248193    0.748299    0.000000
      6          6           0       -0.979474    1.423526    0.000032
      7          7           0        1.561774   -1.077592   -0.000285
      8          6           0        1.620133    1.162900   -0.000157
      9          6           0        2.382013    0.030806    0.000248
     10          1           0        1.876315   -2.030011    0.000438
     11          1           0        1.992173    2.173010   -0.000348
     12          1           0        3.452549   -0.082425    0.000408
     13          1           0       -3.061594   -1.262020    0.000088
     14          1           0       -0.917252   -2.495342   -0.000073
     15          1           0       -3.104203    1.200785    0.000090
     16          1           0       -1.009348    2.505421   -0.000015
 ---------------------------------------------------------------------
 Rotational constants (GHZ):           3.9080822           1.6429452           1.1566805
 Standard basis: 6-31+G(d) (6D, 7F)
 There are   185 symmetry adapted cartesian basis functions of A   symmetry.
 There are   185 symmetry adapted basis functions of A   symmetry.
   185 basis functions,   316 primitive gaussians,   185 cartesian basis functions
    31 alpha electrons       31 beta electrons
       nuclear repulsion energy       401.3368668897 Hartrees.
 NAtoms=   16 NActive=   16 NUniq=   16 SFac= 1.00D+00 NAtFMM=   60 NAOKFM=F Big=F
 Integral buffers will be    131072 words long.
 Regular integral format.
 Two-electron integral symmetry is turned on.
 One-electron integrals computed using PRISM.
 NBasis=   185 RedAO= T EigKep=  1.26D-06  NBF=   185
 NBsUse=   185 1.00D-06 EigRej= -1.00D+00 NBFU=   185
 ExpMin= 4.38D-02 ExpMax= 4.17D+03 ExpMxC= 6.27D+02 IAcc=3 IRadAn=         5 AccDes= 0.00D+00
 Harris functional with IExCor= 5547 and IRadAn=       5 diagonalized for initial guess.
 HarFok:  IExCor= 5547 AccDes= 0.00D+00 IRadAn=         5 IDoV= 1 UseB2=F ITyADJ=14
 ICtDFT=  3500011 ScaDFX=  1.000000  1.000000  1.000000  1.000000
 FoFCou: FMM=F IPFlag=           0 FMFlag=      100000 FMFlg1=           0
         NFxFlg=           0 DoJE=T BraDBF=F KetDBF=T FulRan=T
         wScrn=  0.000000 ICntrl=       500 IOpCl=  0 I1Cent=   200000004 NGrid=           0
         NMat0=    1 NMatS0=      1 NMatT0=    0 NMatD0=    1 NMtDS0=    0 NMtDT0=    0
 Petite list used in FoFCou.
 Keep R1 ints in memory in canonical form, NReq=303303409.
 Requested convergence on RMS density matrix=1.00D-08 within 128 cycles.
 Requested convergence on MAX density matrix=1.00D-06.
 Requested convergence on             energy=1.00D-06.
 No special actions if energy rises.
 SCF Done:  E(RN12SX) =  -363.666126635     A.U. after   15 cycles
            NFock= 15  Conv=0.46D-08     -V/T= 2.0107
 DoSCS=F DFT=T ScalE2(SS,OS)=  1.000000  1.000000
 ExpMin= 4.38D-02 ExpMax= 4.17D+03 ExpMxC= 6.27D+02 IAcc=3 IRadAn=         5 AccDes= 0.00D+00
 HarFok:  IExCor=  205 AccDes= 0.00D+00 IRadAn=         5 IDoV=-2 UseB2=F ITyADJ=14
 ICtDFT= 12500011 ScaDFX=  1.000000  1.000000  1.000000  1.000000
 Range of M.O.s used for correlation:    10   185
 NBasis=   185 NAE=    31 NBE=    31 NFC=     9 NFV=     0
 NROrb=    176 NOA=    22 NOB=    22 NVA=   154 NVB=   154

 **** Warning!!: The largest alpha MO coefficient is  0.17800256D+03

 Orbital symmetries:
       Occupied  (A) (A) (A) (A) (A) (A) (A) (A) (A) (A) (A) (A)
                 (A) (A) (A) (A) (A) (A) (A) (A) (A) (A) (A) (A)
                 (A) (A) (A) (A) (A) (A) (A)
       Virtual   (A) (A) (A) (A) (A) (A) (A) (A) (A) (A) (A) (A)
                 (A) (A) (A) (A) (A) (A) (A) (A) (A) (A) (A) (A)
                 (A) (A) (A) (A) (A) (A) (A) (A) (A) (A) (A) (A)
                 (A) (A) (A) (A) (A) (A) (A) (A) (A) (A) (A) (A)
                 (A) (A) (A) (A) (A) (A) (A) (A) (A) (A) (A) (A)
                 (A) (A) (A) (A) (A) (A) (A) (A) (A) (A) (A) (A)
                 (A) (A) (A) (A) (A) (A) (A) (A) (A) (A) (A) (A)
                 (A) (A) (A) (A) (A) (A) (A) (A) (A) (A) (A) (A)
                 (A) (A) (A) (A) (A) (A) (A) (A) (A) (A) (A) (A)
                 (A) (A) (A) (A) (A) (A) (A) (A) (A) (A) (A) (A)
                 (A) (A) (A) (A) (A) (A) (A) (A) (A) (A) (A) (A)
                 (A) (A) (A) (A) (A) (A) (A) (A) (A) (A) (A) (A)
                 (A) (A) (A) (A) (A) (A) (A) (A) (A) (A)
    24 initial guesses have been made.
 Convergence on wavefunction:    0.000001000000000
 Iteration     1 Dimension    24 NMult     0 NNew     24
 CISAX will form    24 AO SS matrices at one time.
 New state      1 was old state      2
 New state      2 was old state      3
 New state      3 was old state      1
 Iteration     2 Dimension    36 NMult    24 NNew     12
 New state      1 was old state      3
 New state      2 was old state      1
 New state      3 was old state      2
 Iteration     3 Dimension    48 NMult    36 NNew     12
 Iteration     4 Dimension    60 NMult    48 NNew     12
 Iteration     5 Dimension    72 NMult    60 NNew     12
 Iteration     6 Dimension    84 NMult    72 NNew     12
 Iteration     7 Dimension    96 NMult    84 NNew     12
 Iteration     8 Dimension   108 NMult    96 NNew     12
 Iteration     9 Dimension   120 NMult   108 NNew     12
 Iteration    10 Dimension   128 NMult   120 NNew      8
 Iteration    11 Dimension   132 NMult   128 NNew      4
 Iteration    12 Dimension   134 NMult   132 NNew      2
 ***********************************************************************
 Excited states from <AA,BB:AA,BB> singles matrix:
 ***********************************************************************
 
 Ground to excited state transition densities written to RWF  633
 Ground to excited state transition electric dipole moments (Au):
       state          X           Y           Z        Dip. S.      Osc.
         1        -0.5721      0.6212     -0.0006      0.7132      0.0844
         2         0.0024     -0.0030     -0.1119      0.0125      0.0015
         3        -0.5420     -0.1162     -0.0000      0.3072      0.0374
         4        -0.0002      0.0002     -0.1250      0.0156      0.0020
         5         0.0002     -0.0000      0.0052      0.0000      0.0000
         6         0.0003      0.0001      0.0784      0.0062      0.0008
 Ground to excited state transition velocity dipole moments (Au):
       state          X           Y           Z        Dip. S.      Osc.
         1         0.0929     -0.1186      0.0001      0.0227      0.0853
         2        -0.0004      0.0006      0.0109      0.0001      0.0004
         3         0.0936      0.0220      0.0000      0.0092      0.0337
         4         0.0001     -0.0000      0.0264      0.0007      0.0024
         5        -0.0000      0.0000      0.0004      0.0000      0.0000
         6        -0.0001     -0.0000     -0.0154      0.0002      0.0008
 Ground to excited state transition magnetic dipole moments (Au):
       state          X           Y           Z
         1         0.0008     -0.0002      0.1718
         2         0.1213     -0.0509     -0.0006
         3        -0.0002     -0.0002     -0.0340
         4         0.0247     -0.2090      0.0000
         5         0.2406     -0.1398      0.0001
         6         0.1122      0.2755      0.0003
 Ground to excited state transition velocity quadrupole moments (Au):
       state          XX          YY          ZZ          XY          XZ          YZ
         1         0.2022     -0.1167      0.0113      0.0418      0.0003      0.0003
         2        -0.0010      0.0005      0.0000     -0.0001      0.0492      0.0503
         3         0.0742     -0.1109      0.0244     -0.0011      0.0001     -0.0001
         4        -0.0000      0.0001     -0.0000     -0.0000      0.1443     -0.0276
         5        -0.0002     -0.0001      0.0000      0.0001      0.1636      0.2095
         6         0.0001     -0.0001      0.0001      0.0001     -0.2332      0.0260
 <0|del|b> * <b|rxdel|0> + <0|del|b> * <b|delr+rdel|0>
 Rotatory Strengths (R) in cgs (10**-40 erg-esu-cm/Gauss)
       state          XX          YY          ZZ    R(velocity)    E-M Angle
         1         0.1445      0.2049      0.0773      0.1422       89.76
         2        -0.1338     -0.1413     -0.0561     -0.1104       90.00
         3        -0.0117     -0.0452     -0.0173     -0.0247       90.00
         4         0.0242      0.0010      0.0098      0.0117       90.00
         5        -0.0040     -0.0353     -0.0021     -0.0138       90.00
         6        -0.0206     -0.0179     -0.0089     -0.0158       90.00
 1/2[<0|r|b>*<b|rxdel|0> + (<0|rxdel|b>*<b|r|0>)*]
 Rotatory Strengths (R) in cgs (10**-40 erg-esu-cm/Gauss)
       state          XX          YY          ZZ     R(length)
         1         0.3056      0.1001      0.0703      0.1587
         2        -0.2076     -0.1098     -0.0499     -0.1224
         3        -0.0607     -0.0146     -0.0007     -0.0253
         4         0.0043      0.0259      0.0011      0.0104
         5        -0.0396     -0.0042     -0.0004     -0.0147
         6        -0.0237     -0.0230     -0.0169     -0.0212
  1/2[<0|del|b>*<b|r|0> + (<0|r|b>*<b|del|0>)*] (Au)
       state          X           Y           Z        Dip. S.   Osc.(frdel)
         1        -0.0532     -0.0737     -0.0000      0.1269      0.0846
         2        -0.0000     -0.0000     -0.0012      0.0012      0.0008
         3        -0.0507     -0.0026     -0.0000      0.0533      0.0355
         4        -0.0000     -0.0000     -0.0033      0.0033      0.0022
         5        -0.0000     -0.0000      0.0000     -0.0000     -0.0000
         6        -0.0000     -0.0000     -0.0012      0.0012      0.0008

 Excitation energies and oscillator strengths:
 
 Excited State   1:      Singlet-A      4.8288 eV  256.76 nm  f=0.0844  <S**2>=0.000
      30 -> 32        -0.13176
      30 -> 36         0.15970
      31 -> 32         0.66329
 
 Excited State   2:      Singlet-A      4.8736 eV  254.40 nm  f=0.0015  <S**2>=0.000
      31 -> 33         0.70484
 
 Excited State   3:      Singlet-A      4.9714 eV  249.39 nm  f=0.0374  <S**2>=0.000
      30 -> 32         0.56622
      31 -> 32         0.10952
      31 -> 36        -0.39861
 This state for optimization and/or second-order correction.
 Total Energy, E(TD-HF/TD-DFT) =  -363.483430666    
 Copying the excited state density for this state as the 1-particle RhoCI density.
 
 Excited State   4:      Singlet-A      5.3489 eV  231.79 nm  f=0.0020  <S**2>=0.000
      30 -> 33         0.69650
 
 Excited State   5:      Singlet-A      5.4469 eV  227.62 nm  f=0.0000  <S**2>=0.000
      30 -> 33        -0.10066
      31 -> 34         0.69713
 
 Excited State   6:      Singlet-A      5.5640 eV  222.83 nm  f=0.0008  <S**2>=0.000
      31 -> 35         0.70274
 SavETr:  write IOETrn=   770 NScale= 10 NData=  16 NLR=1 NState=    6 LETran=     118.
          IDoAtm=1111111111111111
          Differentiating once with respect to electric field.
                with respect to dipole field.
          Differentiating once with respect to nuclear coordinates.
 Keep R1 ints in memory in canonical form, NReq=303315801.
          There are     1 degrees of freedom in the 1st order CPHF.  IDoFFX=0 NUNeed=     1.
 LinEq1:  Iter=  0 NonCon=     1 RMS=5.66D-03 Max=1.78D-01 NDo=     1
 AX will form     1 AO Fock derivatives at one time.
 LinEq1:  Iter=  1 NonCon=     1 RMS=2.57D-03 Max=7.27D-02 NDo=     1
 LinEq1:  Iter=  2 NonCon=     1 RMS=2.44D-03 Max=7.87D-02 NDo=     1
 LinEq1:  Iter=  3 NonCon=     1 RMS=8.68D-04 Max=2.15D-02 NDo=     1
 LinEq1:  Iter=  4 NonCon=     1 RMS=6.29D-04 Max=2.50D-02 NDo=     1
 LinEq1:  Iter=  5 NonCon=     1 RMS=2.89D-04 Max=7.32D-03 NDo=     1
 LinEq1:  Iter=  6 NonCon=     1 RMS=1.83D-04 Max=2.81D-03 NDo=     1
 LinEq1:  Iter=  7 NonCon=     1 RMS=8.10D-05 Max=1.32D-03 NDo=     1
 LinEq1:  Iter=  8 NonCon=     1 RMS=4.89D-05 Max=9.01D-04 NDo=     1
 LinEq1:  Iter=  9 NonCon=     1 RMS=2.07D-05 Max=5.75D-04 NDo=     1
 LinEq1:  Iter= 10 NonCon=     1 RMS=1.16D-05 Max=2.10D-04 NDo=     1
 LinEq1:  Iter= 11 NonCon=     1 RMS=4.78D-06 Max=7.57D-05 NDo=     1
 LinEq1:  Iter= 12 NonCon=     1 RMS=2.78D-06 Max=5.82D-05 NDo=     1
 LinEq1:  Iter= 13 NonCon=     1 RMS=9.46D-07 Max=2.69D-05 NDo=     1
 LinEq1:  Iter= 14 NonCon=     1 RMS=2.83D-07 Max=4.63D-06 NDo=     1
 LinEq1:  Iter= 15 NonCon=     1 RMS=1.73D-07 Max=3.52D-06 NDo=     1
 LinEq1:  Iter= 16 NonCon=     1 RMS=3.30D-08 Max=4.61D-07 NDo=     1
 LinEq1:  Iter= 17 NonCon=     1 RMS=1.91D-08 Max=3.27D-07 NDo=     1
 LinEq1:  Iter= 18 NonCon=     1 RMS=4.66D-09 Max=5.37D-08 NDo=     1
 LinEq1:  Iter= 19 NonCon=     1 RMS=7.56D-10 Max=6.39D-09 NDo=     1
 LinEq1:  Iter= 20 NonCon=     1 RMS=2.26D-10 Max=2.58D-09 NDo=     1
 LinEq1:  Iter= 21 NonCon=     0 RMS=6.75D-11 Max=6.56D-10 NDo=     1
 Linear equations converged to 1.000D-10 1.000D-09 after    21 iterations.
 End of Minotr F.D. properties file   721 does not exist.
 End of Minotr F.D. properties file   722 does not exist.
 End of Minotr F.D. properties file   788 does not exist.

 **********************************************************************

            Population analysis using the CI Density.

 **********************************************************************

 Orbital symmetries:
       Occupied  (A) (A) (A) (A) (A) (A) (A) (A) (A) (A) (A) (A)
                 (A) (A) (A) (A) (A) (A) (A) (A) (A) (A) (A) (A)
                 (A) (A) (A) (A) (A) (A) (A)
       Virtual   (A) (A) (A) (A) (A) (A) (A) (A) (A) (A) (A) (A)
                 (A) (A) (A) (A) (A) (A) (A) (A) (A) (A) (A) (A)
                 (A) (A) (A) (A) (A) (A) (A) (A) (A) (A) (A) (A)
                 (A) (A) (A) (A) (A) (A) (A) (A) (A) (A) (A) (A)
                 (A) (A) (A) (A) (A) (A) (A) (A) (A) (A) (A) (A)
                 (A) (A) (A) (A) (A) (A) (A) (A) (A) (A) (A) (A)
                 (A) (A) (A) (A) (A) (A) (A) (A) (A) (A) (A) (A)
                 (A) (A) (A) (A) (A) (A) (A) (A) (A) (A) (A) (A)
                 (A) (A) (A) (A) (A) (A) (A) (A) (A) (A) (A) (A)
                 (A) (A) (A) (A) (A) (A) (A) (A) (A) (A) (A) (A)
                 (A) (A) (A) (A) (A) (A) (A) (A) (A) (A) (A) (A)
                 (A) (A) (A) (A) (A) (A) (A) (A) (A) (A) (A) (A)
                 (A) (A) (A) (A) (A) (A) (A) (A) (A) (A)
 The electronic state is 1-A.
 Alpha  occ. eigenvalues --  -14.43710 -10.27351 -10.27179 -10.24108 -10.23749
 Alpha  occ. eigenvalues --  -10.23587 -10.23582 -10.23079 -10.22844  -0.98260
 Alpha  occ. eigenvalues --   -0.84183  -0.78408  -0.73606  -0.71775  -0.62474
 Alpha  occ. eigenvalues --   -0.59440  -0.58132  -0.53988  -0.48116  -0.46969
 Alpha  occ. eigenvalues --   -0.43585  -0.42754  -0.42060  -0.40937  -0.38949
 Alpha  occ. eigenvalues --   -0.35230  -0.33167  -0.33118  -0.27495  -0.21828
 Alpha  occ. eigenvalues --   -0.20151
 Alpha virt. eigenvalues --   -0.02348  -0.01191   0.00704   0.01222   0.01276
 Alpha virt. eigenvalues --    0.02673   0.02793   0.03949   0.05117   0.05374
 Alpha virt. eigenvalues --    0.05546   0.05859   0.07974   0.08253   0.09552
 Alpha virt. eigenvalues --    0.09741   0.10674   0.11937   0.12851   0.13323
 Alpha virt. eigenvalues --    0.14543   0.14855   0.15758   0.15932   0.16479
 Alpha virt. eigenvalues --    0.17307   0.18138   0.18205   0.18964   0.19173
 Alpha virt. eigenvalues --    0.19594   0.19707   0.21115   0.21901   0.22408
 Alpha virt. eigenvalues --    0.22828   0.23152   0.23867   0.25144   0.25375
 Alpha virt. eigenvalues --    0.26389   0.26429   0.27299   0.29236   0.29937
 Alpha virt. eigenvalues --    0.30746   0.31351   0.32981   0.34947   0.36414
 Alpha virt. eigenvalues --    0.37603   0.39653   0.43364   0.44833   0.51378
 Alpha virt. eigenvalues --    0.58024   0.62595   0.67512   0.67524   0.69927
 Alpha virt. eigenvalues --    0.71570   0.72110   0.73133   0.73700   0.74077
 Alpha virt. eigenvalues --    0.75355   0.75536   0.77822   0.79239   0.79893
 Alpha virt. eigenvalues --    0.81472   0.85401   0.89161   0.89776   0.90989
 Alpha virt. eigenvalues --    0.93357   0.93963   0.95101   0.95446   0.98193
 Alpha virt. eigenvalues --    1.00013   1.03121   1.05013   1.06150   1.10055
 Alpha virt. eigenvalues --    1.11904   1.12132   1.17552   1.18508   1.21149
 Alpha virt. eigenvalues --    1.22828   1.23940   1.25751   1.32079   1.32722
 Alpha virt. eigenvalues --    1.34571   1.37438   1.42046   1.42196   1.45338
 Alpha virt. eigenvalues --    1.46663   1.47074   1.50232   1.50885   1.53975
 Alpha virt. eigenvalues --    1.59274   1.65637   1.79465   1.85345   1.89401
 Alpha virt. eigenvalues --    1.90064   1.93027   1.94937   2.00262   2.00808
 Alpha virt. eigenvalues --    2.01417   2.07473   2.10998   2.15031   2.18251
 Alpha virt. eigenvalues --    2.18275   2.20780   2.25967   2.26963   2.27509
 Alpha virt. eigenvalues --    2.29402   2.32388   2.39150   2.42066   2.45580
 Alpha virt. eigenvalues --    2.56013   2.57112   2.64506   2.66718   2.68200
 Alpha virt. eigenvalues --    2.71029   2.74618   2.82089   2.85740   2.86932
 Alpha virt. eigenvalues --    2.96940   2.98967   3.13074   3.25576   3.46477
 Alpha virt. eigenvalues --    4.15625   4.27598   4.30430   4.33914   4.37506
 Alpha virt. eigenvalues --    4.40858   4.49318   4.53263   4.80176
          Condensed to atoms (all electrons):
               1          2          3          4          5          6
     1  C    6.051707   0.234725   0.234416  -0.701606   0.068372  -0.337153
     2  C    0.234725   6.180611  -0.165607   0.391465  -0.948604   0.824262
     3  C    0.234416  -0.165607  14.804974  -3.010638  -4.105035  -3.394819
     4  C   -0.701606   0.391465  -3.010638  14.843013  -4.185187  -0.573666
     5  C    0.068372  -0.948604  -4.105035  -4.185187  16.295101  -0.688595
     6  C   -0.337153   0.824262  -3.394819  -0.573666  -0.688595  13.670002
     7  N   -0.038212   0.008604  -0.585558  -0.551015   1.044322   0.210100
     8  C    0.194916  -0.340925   3.724176   1.276603  -5.364565  -4.054616
     9  C   -0.093076   0.038007  -1.383267  -0.427534   2.009231   1.049208
    10  H   -0.002147  -0.011547  -0.150939  -0.073747   0.186970   0.027732
    11  H    0.001841   0.001123   0.002072   0.035025  -0.004435  -0.004029
    12  H    0.001188   0.000452   0.039787   0.112747  -0.113727  -0.028253
    13  H    0.018334   0.254634   0.004124   0.015003   0.006280   0.003176
    14  H    0.007700   0.054756   0.165867   0.076816   0.007279  -0.017526
    15  H    0.272218   0.008257   0.025735  -0.024613   0.033439  -0.019572
    16  H    0.030338   0.010376  -0.031465   0.014934   0.100541   0.197066
               7          8          9         10         11         12
     1  C   -0.038212   0.194916  -0.093076  -0.002147   0.001841   0.001188
     2  C    0.008604  -0.340925   0.038007  -0.011547   0.001123   0.000452
     3  C   -0.585558   3.724176  -1.383267  -0.150939   0.002072   0.039787
     4  C   -0.551015   1.276603  -0.427534  -0.073747   0.035025   0.112747
     5  C    1.044322  -5.364565   2.009231   0.186970  -0.004435  -0.113727
     6  C    0.210100  -4.054616   1.049208   0.027732  -0.004029  -0.028253
     7  N    7.361236  -0.805533   0.573889   0.274520   0.006596  -0.060596
     8  C   -0.805533  13.319122  -2.406095   0.008144   0.279478   0.049704
     9  C    0.573889  -2.406095   6.672049  -0.030296  -0.021480   0.303953
    10  H    0.274520   0.008144  -0.030296   0.348985  -0.000097  -0.002577
    11  H    0.006596   0.279478  -0.021480  -0.000097   0.488591  -0.000898
    12  H   -0.060596   0.049704   0.303953  -0.002577  -0.000898   0.480964
    13  H   -0.000504  -0.000295   0.001322  -0.000002   0.000000  -0.000000
    14  H   -0.010039  -0.005083   0.007165   0.002097   0.000002   0.000002
    15  H    0.000324   0.007044  -0.000206  -0.000000  -0.000002  -0.000000
    16  H   -0.000777  -0.038074   0.005038   0.000004   0.001456  -0.000002
              13         14         15         16
     1  C    0.018334   0.007700   0.272218   0.030338
     2  C    0.254634   0.054756   0.008257   0.010376
     3  C    0.004124   0.165867   0.025735  -0.031465
     4  C    0.015003   0.076816  -0.024613   0.014934
     5  C    0.006280   0.007279   0.033439   0.100541
     6  C    0.003176  -0.017526  -0.019572   0.197066
     7  N   -0.000504  -0.010039   0.000324  -0.000777
     8  C   -0.000295  -0.005083   0.007044  -0.038074
     9  C    0.001322   0.007165  -0.000206   0.005038
    10  H   -0.000002   0.002097  -0.000000   0.000004
    11  H    0.000000   0.000002  -0.000002   0.001456
    12  H   -0.000000   0.000002  -0.000000  -0.000002
    13  H    0.507595  -0.004301  -0.004306  -0.000150
    14  H   -0.004301   0.519159  -0.000151   0.000018
    15  H   -0.004306  -0.000151   0.506481  -0.004178
    16  H   -0.000150   0.000018  -0.004178   0.515105
 Mulliken charges:
               1
     1  C    0.056440
     2  C   -0.540589
     3  C   -0.173825
     4  C   -1.217600
     5  C    1.658615
     6  C   -0.863316
     7  N   -0.427357
     8  C    0.155998
     9  C   -0.297909
    10  H    0.422900
    11  H    0.214760
    12  H    0.217255
    13  H    0.199090
    14  H    0.196239
    15  H    0.199529
    16  H    0.199770
 Sum of Mulliken charges =  -0.00000
 Mulliken charges with hydrogens summed into heavy atoms:
               1
     1  C    0.255969
     2  C   -0.341499
     3  C    0.022415
     4  C   -1.217600
     5  C    1.658615
     6  C   -0.663546
     7  N   -0.004457
     8  C    0.370757
     9  C   -0.080653
 Electronic spatial extent (au):  <R**2>=           1006.4519
 Charge=             -0.0000 electrons
 Dipole moment (field-independent basis, Debye):
    X=              2.1340    Y=             -1.3893    Z=              0.0005  Tot=              2.5464
 Quadrupole moment (field-independent basis, Debye-Ang):
   XX=            -45.3470   YY=            -45.6504   ZZ=            -59.3272
   XY=             -2.9560   XZ=              0.0014   YZ=             -0.0027
 Traceless Quadrupole moment (field-independent basis, Debye-Ang):
   XX=              4.7612   YY=              4.4578   ZZ=             -9.2190
   XY=             -2.9560   XZ=              0.0014   YZ=             -0.0027
 Octapole moment (field-independent basis, Debye-Ang**2):
  XXX=             16.9595  YYY=             -9.3207  ZZZ=             -0.0065  XYY=             11.0968
  XXY=             -6.9435  XXZ=              0.0034  XZZ=              2.9282  YZZ=             -1.3001
  YYZ=              0.0003  XYZ=             -0.0044
 Hexadecapole moment (field-independent basis, Debye-Ang**3):
 XXXX=           -827.3669 YYYY=           -380.0329 ZZZZ=            -80.9408 XXXY=            -19.8620
 XXXZ=              0.0081 YYYX=            -18.5704 YYYZ=             -0.0091 ZZZX=             -0.0051
 ZZZY=              0.0031 XXYY=           -196.0581 XXZZ=           -196.4905 YYZZ=            -99.4897
 XXYZ=             -0.0155 YYXZ=              0.0051 ZZXY=             -3.3136
 N-N= 4.013368668897D+02 E-N=-1.644902341121D+03  KE= 3.600223067829D+02
 Calling FoFJK, ICntrl=  10005127 FMM=F ISym2X=0 I1Cent= 0 IOpClX= 0 NMat=1 NMatS=1 NMatT=0.
 ***** Axes restored to original set *****
 -------------------------------------------------------------------
 Center     Atomic                   Forces (Hartrees/Bohr)
 Number     Number              X              Y              Z
 -------------------------------------------------------------------
      1        6          -0.022714292    0.002213894    0.000003371
      2        6          -0.017405964   -0.009222186   -0.000005132
      3        6           0.004972715   -0.026877686    0.000004544
      4        6           0.015898019   -0.015844883   -0.000000934
      5        6           0.017092643    0.024603641   -0.000034056
      6        6           0.016749262    0.029040038   -0.000004908
      7        7          -0.011002987   -0.004011770    0.000036231
      8        6          -0.023261892    0.009009498    0.000035866
      9        6           0.018886629   -0.009178040   -0.000044215
     10        1          -0.000210572    0.000088515   -0.000000187
     11        1          -0.000273931    0.000423162    0.000008949
     12        1           0.000209457    0.000022898   -0.000002457
     13        1           0.000280403    0.000187330   -0.000000236
     14        1           0.000109418    0.000615106   -0.000000709
     15        1           0.000190055   -0.000274182    0.000001541
     16        1           0.000481039   -0.000795334    0.000002332
 -------------------------------------------------------------------
 Cartesian Forces:  Max     0.029040038 RMS     0.010590272

 GradGradGradGradGradGradGradGradGradGradGradGradGradGradGradGradGradGrad
 Berny optimization.
 FormGI is forming the generalized inverse of G from B-inverse, IUseBI=4.
 Internal  Forces:  Max     0.030370785 RMS     0.006638231
 Search for a local minimum.
 Step number   1 out of a maximum of   94
 All quantities printed in internal units (Hartrees-Bohrs-Radians)
 Mixed Optimization -- RFO/linear search
 Second derivative matrix not updated -- first step.
 ITU=  0
     Eigenvalues ---    0.01853   0.01931   0.01986   0.02012   0.02070
     Eigenvalues ---    0.02113   0.02148   0.02153   0.02172   0.02209
     Eigenvalues ---    0.02233   0.02248   0.02338   0.16000   0.16000
     Eigenvalues ---    0.16000   0.16000   0.16000   0.16000   0.16000
     Eigenvalues ---    0.22000   0.22188   0.22662   0.24011   0.24651
     Eigenvalues ---    0.35712   0.35717   0.35783   0.35790   0.36420
     Eigenvalues ---    0.36427   0.37009   0.38432   0.42633   0.43465
     Eigenvalues ---    0.45769   0.46692   0.47162   0.47468   0.47567
     Eigenvalues ---    0.48125   0.50955
 RFO step:  Lambda=-8.13552608D-03 EMin= 1.85287394D-02
 Linear search not attempted -- first point.
 Iteration  1 RMS(Cart)=  0.01913254 RMS(Int)=  0.00009500
 Iteration  2 RMS(Cart)=  0.00015164 RMS(Int)=  0.00001528
 Iteration  3 RMS(Cart)=  0.00000001 RMS(Int)=  0.00001528
 Variable       Old X    -DE/DX   Delta X   Delta X   Delta X     New X
                                 (Linear)    (Quad)   (Total)
    R1        2.65547   0.02198   0.00000   0.04886   0.04884   2.70432
    R2        2.61291   0.03037   0.00000   0.06185   0.06184   2.67476
    R3        2.04421  -0.00030   0.00000  -0.00081  -0.00081   2.04340
    R4        2.61557   0.02068   0.00000   0.04226   0.04224   2.65781
    R5        2.04411  -0.00034   0.00000  -0.00092  -0.00092   2.04319
    R6        2.63373   0.01665   0.00000   0.03464   0.03464   2.66837
    R7        2.04534  -0.00061   0.00000  -0.00168  -0.00168   2.04366
    R8        2.68058   0.02793   0.00000   0.06295   0.06294   2.74352
    R9        2.60126  -0.00493   0.00000  -0.01006  -0.01007   2.59119
   R10        2.64771   0.00924   0.00000   0.01977   0.01979   2.66749
   R11        2.70839  -0.01181   0.00000  -0.02854  -0.02855   2.67984
   R12        2.04526  -0.00081   0.00000  -0.00221  -0.00221   2.04305
   R13        2.60573   0.00795   0.00000   0.01618   0.01620   2.62193
   R14        1.89542  -0.00015   0.00000  -0.00031  -0.00031   1.89511
   R15        2.57870   0.01893   0.00000   0.03631   0.03634   2.61503
   R16        2.03419   0.00030   0.00000   0.00081   0.00081   2.03500
   R17        2.03430   0.00021   0.00000   0.00055   0.00055   2.03486
    A1        2.11420   0.00257   0.00000   0.01357   0.01354   2.12774
    A2        2.07986  -0.00144   0.00000  -0.00771  -0.00770   2.07216
    A3        2.08912  -0.00113   0.00000  -0.00586  -0.00584   2.08328
    A4        2.11523   0.00070   0.00000   0.00493   0.00488   2.12012
    A5        2.08365  -0.00037   0.00000  -0.00258  -0.00256   2.08109
    A6        2.08430  -0.00033   0.00000  -0.00235  -0.00232   2.08198
    A7        2.05144  -0.00437   0.00000  -0.01940  -0.01942   2.03201
    A8        2.11267   0.00231   0.00000   0.01042   0.01043   2.12310
    A9        2.11908   0.00206   0.00000   0.00898   0.00899   2.12807
   A10        2.13389   0.00386   0.00000   0.01429   0.01432   2.14821
   A11        2.27895  -0.00348   0.00000  -0.01162  -0.01162   2.26734
   A12        1.87035  -0.00038   0.00000  -0.00267  -0.00270   1.86764
   A13        2.07274   0.00254   0.00000   0.00922   0.00927   2.08201
   A14        1.86517  -0.00129   0.00000  -0.00574  -0.00580   1.85938
   A15        2.34527  -0.00125   0.00000  -0.00347  -0.00347   2.34180
   A16        2.07887  -0.00530   0.00000  -0.02260  -0.02259   2.05628
   A17        2.10306   0.00312   0.00000   0.01409   0.01408   2.11714
   A18        2.10125   0.00218   0.00000   0.00851   0.00851   2.10976
   A19        1.90743   0.00151   0.00000   0.00600   0.00602   1.91345
   A20        2.19023  -0.00092   0.00000  -0.00397  -0.00398   2.18625
   A21        2.18553  -0.00059   0.00000  -0.00203  -0.00204   2.18349
   A22        1.86968   0.00241   0.00000   0.01114   0.01116   1.88084
   A23        2.21717  -0.00162   0.00000  -0.00801  -0.00802   2.20915
   A24        2.19633  -0.00079   0.00000  -0.00313  -0.00313   2.19320
   A25        1.91215  -0.00224   0.00000  -0.00873  -0.00868   1.90347
   A26        2.10250   0.00117   0.00000   0.00464   0.00462   2.10712
   A27        2.26854   0.00107   0.00000   0.00409   0.00406   2.27260
    D1       -0.00001   0.00000   0.00000   0.00007   0.00007   0.00006
    D2       -3.14156  -0.00000   0.00000  -0.00000  -0.00000  -3.14156
    D3        3.14152   0.00000   0.00000   0.00010   0.00011  -3.14156
    D4       -0.00002   0.00000   0.00000   0.00003   0.00003   0.00001
    D5       -0.00003   0.00000   0.00000   0.00002   0.00002  -0.00001
    D6        3.14153   0.00000   0.00000   0.00008   0.00008  -3.14157
    D7       -3.14157  -0.00000   0.00000  -0.00001  -0.00001  -3.14158
    D8       -0.00001   0.00000   0.00000   0.00005   0.00005   0.00004
    D9        0.00003  -0.00000   0.00000  -0.00010  -0.00010  -0.00007
   D10       -3.14154  -0.00000   0.00000  -0.00003  -0.00003  -3.14157
   D11        3.14158  -0.00000   0.00000  -0.00003  -0.00003   3.14155
   D12        0.00001   0.00000   0.00000   0.00004   0.00004   0.00005
   D13       -0.00001   0.00000   0.00000   0.00004   0.00004   0.00003
   D14       -3.14144   0.00000   0.00000   0.00007   0.00007  -3.14137
   D15        3.14156  -0.00000   0.00000  -0.00003  -0.00003   3.14153
   D16        0.00013  -0.00000   0.00000   0.00000   0.00000   0.00013
   D17       -0.00004   0.00000   0.00000   0.00005   0.00005   0.00001
   D18       -3.14151  -0.00000   0.00000  -0.00016  -0.00016   3.14151
   D19        3.14143   0.00000   0.00000   0.00002   0.00002   3.14145
   D20       -0.00005  -0.00000   0.00000  -0.00018  -0.00018  -0.00023
   D21       -3.14124  -0.00001   0.00000  -0.00032  -0.00032  -3.14156
   D22       -0.00113   0.00000   0.00000   0.00007   0.00006  -0.00107
   D23        0.00049  -0.00001   0.00000  -0.00029  -0.00030   0.00020
   D24        3.14060   0.00000   0.00000   0.00009   0.00009   3.14069
   D25        0.00005  -0.00000   0.00000  -0.00008  -0.00008  -0.00003
   D26       -3.14151  -0.00000   0.00000  -0.00014  -0.00014   3.14154
   D27        3.14150   0.00001   0.00000   0.00019   0.00020  -3.14149
   D28       -0.00007   0.00000   0.00000   0.00014   0.00014   0.00007
   D29       -0.00041   0.00002   0.00000   0.00059   0.00059   0.00018
   D30        3.14139   0.00001   0.00000   0.00022   0.00022  -3.14157
   D31        3.14132   0.00001   0.00000   0.00034   0.00034  -3.14152
   D32       -0.00006  -0.00000   0.00000  -0.00003  -0.00003  -0.00010
   D33       -0.00077   0.00002   0.00000   0.00069   0.00069  -0.00009
   D34        3.14133   0.00001   0.00000   0.00020   0.00020   3.14152
   D35       -3.14089   0.00001   0.00000   0.00031   0.00031  -3.14058
   D36        0.00121  -0.00000   0.00000  -0.00018  -0.00018   0.00103
   D37        0.00072  -0.00002   0.00000  -0.00078  -0.00079  -0.00007
   D38       -3.14144  -0.00001   0.00000  -0.00024  -0.00024   3.14151
   D39       -3.14107  -0.00001   0.00000  -0.00042  -0.00042  -3.14149
   D40       -0.00005   0.00000   0.00000   0.00013   0.00013   0.00008
         Item               Value     Threshold  Converged?
 Maximum Force            0.030371     0.000450     NO 
 RMS     Force            0.006638     0.000300     NO 
 Maximum Displacement     0.077357     0.001800     NO 
 RMS     Displacement     0.019142     0.001200     NO 
 Predicted change in Energy=-4.143297D-03
 GradGradGradGradGradGradGradGradGradGradGradGradGradGradGradGradGradGrad

                          Input orientation:                          
 ---------------------------------------------------------------------
 Center     Atomic      Atomic             Coordinates (Angstroms)
 Number     Number       Type             X           Y           Z
 ---------------------------------------------------------------------
      1          6           0       -2.163032    0.698516   -0.000007
      2          6           0       -2.141784   -0.732389    0.000015
      3          6           0       -0.931477   -1.448815    0.000085
      4          6           0        0.253413   -0.680770    0.000049
      5          6           0        0.256755    0.771035   -0.000016
      6          6           0       -0.972761    1.464461   -0.000028
      7          7           0        1.563714   -1.084872   -0.000140
      8          6           0        1.617146    1.171490    0.000071
      9          6           0        2.394305    0.026514   -0.000058
     10          1           0        1.875658   -2.037970    0.000590
     11          1           0        1.988498    2.182311    0.000070
     12          1           0        3.465120   -0.086857   -0.000117
     13          1           0       -3.077303   -1.274443   -0.000000
     14          1           0       -0.912193   -2.530102    0.000077
     15          1           0       -3.118885    1.204088   -0.000028
     16          1           0       -1.000270    2.545247   -0.000026
 ---------------------------------------------------------------------
                    Distance matrix (angstroms):
                    1          2          3          4          5
     1  C    0.000000
     2  C    1.431063   0.000000
     3  C    2.475432   1.406453   0.000000
     4  C    2.782380   2.395753   1.412040   0.000000
     5  C    2.420873   2.830772   2.517862   1.451809   0.000000
     6  C    1.415421   2.488527   2.913569   2.470935   1.411577
     7  N    4.131478   3.722226   2.521594   1.371200   2.269919
     8  C    3.809653   4.213587   3.655336   2.300138   1.418108
     9  C    4.606616   4.599134   3.638327   2.254699   2.263500
    10  H    4.878460   4.224261   2.868294   2.115106   3.242122
    11  H    4.408725   5.055167   4.659543   3.347798   2.233973
    12  H    5.682685   5.643943   4.602717   3.266160   3.321083
    13  H    2.174502   1.081212   2.152899   3.383211   3.911511
    14  H    3.462452   2.177996   1.081458   2.186016   3.501991
    15  H    1.081322   2.169025   3.438408   3.863299   3.403304
    16  H    2.182300   3.470728   3.994655   3.461056   2.174383
                    6          7          8          9         10
     6  C    0.000000
     7  N    3.596221   0.000000
     8  C    2.606426   2.256994   0.000000
     9  C    3.661260   1.387464   1.383816   0.000000
    10  H    4.514479   1.002849   3.219854   2.128635   0.000000
    11  H    3.047026   3.294681   1.076876   2.193659   4.221789
    12  H    4.701210   2.147412   2.235720   1.076800   2.516592
    13  H    3.454083   4.644888   5.293434   5.624143   5.011467
    14  H    3.995022   2.866846   4.483228   4.179618   2.830955
    15  H    2.161861   5.212108   4.736144   5.637548   5.954528
    16  H    1.081136   4.444297   2.956024   4.226956   5.410808
                   11         12         13         14         15
    11  H    0.000000
    12  H    2.707311   0.000000
    13  H    6.132821   6.649336   0.000000
    14  H    5.533610   5.013015   2.502875   0.000000
    15  H    5.200220   6.709372   2.478879   4.337472   0.000000
    16  H    3.010724   5.183404   4.347885   5.076113   2.507437
                   16
    16  H    0.000000
 Stoichiometry    C8H7N
 Framework group  C1[X(C8H7N)]
 Deg. of freedom    42
 Full point group                 C1      NOp   1
 Largest Abelian subgroup         C1      NOp   1
 Largest concise Abelian subgroup C1      NOp   1
                         Standard orientation:                         
 ---------------------------------------------------------------------
 Center     Atomic      Atomic             Coordinates (Angstroms)
 Number     Number       Type             X           Y           Z
 ---------------------------------------------------------------------
      1          6           0       -2.163229    0.699548   -0.000011
      2          6           0       -2.142966   -0.731372    0.000011
      3          6           0       -0.933153   -1.448632    0.000081
      4          6           0        0.252266   -0.681402    0.000045
      5          6           0        0.256608    0.770400   -0.000020
      6          6           0       -0.972430    1.464673   -0.000032
      7          7           0        1.562289   -1.086406   -0.000144
      8          6           0        1.617275    1.169918    0.000067
      9          6           0        2.393645    0.024406   -0.000062
     10          1           0        1.873576   -2.039719    0.000586
     11          1           0        1.989323    2.180483    0.000066
     12          1           0        3.464382   -0.089701   -0.000121
     13          1           0       -3.078858   -1.272781   -0.000004
     14          1           0       -0.914613   -2.529931    0.000073
     15          1           0       -3.118733    1.205778   -0.000032
     16          1           0       -0.999194    2.545478   -0.000030
 ---------------------------------------------------------------------
 Rotational constants (GHZ):           3.7731359           1.6315470           1.1390213
 Standard basis: 6-31+G(d) (6D, 7F)
 There are   185 symmetry adapted cartesian basis functions of A   symmetry.
 There are   185 symmetry adapted basis functions of A   symmetry.
   185 basis functions,   316 primitive gaussians,   185 cartesian basis functions
    31 alpha electrons       31 beta electrons
       nuclear repulsion energy       397.8166866053 Hartrees.
 NAtoms=   16 NActive=   16 NUniq=   16 SFac= 1.00D+00 NAtFMM=   60 NAOKFM=F Big=F
 Integral buffers will be    131072 words long.
 Regular integral format.
 Two-electron integral symmetry is turned on.
 One-electron integrals computed using PRISM.
 NBasis=   185 RedAO= T EigKep=  1.43D-06  NBF=   185
 NBsUse=   185 1.00D-06 EigRej= -1.00D+00 NBFU=   185
 Initial guess from the checkpoint file:  "FuncsN12SX-V-3rd.chk"
 B after Tr=     0.000000   -0.000000    0.000000
         Rot=    1.000000    0.000008    0.000003    0.000394 Ang=   0.05 deg.
 ExpMin= 4.38D-02 ExpMax= 4.17D+03 ExpMxC= 6.27D+02 IAcc=3 IRadAn=         5 AccDes= 0.00D+00
 Harris functional with IExCor= 5547 and IRadAn=       5 diagonalized for initial guess.
 HarFok:  IExCor= 5547 AccDes= 0.00D+00 IRadAn=         5 IDoV= 1 UseB2=F ITyADJ=14
 ICtDFT=  3500011 ScaDFX=  1.000000  1.000000  1.000000  1.000000
 FoFCou: FMM=F IPFlag=           0 FMFlag=      100000 FMFlg1=           0
         NFxFlg=           0 DoJE=T BraDBF=F KetDBF=T FulRan=T
         wScrn=  0.000000 ICntrl=       500 IOpCl=  0 I1Cent=   200000004 NGrid=           0
         NMat0=    1 NMatS0=      1 NMatT0=    0 NMatD0=    1 NMtDS0=    0 NMtDT0=    0
 Petite list used in FoFCou.
 Keep R1 ints in memory in canonical form, NReq=303303409.
 Requested convergence on RMS density matrix=1.00D-08 within 128 cycles.
 Requested convergence on MAX density matrix=1.00D-06.
 Requested convergence on             energy=1.00D-06.
 No special actions if energy rises.
 SCF Done:  E(RN12SX) =  -363.662314677     A.U. after   13 cycles
            NFock= 13  Conv=0.77D-08     -V/T= 2.0117
 DoSCS=F DFT=T ScalE2(SS,OS)=  1.000000  1.000000
 ExpMin= 4.38D-02 ExpMax= 4.17D+03 ExpMxC= 6.27D+02 IAcc=3 IRadAn=         5 AccDes= 0.00D+00
 HarFok:  IExCor=  205 AccDes= 0.00D+00 IRadAn=         5 IDoV=-2 UseB2=F ITyADJ=14
 ICtDFT= 12500011 ScaDFX=  1.000000  1.000000  1.000000  1.000000
 Range of M.O.s used for correlation:    10   185
 NBasis=   185 NAE=    31 NBE=    31 NFC=     9 NFV=     0
 NROrb=    176 NOA=    22 NOB=    22 NVA=   154 NVB=   154

 **** Warning!!: The largest alpha MO coefficient is  0.18014233D+03

 Orbital symmetries:
       Occupied  (A) (A) (A) (A) (A) (A) (A) (A) (A) (A) (A) (A)
                 (A) (A) (A) (A) (A) (A) (A) (A) (A) (A) (A) (A)
                 (A) (A) (A) (A) (A) (A) (A)
       Virtual   (A) (A) (A) (A) (A) (A) (A) (A) (A) (A) (A) (A)
                 (A) (A) (A) (A) (A) (A) (A) (A) (A) (A) (A) (A)
                 (A) (A) (A) (A) (A) (A) (A) (A) (A) (A) (A) (A)
                 (A) (A) (A) (A) (A) (A) (A) (A) (A) (A) (A) (A)
                 (A) (A) (A) (A) (A) (A) (A) (A) (A) (A) (A) (A)
                 (A) (A) (A) (A) (A) (A) (A) (A) (A) (A) (A) (A)
                 (A) (A) (A) (A) (A) (A) (A) (A) (A) (A) (A) (A)
                 (A) (A) (A) (A) (A) (A) (A) (A) (A) (A) (A) (A)
                 (A) (A) (A) (A) (A) (A) (A) (A) (A) (A) (A) (A)
                 (A) (A) (A) (A) (A) (A) (A) (A) (A) (A) (A) (A)
                 (A) (A) (A) (A) (A) (A) (A) (A) (A) (A) (A) (A)
                 (A) (A) (A) (A) (A) (A) (A) (A) (A) (A) (A) (A)
                 (A) (A) (A) (A) (A) (A) (A) (A) (A) (A)
 Generating guess from densities on rwf.
 Convergence on wavefunction:    0.000001000000000
 Iteration     1 Dimension    12 NMult     0 NNew     12
 CISAX will form    12 AO SS matrices at one time.
 New state      2 was old state      3
 New state      3 was old state      2
 Iteration     2 Dimension    24 NMult    12 NNew     12
 Iteration     3 Dimension    36 NMult    24 NNew     12
 Iteration     4 Dimension    48 NMult    36 NNew     12
 Iteration     5 Dimension    60 NMult    48 NNew     12
 Iteration     6 Dimension    72 NMult    60 NNew     12
 Iteration     7 Dimension    84 NMult    72 NNew     12
 Iteration     8 Dimension    96 NMult    84 NNew     12
 Iteration     9 Dimension   108 NMult    96 NNew     12
 Iteration    10 Dimension   118 NMult   108 NNew     10
 Iteration    11 Dimension   122 NMult   118 NNew      4
 ***********************************************************************
 Excited states from <AA,BB:AA,BB> singles matrix:
 ***********************************************************************
 
 Ground to excited state transition densities written to RWF  633
 Ground to excited state transition electric dipole moments (Au):
       state          X           Y           Z        Dip. S.      Osc.
         1        -0.6268      0.6324     -0.0001      0.7928      0.0912
         2         0.0005     -0.0003     -0.1253      0.0157      0.0019
         3        -0.5565     -0.1773     -0.0000      0.3411      0.0397
         4        -0.0001     -0.0000     -0.1088      0.0118      0.0015
         5         0.0000      0.0000     -0.0086      0.0001      0.0000
         6         0.0000     -0.0000      0.0748      0.0056      0.0008
 Ground to excited state transition velocity dipole moments (Au):
       state          X           Y           Z        Dip. S.      Osc.
         1         0.0991     -0.1167      0.0000      0.0235      0.0906
         2        -0.0001      0.0001      0.0133      0.0002      0.0007
         3         0.0924      0.0323      0.0000      0.0096      0.0366
         4         0.0000      0.0000      0.0235      0.0006      0.0019
         5        -0.0000     -0.0000      0.0031      0.0000      0.0000
         6        -0.0000      0.0000     -0.0138      0.0002      0.0006
 Ground to excited state transition magnetic dipole moments (Au):
       state          X           Y           Z
         1         0.0001      0.0001      0.1655
         2         0.1167     -0.0668      0.0000
         3        -0.0001     -0.0001     -0.0599
         4         0.0149     -0.2023     -0.0001
         5         0.2225     -0.1901      0.0001
         6         0.1382      0.2564      0.0001
 Ground to excited state transition velocity quadrupole moments (Au):
       state          XX          YY          ZZ          XY          XZ          YZ
         1         0.2179     -0.1325      0.0128      0.0404      0.0000     -0.0000
         2        -0.0001      0.0001      0.0001      0.0000      0.0608      0.0373
         3         0.0557     -0.1016      0.0199     -0.0096      0.0000     -0.0000
         4         0.0001     -0.0000     -0.0000     -0.0001      0.1284     -0.0345
         5         0.0000     -0.0000     -0.0000     -0.0000      0.2071      0.2018
         6         0.0000      0.0000      0.0000      0.0001     -0.2109      0.0469
 <0|del|b> * <b|rxdel|0> + <0|del|b> * <b|delr+rdel|0>
 Rotatory Strengths (R) in cgs (10**-40 erg-esu-cm/Gauss)
       state          XX          YY          ZZ    R(velocity)    E-M Angle
         1        -0.0083      0.0165      0.0032      0.0038       90.00
         2        -0.0154     -0.0239     -0.0131     -0.0174       90.00
         3        -0.0062     -0.0127     -0.0115     -0.0101       90.00
         4        -0.0081     -0.0006      0.0010     -0.0025       90.00
         5         0.0014     -0.0020     -0.0002     -0.0003       90.00
         6        -0.0026     -0.0019     -0.0009     -0.0018       90.00
 1/2[<0|r|b>*<b|rxdel|0> + (<0|rxdel|b>*<b|r|0>)*]
 Rotatory Strengths (R) in cgs (10**-40 erg-esu-cm/Gauss)
       state          XX          YY          ZZ     R(length)
         1         0.0372     -0.0269      0.0099      0.0067
         2        -0.0410     -0.0160      0.0013     -0.0185
         3        -0.0226     -0.0074     -0.0013     -0.0104
         4         0.0010     -0.0003     -0.0045     -0.0013
         5        -0.0035      0.0011      0.0004     -0.0007
         6        -0.0044      0.0005     -0.0036     -0.0025
  1/2[<0|del|b>*<b|r|0> + (<0|r|b>*<b|del|0>)*] (Au)
       state          X           Y           Z        Dip. S.   Osc.(frdel)
         1        -0.0621     -0.0738     -0.0000      0.1360      0.0906
         2        -0.0000     -0.0000     -0.0017      0.0017      0.0011
         3        -0.0514     -0.0057     -0.0000      0.0572      0.0381
         4        -0.0000     -0.0000     -0.0026      0.0026      0.0017
         5        -0.0000     -0.0000     -0.0000      0.0000      0.0000
         6        -0.0000     -0.0000     -0.0010      0.0010      0.0007

 Excitation energies and oscillator strengths:
 
 Excited State   1:      Singlet-A      4.6943 eV  264.12 nm  f=0.0912  <S**2>=0.000
      30 -> 32        -0.12092
      30 -> 35         0.17026
      31 -> 32         0.66304
 
 Excited State   2:      Singlet-A      4.8378 eV  256.28 nm  f=0.0019  <S**2>=0.000
      31 -> 33         0.70504
 
 Excited State   3:      Singlet-A      4.7562 eV  260.68 nm  f=0.0397  <S**2>=0.000
      30 -> 32         0.57845
      31 -> 35        -0.38524
 This state for optimization and/or second-order correction.
 Total Energy, E(TD-HF/TD-DFT) =  -363.487527464    
 Copying the excited state density for this state as the 1-particle RhoCI density.
 
 Excited State   4:      Singlet-A      5.2386 eV  236.67 nm  f=0.0015  <S**2>=0.000
      30 -> 33         0.70178
 
 Excited State   5:      Singlet-A      5.4188 eV  228.80 nm  f=0.0000  <S**2>=0.000
      31 -> 34         0.70205
 
 Excited State   6:      Singlet-A      5.5265 eV  224.35 nm  f=0.0008  <S**2>=0.000
      31 -> 36         0.70260
 SavETr:  write IOETrn=   770 NScale= 10 NData=  16 NLR=1 NState=    6 LETran=     118.
          IDoAtm=1111111111111111
          Differentiating once with respect to electric field.
                with respect to dipole field.
          Differentiating once with respect to nuclear coordinates.
 Keep R1 ints in memory in canonical form, NReq=303315801.
          There are     1 degrees of freedom in the 1st order CPHF.  IDoFFX=0 NUNeed=     1.
 LinEq1:  Iter=  0 NonCon=     1 RMS=5.44D-03 Max=1.63D-01 NDo=     1
 AX will form     1 AO Fock derivatives at one time.
 LinEq1:  Iter=  1 NonCon=     1 RMS=2.34D-03 Max=6.83D-02 NDo=     1
 LinEq1:  Iter=  2 NonCon=     1 RMS=2.46D-03 Max=8.81D-02 NDo=     1
 LinEq1:  Iter=  3 NonCon=     1 RMS=8.29D-04 Max=1.91D-02 NDo=     1
 LinEq1:  Iter=  4 NonCon=     1 RMS=5.42D-04 Max=2.16D-02 NDo=     1
 LinEq1:  Iter=  5 NonCon=     1 RMS=2.90D-04 Max=6.26D-03 NDo=     1
 LinEq1:  Iter=  6 NonCon=     1 RMS=1.81D-04 Max=2.90D-03 NDo=     1
 LinEq1:  Iter=  7 NonCon=     1 RMS=8.25D-05 Max=1.75D-03 NDo=     1
 LinEq1:  Iter=  8 NonCon=     1 RMS=5.55D-05 Max=8.90D-04 NDo=     1
 LinEq1:  Iter=  9 NonCon=     1 RMS=2.60D-05 Max=5.13D-04 NDo=     1
 LinEq1:  Iter= 10 NonCon=     1 RMS=1.30D-05 Max=2.54D-04 NDo=     1
 LinEq1:  Iter= 11 NonCon=     1 RMS=3.87D-06 Max=1.08D-04 NDo=     1
 LinEq1:  Iter= 12 NonCon=     1 RMS=3.17D-06 Max=1.01D-04 NDo=     1
 LinEq1:  Iter= 13 NonCon=     1 RMS=1.05D-06 Max=1.76D-05 NDo=     1
 LinEq1:  Iter= 14 NonCon=     1 RMS=5.20D-07 Max=1.29D-05 NDo=     1
 LinEq1:  Iter= 15 NonCon=     1 RMS=2.26D-07 Max=3.72D-06 NDo=     1
 LinEq1:  Iter= 16 NonCon=     1 RMS=5.06D-08 Max=5.75D-07 NDo=     1
 LinEq1:  Iter= 17 NonCon=     1 RMS=2.85D-08 Max=3.88D-07 NDo=     1
 LinEq1:  Iter= 18 NonCon=     1 RMS=5.86D-09 Max=7.07D-08 NDo=     1
 LinEq1:  Iter= 19 NonCon=     1 RMS=9.19D-10 Max=1.04D-08 NDo=     1
 LinEq1:  Iter= 20 NonCon=     1 RMS=1.42D-10 Max=1.34D-09 NDo=     1
 LinEq1:  Iter= 21 NonCon=     0 RMS=2.78D-11 Max=2.91D-10 NDo=     1
 Linear equations converged to 1.000D-10 1.000D-09 after    21 iterations.
 End of Minotr F.D. properties file   721 does not exist.
 End of Minotr F.D. properties file   722 does not exist.
 End of Minotr F.D. properties file   788 does not exist.
 Calling FoFJK, ICntrl=  10005127 FMM=F ISym2X=0 I1Cent= 0 IOpClX= 0 NMat=1 NMatS=1 NMatT=0.
 ***** Axes restored to original set *****
 -------------------------------------------------------------------
 Center     Atomic                   Forces (Hartrees/Bohr)
 Number     Number              X              Y              Z
 -------------------------------------------------------------------
      1        6          -0.000079992   -0.003562046   -0.000001882
      2        6           0.000224438    0.001327349    0.000003951
      3        6           0.000091648   -0.000520886    0.000000367
      4        6           0.002270462   -0.005473525   -0.000012156
      5        6           0.001705686    0.003860032    0.000012484
      6        6           0.003192818    0.000750893    0.000000668
      7        7          -0.009466861    0.003242774    0.000007829
      8        6          -0.003351523   -0.003447606   -0.000015809
      9        6           0.006072930    0.003524381    0.000012697
     10        1          -0.000039725   -0.000188675   -0.000006489
     11        1           0.000475243    0.000024056   -0.000001124
     12        1          -0.000423649    0.000032394    0.000000621
     13        1          -0.000068341    0.000781412   -0.000000318
     14        1          -0.000028397    0.000656231   -0.000000508
     15        1          -0.000011708   -0.000230114    0.000000272
     16        1          -0.000563027   -0.000776671   -0.000000604
 -------------------------------------------------------------------
 Cartesian Forces:  Max     0.009466861 RMS     0.002298054

 GradGradGradGradGradGradGradGradGradGradGradGradGradGradGradGradGradGrad
 Berny optimization.
 Using GEDIIS/GDIIS optimizer.
 FormGI is forming the generalized inverse of G from B-inverse, IUseBI=4.
 Internal  Forces:  Max     0.005844820 RMS     0.001138164
 Search for a local minimum.
 Step number   2 out of a maximum of   94
 All quantities printed in internal units (Hartrees-Bohrs-Radians)
 Mixed Optimization -- RFO/linear search
 Update second derivatives using D2CorX and points    1    2
 DE= -4.10D-03 DEPred=-4.14D-03 R= 9.89D-01
 TightC=F SS=  1.41D+00  RLast= 1.36D-01 DXNew= 5.0454D-01 4.0879D-01
 Trust test= 9.89D-01 RLast= 1.36D-01 DXMaxT set to 4.09D-01
 ITU=  1  0
 Use linear search instead of GDIIS.
     Eigenvalues ---    0.01853   0.01932   0.01986   0.02011   0.02071
     Eigenvalues ---    0.02113   0.02148   0.02153   0.02171   0.02209
     Eigenvalues ---    0.02234   0.02248   0.02339   0.15984   0.16000
     Eigenvalues ---    0.16000   0.16000   0.16000   0.16000   0.16015
     Eigenvalues ---    0.20954   0.22010   0.22874   0.24039   0.24632
     Eigenvalues ---    0.35633   0.35714   0.35782   0.35787   0.36409
     Eigenvalues ---    0.36426   0.37035   0.37852   0.42816   0.43137
     Eigenvalues ---    0.44408   0.46557   0.47043   0.47164   0.47589
     Eigenvalues ---    0.48800   0.56035
 RFO step:  Lambda=-3.29119752D-04 EMin= 1.85277017D-02
 Quartic linear search produced a step of  0.02888.
 Iteration  1 RMS(Cart)=  0.00450070 RMS(Int)=  0.00001468
 Iteration  2 RMS(Cart)=  0.00001789 RMS(Int)=  0.00000620
 Iteration  3 RMS(Cart)=  0.00000000 RMS(Int)=  0.00000620
 Variable       Old X    -DE/DX   Delta X   Delta X   Delta X     New X
                                 (Linear)    (Quad)   (Total)
    R1        2.70432  -0.00255   0.00141  -0.00540  -0.00399   2.70033
    R2        2.67476   0.00131   0.00179   0.00345   0.00524   2.68000
    R3        2.04340  -0.00010  -0.00002  -0.00029  -0.00031   2.04309
    R4        2.65781  -0.00092   0.00122  -0.00151  -0.00029   2.65752
    R5        2.04319  -0.00033  -0.00003  -0.00097  -0.00099   2.04220
    R6        2.66837  -0.00058   0.00100  -0.00077   0.00023   2.66860
    R7        2.04366  -0.00066  -0.00005  -0.00191  -0.00196   2.04170
    R8        2.74352   0.00176   0.00182   0.00481   0.00662   2.75014
    R9        2.59119  -0.00584  -0.00029  -0.01248  -0.01278   2.57842
   R10        2.66749  -0.00226   0.00057  -0.00481  -0.00424   2.66326
   R11        2.67984  -0.00201  -0.00082  -0.00533  -0.00616   2.67367
   R12        2.04305  -0.00076  -0.00006  -0.00222  -0.00229   2.04077
   R13        2.62193   0.00354   0.00047   0.00770   0.00819   2.63011
   R14        1.89511   0.00017  -0.00001   0.00036   0.00035   1.89546
   R15        2.61503  -0.00157   0.00105  -0.00232  -0.00126   2.61377
   R16        2.03500   0.00019   0.00002   0.00054   0.00056   2.03556
   R17        2.03486  -0.00042   0.00002  -0.00119  -0.00118   2.03368
    A1        2.12774   0.00130   0.00039   0.00567   0.00606   2.13380
    A2        2.07216  -0.00086  -0.00022  -0.00422  -0.00444   2.06772
    A3        2.08328  -0.00044  -0.00017  -0.00145  -0.00162   2.08166
    A4        2.12012  -0.00016   0.00014  -0.00126  -0.00113   2.11899
    A5        2.08109  -0.00064  -0.00007  -0.00402  -0.00409   2.07700
    A6        2.08198   0.00081  -0.00007   0.00529   0.00522   2.08720
    A7        2.03201  -0.00074  -0.00056  -0.00381  -0.00438   2.02763
    A8        2.12310   0.00035   0.00030   0.00181   0.00212   2.12522
    A9        2.12807   0.00039   0.00026   0.00200   0.00227   2.13034
   A10        2.14821   0.00121   0.00041   0.00603   0.00645   2.15466
   A11        2.26734   0.00040  -0.00034   0.00190   0.00157   2.26891
   A12        1.86764  -0.00160  -0.00008  -0.00793  -0.00802   1.85962
   A13        2.08201  -0.00121   0.00027  -0.00433  -0.00405   2.07796
   A14        1.85938   0.00071  -0.00017   0.00227   0.00208   1.86146
   A15        2.34180   0.00050  -0.00010   0.00206   0.00197   2.34377
   A16        2.05628  -0.00040  -0.00065  -0.00229  -0.00294   2.05334
   A17        2.11714  -0.00040   0.00041  -0.00264  -0.00223   2.11491
   A18        2.10976   0.00079   0.00025   0.00493   0.00517   2.11493
   A19        1.91345   0.00276   0.00017   0.01252   0.01270   1.92615
   A20        2.18625  -0.00147  -0.00011  -0.00686  -0.00698   2.17927
   A21        2.18349  -0.00129  -0.00006  -0.00566  -0.00573   2.17776
   A22        1.88084   0.00092   0.00032   0.00536   0.00568   1.88652
   A23        2.20915  -0.00002  -0.00023   0.00014  -0.00009   2.20906
   A24        2.19320  -0.00091  -0.00009  -0.00550  -0.00559   2.18761
   A25        1.90347  -0.00279  -0.00025  -0.01222  -0.01245   1.89102
   A26        2.10712   0.00138   0.00013   0.00604   0.00616   2.11327
   A27        2.27260   0.00141   0.00012   0.00618   0.00629   2.27889
    D1        0.00006  -0.00000   0.00000  -0.00004  -0.00004   0.00002
    D2       -3.14156   0.00000  -0.00000   0.00000   0.00000  -3.14156
    D3       -3.14156  -0.00000   0.00000  -0.00004  -0.00003  -3.14159
    D4        0.00001   0.00000   0.00000   0.00001   0.00001   0.00002
    D5       -0.00001  -0.00000   0.00000  -0.00001  -0.00001  -0.00002
    D6       -3.14157  -0.00000   0.00000  -0.00003  -0.00003   3.14159
    D7       -3.14158  -0.00000  -0.00000  -0.00002  -0.00002   3.14159
    D8        0.00004  -0.00000   0.00000  -0.00003  -0.00003   0.00001
    D9       -0.00007   0.00000  -0.00000   0.00005   0.00005  -0.00001
   D10       -3.14157   0.00000  -0.00000   0.00001   0.00001  -3.14156
   D11        3.14155   0.00000  -0.00000   0.00001   0.00001   3.14156
   D12        0.00005  -0.00000   0.00000  -0.00003  -0.00003   0.00002
   D13        0.00003  -0.00000   0.00000  -0.00002  -0.00002   0.00001
   D14       -3.14137  -0.00000   0.00000  -0.00013  -0.00013  -3.14150
   D15        3.14153   0.00000  -0.00000   0.00002   0.00002   3.14155
   D16        0.00013  -0.00000   0.00000  -0.00009  -0.00009   0.00004
   D17        0.00001  -0.00000   0.00000  -0.00003  -0.00003  -0.00002
   D18        3.14151   0.00000  -0.00000   0.00008   0.00007   3.14158
   D19        3.14145   0.00000   0.00000   0.00006   0.00006   3.14151
   D20       -0.00023   0.00000  -0.00001   0.00017   0.00016  -0.00007
   D21       -3.14156   0.00000  -0.00001   0.00009   0.00008  -3.14148
   D22       -0.00107   0.00000   0.00000   0.00018   0.00018  -0.00089
   D23        0.00020   0.00000  -0.00001  -0.00001  -0.00002   0.00018
   D24        3.14069   0.00000   0.00000   0.00008   0.00008   3.14077
   D25       -0.00003   0.00000  -0.00000   0.00005   0.00004   0.00002
   D26        3.14154   0.00000  -0.00000   0.00006   0.00006  -3.14159
   D27       -3.14149  -0.00000   0.00001  -0.00010  -0.00009  -3.14159
   D28        0.00007  -0.00000   0.00000  -0.00008  -0.00008  -0.00001
   D29        0.00018  -0.00001   0.00002  -0.00026  -0.00024  -0.00006
   D30       -3.14157  -0.00000   0.00001  -0.00010  -0.00009   3.14152
   D31       -3.14152  -0.00000   0.00001  -0.00013  -0.00012   3.14154
   D32       -0.00010   0.00000  -0.00000   0.00003   0.00003  -0.00007
   D33       -0.00009  -0.00000   0.00002  -0.00015  -0.00013  -0.00022
   D34        3.14152  -0.00000   0.00001   0.00001   0.00002   3.14154
   D35       -3.14058  -0.00001   0.00001  -0.00024  -0.00023  -3.14082
   D36        0.00103  -0.00000  -0.00001  -0.00008  -0.00008   0.00095
   D37       -0.00007   0.00001  -0.00002   0.00026   0.00023   0.00017
   D38        3.14151   0.00000  -0.00001   0.00007   0.00007   3.14157
   D39       -3.14149   0.00000  -0.00001   0.00010   0.00009  -3.14141
   D40        0.00008  -0.00000   0.00000  -0.00009  -0.00008  -0.00001
         Item               Value     Threshold  Converged?
 Maximum Force            0.005845     0.000450     NO 
 RMS     Force            0.001138     0.000300     NO 
 Maximum Displacement     0.019077     0.001800     NO 
 RMS     Displacement     0.004502     0.001200     NO 
 Predicted change in Energy=-1.668528D-04
 GradGradGradGradGradGradGradGradGradGradGradGradGradGradGradGradGradGrad

                          Input orientation:                          
 ---------------------------------------------------------------------
 Center     Atomic      Atomic             Coordinates (Angstroms)
 Number     Number       Type             X           Y           Z
 ---------------------------------------------------------------------
      1          6           0       -2.158478    0.694136    0.000027
      2          6           0       -2.141282   -0.734714    0.000032
      3          6           0       -0.932317   -1.453100    0.000029
      4          6           0        0.250597   -0.681792    0.000002
      5          6           0        0.259404    0.773491   -0.000006
      6          6           0       -0.968369    1.465444   -0.000004
      7          7           0        1.556144   -1.078330   -0.000107
      8          6           0        1.617332    1.170756   -0.000024
      9          6           0        2.398701    0.029459    0.000051
     10          1           0        1.865563   -2.032446    0.000546
     11          1           0        1.990383    2.181268   -0.000099
     12          1           0        3.468637   -0.086282    0.000045
     13          1           0       -3.080067   -1.270031    0.000025
     14          1           0       -0.912586   -2.533341   -0.000001
     15          1           0       -3.115005    1.198075    0.000033
     16          1           0       -1.001754    2.544855   -0.000013
 ---------------------------------------------------------------------
                    Distance matrix (angstroms):
                    1          2          3          4          5
[...]
 ! D9    D(1,2,3,4)             -0.0001         -DE/DX =    0.0                 !
 ! D10   D(1,2,3,14)          -179.9972         -DE/DX =    0.0                 !
 ! D11   D(13,2,3,4)           179.9985         -DE/DX =    0.0                 !
 ! D12   D(13,2,3,14)            0.0014         -DE/DX =    0.0                 !
 ! D13   D(2,3,4,5)              0.001          -DE/DX =    0.0                 !
 ! D14   D(2,3,4,7)           -179.9958         -DE/DX =    0.0                 !
 ! D15   D(14,3,4,5)           179.9981         -DE/DX =    0.0                 !
 ! D16   D(14,3,4,7)             0.0013         -DE/DX =    0.0                 !
 ! D17   D(3,4,5,6)             -0.0018         -DE/DX =    0.0                 !
 ! D18   D(3,4,5,8)            179.9994         -DE/DX =    0.0                 !
 ! D19   D(7,4,5,6)            179.9956         -DE/DX =    0.0                 !
 ! D20   D(7,4,5,8)             -0.0032         -DE/DX =    0.0                 !
 ! D21   D(3,4,7,9)           -179.9916         -DE/DX =    0.0                 !
 ! D22   D(3,4,7,10)            -0.0473         -DE/DX =    0.0                 !
 ! D23   D(5,4,7,9)              0.0112         -DE/DX =    0.0                 !
 ! D24   D(5,4,7,10)           179.9555         -DE/DX =    0.0                 !
 ! D25   D(4,5,6,1)              0.0016         -DE/DX =    0.0                 !
 ! D26   D(4,5,6,16)          -179.9985         -DE/DX =    0.0                 !
 ! D27   D(8,5,6,1)           -180.0            -DE/DX =    0.0                 !
 ! D28   D(8,5,6,16)            -0.0001         -DE/DX =    0.0                 !
 ! D29   D(4,5,8,9)             -0.0059         -DE/DX =    0.0                 !
 ! D30   D(4,5,8,11)           179.9952         -DE/DX =    0.0                 !
 ! D31   D(6,5,8,9)           -180.0044         -DE/DX =    0.0                 !
 ! D32   D(6,5,8,11)            -0.0034         -DE/DX =    0.0                 !
 ! D33   D(4,7,9,8)             -0.0151         -DE/DX =    0.0                 !
 ! D34   D(4,7,9,12)          -180.0034         -DE/DX =    0.0                 !
 ! D35   D(10,7,9,8)          -179.9596         -DE/DX =    0.0                 !
 ! D36   D(10,7,9,12)            0.0522         -DE/DX =    0.0                 !
 ! D37   D(5,8,9,7)              0.0127         -DE/DX =    0.0                 !
 ! D38   D(5,8,9,12)           179.9995         -DE/DX =    0.0                 !
 ! D39   D(11,8,9,7)          -179.9883         -DE/DX =    0.0                 !
 ! D40   D(11,8,9,12)           -0.0016         -DE/DX =    0.0                 !
 --------------------------------------------------------------------------------
 GradGradGradGradGradGradGradGradGradGradGradGradGradGradGradGradGradGrad

                          Input orientation:                          
 ---------------------------------------------------------------------
 Center     Atomic      Atomic             Coordinates (Angstroms)
 Number     Number       Type             X           Y           Z
 ---------------------------------------------------------------------
      1          6           0       -2.156931    0.695127    0.000031
      2          6           0       -2.136334   -0.731901    0.000046
      3          6           0       -0.930127   -1.452876    0.000027
      4          6           0        0.252196   -0.681491   -0.000010
      5          6           0        0.258221    0.774531   -0.000007
      6          6           0       -0.970662    1.467614   -0.000004
      7          7           0        1.557202   -1.080455   -0.000112
      8          6           0        1.613672    1.169865   -0.000036
      9          6           0        2.396983    0.026986    0.000080
     10          1           0        1.867273   -2.034600    0.000500
     11          1           0        1.988285    2.180025   -0.000114
     12          1           0        3.466618   -0.089486    0.000091
     13          1           0       -3.076030   -1.266251    0.000050
     14          1           0       -0.911131   -2.533042   -0.000007
     15          1           0       -3.114977    1.196508    0.000030
     16          1           0       -1.007356    2.546892   -0.000026
 ---------------------------------------------------------------------
                    Distance matrix (angstroms):
                    1          2          3          4          5
     1  C    0.000000
     2  C    1.427177   0.000000
     3  C    2.473653   1.405254   0.000000
     4  C    2.774702   2.389062   1.411709   0.000000
     5  C    2.416456   2.828998   2.524581   1.456035   0.000000
     6  C    1.415616   2.489309   2.920771   2.472657   1.410857
     7  N    4.116731   3.709946   2.515056   1.364629   2.264581
     8  C    3.800371   4.204672   3.653722   2.298073   1.411927
     9  C    4.602667   4.596398   3.641381   2.258772   2.265641
    10  H    4.862676   4.210213   2.857245   2.106982   3.237323
    11  H    4.403151   5.048941   4.659946   3.346981   2.229021
    12  H    5.678020   5.639661   4.603282   3.268483   3.322700
    13  H    2.166044   1.080999   2.154003   3.379206   3.909222
    14  H    3.460216   2.178356   1.080334   2.186680   3.508194
    15  H    1.081312   2.162522   3.434065   3.855481   3.399489
    16  H    2.179577   3.467719   4.000513   3.465390   2.177831
                    6          7          8          9         10
     6  C    0.000000
     7  N    3.589255   0.000000
     8  C    2.601429   2.251029   0.000000
     9  C    3.662846   1.389841   1.385550   0.000000
    10  H    4.507701   1.003263   3.214484   2.128551   0.000000
    11  H    3.043501   3.288854   1.077385   2.191486   4.216362
    12  H    4.702554   2.151253   2.240396   1.075957   2.518209
    13  H    3.450593   4.636956   5.284692   5.623730   5.002660
    14  H    4.001099   2.864032   4.481758   4.182985   2.822760
    15  H    2.161385   5.197482   4.728724   5.634668   5.938254
    16  H    1.079902   4.442364   2.960741   4.235498   5.408655
                   11         12         13         14         15
    11  H    0.000000
    12  H    2.708532   0.000000
    13  H    6.125692   6.647633   0.000000
    14  H    5.533500   5.013547   2.508296   0.000000
    15  H    5.197171   6.706055   2.463066   4.332030   0.000000
    16  H    3.018022   5.192969   4.338141   5.080845   2.503119
                   16
    16  H    0.000000
 Stoichiometry    C8H7N
 Framework group  C1[X(C8H7N)]
 Deg. of freedom    42
 Full point group                 C1      NOp   1
 Largest Abelian subgroup         C1      NOp   1
 Largest concise Abelian subgroup C1      NOp   1
                         Standard orientation:                         
 ---------------------------------------------------------------------
 Center     Atomic      Atomic             Coordinates (Angstroms)
 Number     Number       Type             X           Y           Z
 ---------------------------------------------------------------------
      1          6           0       -2.156769    0.698675    0.000023
      2          6           0       -2.138989   -0.728391    0.000038
      3          6           0       -0.934207   -1.451744    0.000019
      4          6           0        0.249636   -0.682695   -0.000018
      5          6           0        0.258535    0.773313   -0.000015
      6          6           0       -0.968978    1.468819   -0.000012
      7          7           0        1.553852   -1.084233   -0.000120
      8          6           0        1.614763    1.165971   -0.000044
      9          6           0        2.395817    0.021548    0.000072
     10          1           0        1.862039   -2.038988    0.000492
     11          1           0        1.991369    2.175390   -0.000122
     12          1           0        3.465220   -0.097034    0.000083
     13          1           0       -3.079738   -1.260885    0.000042
     14          1           0       -0.917343   -2.531946   -0.000015
     15          1           0       -3.113824    1.201946    0.000022
     16          1           0       -1.003542    2.548168   -0.000034
 ---------------------------------------------------------------------
 Rotational constants (GHZ):           3.7718747           1.6367346           1.1414317

 **********************************************************************

            Population analysis using the CI Density.

 **********************************************************************

 Orbital symmetries:
       Occupied  (A) (A) (A) (A) (A) (A) (A) (A) (A) (A) (A) (A)
                 (A) (A) (A) (A) (A) (A) (A) (A) (A) (A) (A) (A)
                 (A) (A) (A) (A) (A) (A) (A)
       Virtual   (A) (A) (A) (A) (A) (A) (A) (A) (A) (A) (A) (A)
                 (A) (A) (A) (A) (A) (A) (A) (A) (A) (A) (A) (A)
                 (A) (A) (A) (A) (A) (A) (A) (A) (A) (A) (A) (A)
                 (A) (A) (A) (A) (A) (A) (A) (A) (A) (A) (A) (A)
                 (A) (A) (A) (A) (A) (A) (A) (A) (A) (A) (A) (A)
                 (A) (A) (A) (A) (A) (A) (A) (A) (A) (A) (A) (A)
                 (A) (A) (A) (A) (A) (A) (A) (A) (A) (A) (A) (A)
                 (A) (A) (A) (A) (A) (A) (A) (A) (A) (A) (A) (A)
                 (A) (A) (A) (A) (A) (A) (A) (A) (A) (A) (A) (A)
                 (A) (A) (A) (A) (A) (A) (A) (A) (A) (A) (A) (A)
                 (A) (A) (A) (A) (A) (A) (A) (A) (A) (A) (A) (A)
                 (A) (A) (A) (A) (A) (A) (A) (A) (A) (A) (A) (A)
                 (A) (A) (A) (A) (A) (A) (A) (A) (A) (A)
 The electronic state is 1-A.
 Alpha  occ. eigenvalues --  -14.44037 -10.27726 -10.27681 -10.24628 -10.24202
 Alpha  occ. eigenvalues --  -10.24145 -10.24119 -10.23673 -10.23083  -0.98221
 Alpha  occ. eigenvalues --   -0.83197  -0.78457  -0.73031  -0.71465  -0.62448
 Alpha  occ. eigenvalues --   -0.59605  -0.57784  -0.53711  -0.48564  -0.46677
 Alpha  occ. eigenvalues --   -0.43321  -0.43024  -0.41895  -0.40480  -0.39053
 Alpha  occ. eigenvalues --   -0.35112  -0.33417  -0.32506  -0.27701  -0.21367
 Alpha  occ. eigenvalues --   -0.20021
 Alpha virt. eigenvalues --   -0.02911  -0.01221   0.00720   0.00858   0.01203
 Alpha virt. eigenvalues --    0.02632   0.02758   0.03830   0.05105   0.05397
 Alpha virt. eigenvalues --    0.05477   0.05861   0.07847   0.08297   0.09491
 Alpha virt. eigenvalues --    0.09685   0.10752   0.11916   0.12756   0.13202
 Alpha virt. eigenvalues --    0.14448   0.14842   0.15631   0.15771   0.16388
 Alpha virt. eigenvalues --    0.17475   0.18015   0.18046   0.18759   0.19131
 Alpha virt. eigenvalues --    0.19155   0.19336   0.20969   0.21798   0.22280
 Alpha virt. eigenvalues --    0.22656   0.23115   0.23550   0.24980   0.25395
 Alpha virt. eigenvalues --    0.26038   0.26430   0.27345   0.28823   0.29360
 Alpha virt. eigenvalues --    0.30203   0.31147   0.32585   0.34009   0.35923
 Alpha virt. eigenvalues --    0.36845   0.38940   0.42478   0.44628   0.50727
 Alpha virt. eigenvalues --    0.56014   0.59758   0.67418   0.67611   0.69919
 Alpha virt. eigenvalues --    0.70916   0.72087   0.73104   0.73479   0.73774
 Alpha virt. eigenvalues --    0.75109   0.75372   0.77580   0.78886   0.79173
 Alpha virt. eigenvalues --    0.81092   0.85151   0.88876   0.89451   0.90801
 Alpha virt. eigenvalues --    0.93732   0.94249   0.95188   0.95261   0.98409
 Alpha virt. eigenvalues --    0.99256   1.03080   1.05119   1.06010   1.09506
 Alpha virt. eigenvalues --    1.11569   1.11659   1.17258   1.18188   1.20666
 Alpha virt. eigenvalues --    1.22550   1.24014   1.24511   1.31732   1.32742
 Alpha virt. eigenvalues --    1.34703   1.36878   1.40502   1.41278   1.43781
 Alpha virt. eigenvalues --    1.46478   1.47561   1.49717   1.50132   1.53628
 Alpha virt. eigenvalues --    1.58793   1.64806   1.78832   1.83169   1.89584
 Alpha virt. eigenvalues --    1.90229   1.90920   1.93275   1.99668   2.00471
 Alpha virt. eigenvalues --    2.01536   2.05002   2.06638   2.13393   2.14835
 Alpha virt. eigenvalues --    2.15804   2.19660   2.23285   2.24622   2.26673
 Alpha virt. eigenvalues --    2.27237   2.30759   2.37454   2.41643   2.45517
 Alpha virt. eigenvalues --    2.54489   2.55878   2.62816   2.63960   2.65423
 Alpha virt. eigenvalues --    2.68549   2.72171   2.80054   2.83861   2.84300
 Alpha virt. eigenvalues --    2.96884   2.97463   3.11328   3.23745   3.40205
 Alpha virt. eigenvalues --    4.14804   4.25670   4.30563   4.32820   4.36982
 Alpha virt. eigenvalues --    4.40908   4.48688   4.52743   4.78051
          Condensed to atoms (all electrons):
               1          2          3          4          5          6
     1  C    5.852848   0.281848   0.231563  -0.490279  -0.101185  -0.146443
     2  C    0.281848   5.979075  -0.091195   0.188038  -0.661024   0.715572
     3  C    0.231563  -0.091195  13.581164  -2.251959  -3.858781  -3.018541
     4  C   -0.490279   0.188038  -2.251959  13.375638  -3.686386  -0.672326
     5  C   -0.101185  -0.661024  -3.858781  -3.686386  15.288932  -0.274610
     6  C   -0.146443   0.715572  -3.018541  -0.672326  -0.274610  12.845313
     7  N   -0.036809   0.015445  -0.559028  -0.478596   0.979700   0.189030
     8  C    0.158744  -0.308501   3.343925   1.506011  -5.350058  -4.013974
     9  C   -0.081046   0.026048  -1.151026  -0.534720   1.893498   0.984024
    10  H   -0.003507  -0.007840  -0.150068  -0.061812   0.174032   0.025821
    11  H    0.001386   0.001048   0.001632   0.034986  -0.005540  -0.002764
    12  H    0.001292   0.000131   0.034283   0.098946  -0.094414  -0.023561
    13  H    0.018277   0.264161  -0.003861   0.015922   0.005496   0.002801
    14  H    0.006914   0.045667   0.185808   0.068406   0.005414  -0.013629
    15  H    0.275970   0.012805   0.019551  -0.019262   0.030304  -0.024119
    16  H    0.020887   0.009337  -0.026445   0.011684   0.085553   0.224260
               7          8          9         10         11         12
     1  C   -0.036809   0.158744  -0.081046  -0.003507   0.001386   0.001292
     2  C    0.015445  -0.308501   0.026048  -0.007840   0.001048   0.000131
     3  C   -0.559028   3.343925  -1.151026  -0.150068   0.001632   0.034283
     4  C   -0.478596   1.506011  -0.534720  -0.061812   0.034986   0.098946
     5  C    0.979700  -5.350058   1.893498   0.174032  -0.005540  -0.094414
     6  C    0.189030  -4.013974   0.984024   0.025821  -0.002764  -0.023561
     7  N    7.324163  -0.788684   0.556278   0.274399   0.006877  -0.058908
     8  C   -0.788684  13.250187  -2.218048   0.002602   0.283846   0.039223
     9  C    0.556278  -2.218048   6.545457  -0.025081  -0.024892   0.310441
    10  H    0.274399   0.002602  -0.025081   0.348089  -0.000090  -0.002465
    11  H    0.006877   0.283846  -0.024892  -0.000090   0.488853  -0.000822
    12  H   -0.058908   0.039223   0.310441  -0.002465  -0.000822   0.477297
    13  H   -0.000489  -0.000607   0.001383  -0.000002   0.000000  -0.000000
    14  H   -0.008900  -0.005783   0.006715   0.002068   0.000002   0.000002
    15  H    0.000273   0.007712  -0.000186  -0.000000  -0.000002  -0.000000
    16  H   -0.000696  -0.036788   0.004058   0.000004   0.001441  -0.000001
              13         14         15         16
     1  C    0.018277   0.006914   0.275970   0.020887
     2  C    0.264161   0.045667   0.012805   0.009337
     3  C   -0.003861   0.185808   0.019551  -0.026445
     4  C    0.015922   0.068406  -0.019262   0.011684
     5  C    0.005496   0.005414   0.030304   0.085553
     6  C    0.002801  -0.013629  -0.024119   0.224260
     7  N   -0.000489  -0.008900   0.000273  -0.000696
     8  C   -0.000607  -0.005783   0.007712  -0.036788
     9  C    0.001383   0.006715  -0.000186   0.004058
    10  H   -0.000002   0.002068  -0.000000   0.000004
    11  H    0.000000   0.000002  -0.000002   0.001441
    12  H   -0.000000   0.000002  -0.000000  -0.000001
    13  H    0.505405  -0.003631  -0.004177  -0.000119
    14  H   -0.003631   0.512150  -0.000127   0.000014
    15  H   -0.004177  -0.000127   0.505394  -0.003443
    16  H   -0.000119   0.000014  -0.003443   0.507423
 Mulliken charges:
               1
     1  C    0.009542
     2  C   -0.470616
     3  C   -0.287022
     4  C   -1.104290
     5  C    1.569069
     6  C   -0.796856
     7  N   -0.414053
     8  C    0.130192
     9  C   -0.292903
    10  H    0.423849
    11  H    0.214038
    12  H    0.218555
    13  H    0.199443
    14  H    0.198912
    15  H    0.199307
    16  H    0.202832
 Sum of Mulliken charges =  -0.00000
 Mulliken charges with hydrogens summed into heavy atoms:
               1
     1  C    0.208849
     2  C   -0.271173
     3  C   -0.088110
     4  C   -1.104290
     5  C    1.569069
     6  C   -0.594024
     7  N    0.009796
     8  C    0.344230
     9  C   -0.074348
 Electronic spatial extent (au):  <R**2>=           1018.0639
 Charge=             -0.0000 electrons
 Dipole moment (field-independent basis, Debye):
    X=              2.0287    Y=             -1.4113    Z=              0.0001  Tot=              2.4713
 Quadrupole moment (field-independent basis, Debye-Ang):
   XX=            -45.3215   YY=            -45.4420   ZZ=            -59.6350
   XY=             -3.0507   XZ=              0.0006   YZ=             -0.0010
 Traceless Quadrupole moment (field-independent basis, Debye-Ang):
   XX=              4.8113   YY=              4.6908   ZZ=             -9.5021
   XY=             -3.0507   XZ=              0.0006   YZ=             -0.0010
 Octapole moment (field-independent basis, Debye-Ang**2):
  XXX=             15.7703  YYY=             -9.4733  ZZZ=             -0.0042  XYY=             10.7945
  XXY=             -7.0621  XXZ=             -0.0012  XZZ=              2.8794  YZZ=             -1.3303
  YYZ=             -0.0012  XYZ=             -0.0033
 Hexadecapole moment (field-independent basis, Debye-Ang**3):
 XXXX=           -827.7045 YYYY=           -389.2353 ZZZZ=            -81.5480 XXXY=            -20.2705
 XXXZ=             -0.0100 YYYX=            -18.8682 YYYZ=              0.0039 ZZZX=             -0.0043
 ZZZY=              0.0087 XXYY=           -198.6994 XXZZ=           -197.8824 YYZZ=           -102.0789
 XXYZ=              0.0003 YYXZ=              0.0058 ZZXY=             -3.3437
 N-N= 3.981384851524D+02 E-N=-1.638224731771D+03  KE= 3.596868967596D+02
 Unable to Open any file for archive entry.
 1\1\GINC-EXP-1-46\FOpt\RN12SX TD-FC\6-31+G(d)\C8H7N1\SCAPARAS\16-Jun-2
 021\0\\# td= (nstates=6, root=3) N12SX/6-31+G* Opt density=current\\Fu
 ncsN12SX-V-3rd\\0,1\C,-2.1569305005,0.6951270038,0.0000306907\C,-2.136
 3343461,-0.7319012452,0.0000458883\C,-0.9301274197,-1.4528757399,0.000
 0265363\C,0.2521961047,-0.6814913805,-0.00001018\C,0.2582208989,0.7745
 308114,-0.0000072477\C,-0.9706615955,1.4676137911,-0.0000042323\N,1.55
 72021434,-1.0804551252,-0.000112411\C,1.6136719972,1.1698653982,-0.000
 0356586\C,2.3969832107,0.0269861414,0.0000796166\H,1.8672726465,-2.034
 599563,0.0004998935\H,1.9882851326,2.1800249936,-0.0001142733\H,3.4666
 18093,-0.0894856093,0.0000906016\H,-3.0760302905,-1.266250655,0.000049
 5965\H,-0.9111308557,-2.5330423934,-0.0000067826\H,-3.1149766436,1.196
 5078291,0.0000296789\H,-1.0073555753,2.5468917427,-0.0000257169\\Versi
 on=AS64L-G16RevC.01\State=1-A\HF=-363.6619574\RMSD=6.574e-09\RMSF=1.39
 9e-04\Dipole=0.7981327,-0.555242,0.0000499\Quadrupole=3.5770894,3.4875
 161,-7.0646055,-2.2681148,0.0004265,-0.0007435\PG=C01 [X(C8H7N1)]\\@
 The archive entry for this job was punched.


 IF AT FIRST YOU DON'T SUCCEED, TRY, TRY AGAIN.
 THEN GIVE UP;
 THERE'S NO USE BEING A DAMN FOOL ABOUT IT.

                                 -- W. C. FIELDS
 Job cpu time:       0 days  2 hours 20 minutes 18.0 seconds.
 Elapsed time:       0 days  0 hours 35 minutes 53.2 seconds.
 File lengths (MBytes):  RWF=    238 Int=      0 D2E=      0 Chk=     11 Scr=      1
 Normal termination of Gaussian 16 at Wed Jun 16 07:49:44 2021.
