 Entering Gaussian System, Link 0=/opt/gaussian/16.C.01/g16/g16
 Initial command:
 /opt/gaussian/16.C.01/g16/l1.exe "/scratch/scaparas/34198275/Gau-24516.inp" -scrdir="/scratch/scaparas/34198275/"
 Entering Link 1 = /opt/gaussian/16.C.01/g16/l1.exe PID=     24517.
  
 Copyright (c) 1988-2019, Gaussian, Inc.  All Rights Reserved.
  
 This is part of the Gaussian(R) 16 program.  It is based on
 the Gaussian(R) 09 system (copyright 2009, Gaussian, Inc.),
 the Gaussian(R) 03 system (copyright 2003, Gaussian, Inc.),
 the Gaussian(R) 98 system (copyright 1998, Gaussian, Inc.),
 the Gaussian(R) 94 system (copyright 1995, Gaussian, Inc.),
 the Gaussian 92(TM) system (copyright 1992, Gaussian, Inc.),
 the Gaussian 90(TM) system (copyright 1990, Gaussian, Inc.),
 the Gaussian 88(TM) system (copyright 1988, Gaussian, Inc.),
 the Gaussian 86(TM) system (copyright 1986, Carnegie Mellon
 University), and the Gaussian 82(TM) system (copyright 1983,
 Carnegie Mellon University). Gaussian is a federally registered
 trademark of Gaussian, Inc.
  
 This software contains proprietary and confidential information,
 including trade secrets, belonging to Gaussian, Inc.
  
 This software is provided under written license and may be
 used, copied, transmitted, or stored only in accord with that
 written license.
  
 The following legend is applicable only to US Government
 contracts under FAR:
  
                    RESTRICTED RIGHTS LEGEND
  
 Use, reproduction and disclosure by the US Government is
 subject to restrictions as set forth in subparagraphs (a)
 and (c) of the Commercial Computer Software - Restricted
 Rights clause in FAR 52.227-19.
  
 Gaussian, Inc.
 340 Quinnipiac St., Bldg. 40, Wallingford CT 06492
  
  
 ---------------------------------------------------------------
 Warning -- This program may not be used in any manner that
 competes with the business of Gaussian, Inc. or will provide
 assistance to any competitor of Gaussian, Inc.  The licensee
 of this program is prohibited from giving any competitor of
 Gaussian, Inc. access to this program.  By using this program,
 the user acknowledges that Gaussian, Inc. is engaged in the
 business of creating and licensing software in the field of
 computational chemistry and represents and warrants to the
 licensee that it is not a competitor of Gaussian, Inc. and that
 it will not use this program in any manner prohibited above.
 ---------------------------------------------------------------
  

 Cite this work as:
 Gaussian 16, Revision C.01,
 M. J. Frisch, G. W. Trucks, H. B. Schlegel, G. E. Scuseria, 
 M. A. Robb, J. R. Cheeseman, G. Scalmani, V. Barone, 
 G. A. Petersson, H. Nakatsuji, X. Li, M. Caricato, A. V. Marenich, 
 J. Bloino, B. G. Janesko, R. Gomperts, B. Mennucci, H. P. Hratchian, 
 J. V. Ortiz, A. F. Izmaylov, J. L. Sonnenberg, D. Williams-Young, 
 F. Ding, F. Lipparini, F. Egidi, J. Goings, B. Peng, A. Petrone, 
 T. Henderson, D. Ranasinghe, V. G. Zakrzewski, J. Gao, N. Rega, 
 G. Zheng, W. Liang, M. Hada, M. Ehara, K. Toyota, R. Fukuda, 
 J. Hasegawa, M. Ishida, T. Nakajima, Y. Honda, O. Kitao, H. Nakai, 
 T. Vreven, K. Throssell, J. A. Montgomery, Jr., J. E. Peralta, 
 F. Ogliaro, M. J. Bearpark, J. J. Heyd, E. N. Brothers, K. N. Kudin, 
 V. N. Staroverov, T. A. Keith, R. Kobayashi, J. Normand, 
 K. Raghavachari, A. P. Rendell, J. C. Burant, S. S. Iyengar, 
 J. Tomasi, M. Cossi, J. M. Millam, M. Klene, C. Adamo, R. Cammi, 
 J. W. Ochterski, R. L. Martin, K. Morokuma, O. Farkas, 
 J. B. Foresman, and D. J. Fox, Gaussian, Inc., Wallingford CT, 2019.
 
 ******************************************
 Gaussian 16:  ES64L-G16RevC.01  3-Jul-2019
                17-Jun-2020 
 ******************************************
 %nprocshared=2
 Will use up to    2 processors via shared memory.
 %Chk=FuncsBVP862nd.chk
 -----------------------------------------------------------
 # td=(nstates=6, root=2) BVP86/6-31G(d) Opt density=current
 -----------------------------------------------------------
 1/18=20,19=15,26=3,38=1/1,3;
 2/9=110,12=2,17=6,18=5,40=1/2;
 3/5=1,6=6,7=1,11=9,25=1,30=1,71=1,74=418/1,2,3,8;
 4//1;
 5/5=2,38=5/2;
 8/6=1,10=2,107=2,108=6/1;
 9/8=2,15=2,41=6,42=1,70=2/14;
 10/5=4,28=2/2;
 6/7=2,8=2,9=2,10=2,22=-1/1;
 7/12=6,13=5,14=2/1,2,3,16;
 1/18=20,19=15,26=3/3(2);
 2/9=110/2;
 99//99;
 2/9=110/2;
 3/5=1,6=6,7=1,11=9,25=1,30=1,71=1,74=418/1,2,3,8;
 4/5=5,16=3,69=1/1;
 5/5=2,38=5/2;
 8/6=1,10=2,107=2,108=6/1;
 9/8=2,15=2,41=6,42=1,49=4,70=2/14;
 10/5=4,28=2/2;
 7/12=6,13=5,14=2/1,2,3,16;
 1/18=20,19=15,26=3/3(-8);
 2/9=110/2;
 6/7=2,8=2,9=2,10=2,22=-1/1;
 99/9=10/99;
 -------------
 FuncsBVP862nd
 -------------
 Symbolic Z-matrix:
 Charge =  0 Multiplicity = 1
 C                    -2.15886   0.68918   0.02974 
 C                    -2.1332   -0.71621  -0.0157 
 C                    -0.93572  -1.41751  -0.00819 
 C                     0.2487   -0.67115   0.00319 
 C                     0.25025   0.7522   -0.00266 
 C                    -0.98322   1.4256   -0.0173 
 N                     1.5657   -1.08029   0.00974 
 C                     1.62609   1.16684  -0.00626 
 C                     2.39038   0.03059   0.00688 
 H                     1.87967  -2.03756   0.01447 
 H                     1.9972    2.18233  -0.0192 
 H                     3.46481  -0.08787   0.00753 
 H                    -3.075    -1.264    -0.03434 
 H                    -0.91687  -2.50699  -0.02386 
 H                    -3.12254   1.20382   0.09559 
 H                    -1.01374   2.5151   -0.04664 
 

 GradGradGradGradGradGradGradGradGradGradGradGradGradGradGradGradGradGrad
 Berny optimization.
 Initialization pass.
                           ----------------------------
                           !    Initial Parameters    !
                           ! (Angstroms and Degrees)  !
 --------------------------                            --------------------------
 ! Name  Definition              Value          Derivative Info.                !
 --------------------------------------------------------------------------------
 ! R1    R(1,2)                  1.4064         estimate D2E/DX2                !
 ! R2    R(1,6)                  1.388          estimate D2E/DX2                !
 ! R3    R(1,15)                 1.0945         estimate D2E/DX2                !
 ! R4    R(2,3)                  1.3877         estimate D2E/DX2                !
 ! R5    R(2,13)                 1.0897         estimate D2E/DX2                !
 ! R6    R(3,4)                  1.4            estimate D2E/DX2                !
 ! R7    R(3,14)                 1.0898         estimate D2E/DX2                !
 ! R8    R(4,5)                  1.4234         estimate D2E/DX2                !
 ! R9    R(4,7)                  1.3791         estimate D2E/DX2                !
 ! R10   R(5,6)                  1.4054         estimate D2E/DX2                !
 ! R11   R(5,8)                  1.437          estimate D2E/DX2                !
 ! R12   R(6,16)                 1.0903         estimate D2E/DX2                !
 ! R13   R(7,9)                  1.3835         estimate D2E/DX2                !
 ! R14   R(7,10)                 1.0075         estimate D2E/DX2                !
 ! R15   R(8,9)                  1.3694         estimate D2E/DX2                !
 ! R16   R(8,11)                 1.0813         estimate D2E/DX2                !
 ! R17   R(9,12)                 1.0809         estimate D2E/DX2                !
 ! A1    A(2,1,6)              120.9061         estimate D2E/DX2                !
 ! A2    A(2,1,15)             119.2028         estimate D2E/DX2                !
 ! A3    A(6,1,15)             119.8895         estimate D2E/DX2                !
 ! A4    A(1,2,3)              121.3707         estimate D2E/DX2                !
 ! A5    A(1,2,13)             119.153          estimate D2E/DX2                !
 ! A6    A(3,2,13)             119.4616         estimate D2E/DX2                !
 ! A7    A(2,3,4)              117.4292         estimate D2E/DX2                !
 ! A8    A(2,3,14)             121.3371         estimate D2E/DX2                !
 ! A9    A(4,3,14)             121.2289         estimate D2E/DX2                !
 ! A10   A(3,4,5)              122.2756         estimate D2E/DX2                !
 ! A11   A(3,4,7)              130.5258         estimate D2E/DX2                !
 ! A12   A(5,4,7)              107.1964         estimate D2E/DX2                !
 ! A13   A(4,5,6)              118.5703         estimate D2E/DX2                !
 ! A14   A(4,5,8)              106.8342         estimate D2E/DX2                !
 ! A15   A(6,5,8)              134.5914         estimate D2E/DX2                !
 ! A16   A(1,6,5)              119.2617         estimate D2E/DX2                !
 ! A17   A(1,6,16)             120.4875         estimate D2E/DX2                !
 ! A18   A(5,6,16)             120.2412         estimate D2E/DX2                !
 ! A19   A(4,7,9)              109.3301         estimate D2E/DX2                !
 ! A20   A(4,7,10)             125.4173         estimate D2E/DX2                !
 ! A21   A(9,7,10)             125.2525         estimate D2E/DX2                !
 ! A22   A(5,8,9)              107.1528         estimate D2E/DX2                !
 ! A23   A(5,8,11)             126.8451         estimate D2E/DX2                !
 ! A24   A(9,8,11)             126.002          estimate D2E/DX2                !
 ! A25   A(7,9,8)              109.4848         estimate D2E/DX2                !
 ! A26   A(7,9,12)             120.2971         estimate D2E/DX2                !
 ! A27   A(8,9,12)             130.2163         estimate D2E/DX2                !
 ! D1    D(6,1,2,3)              4.8678         estimate D2E/DX2                !
 ! D2    D(6,1,2,13)          -176.5353         estimate D2E/DX2                !
 ! D3    D(15,1,2,3)          -175.5899         estimate D2E/DX2                !
 ! D4    D(15,1,2,13)            3.0069         estimate D2E/DX2                !
 ! D5    D(2,1,6,5)             -5.0972         estimate D2E/DX2                !
 ! D6    D(2,1,6,16)           176.0299         estimate D2E/DX2                !
 ! D7    D(15,1,6,5)           175.3637         estimate D2E/DX2                !
 ! D8    D(15,1,6,16)           -3.5093         estimate D2E/DX2                !
 ! D9    D(1,2,3,4)             -1.9941         estimate D2E/DX2                !
 ! D10   D(1,2,3,14)           178.7955         estimate D2E/DX2                !
 ! D11   D(13,2,3,4)           179.4132         estimate D2E/DX2                !
 ! D12   D(13,2,3,14)            0.2029         estimate D2E/DX2                !
 ! D13   D(2,3,4,5)             -0.4651         estimate D2E/DX2                !
 ! D14   D(2,3,4,7)           -179.8522         estimate D2E/DX2                !
 ! D15   D(14,3,4,5)           178.7462         estimate D2E/DX2                !
 ! D16   D(14,3,4,7)            -0.641          estimate D2E/DX2                !
 ! D17   D(3,4,5,6)              0.1482         estimate D2E/DX2                !
 ! D18   D(3,4,5,8)           -179.2217         estimate D2E/DX2                !
 ! D19   D(7,4,5,6)            179.6606         estimate D2E/DX2                !
 ! D20   D(7,4,5,8)              0.2907         estimate D2E/DX2                !
 ! D21   D(3,4,7,9)            179.3989         estimate D2E/DX2                !
 ! D22   D(3,4,7,10)            -0.5167         estimate D2E/DX2                !
 ! D23   D(5,4,7,9)             -0.0587         estimate D2E/DX2                !
 ! D24   D(5,4,7,10)          -179.9743         estimate D2E/DX2                !
 ! D25   D(4,5,6,1)              2.618          estimate D2E/DX2                !
 ! D26   D(4,5,6,16)          -178.5062         estimate D2E/DX2                !
 ! D27   D(8,5,6,1)           -178.2289         estimate D2E/DX2                !
 ! D28   D(8,5,6,16)             0.6469         estimate D2E/DX2                !
 ! D29   D(4,5,8,9)             -0.4171         estimate D2E/DX2                !
 ! D30   D(4,5,8,11)           179.4533         estimate D2E/DX2                !
 ! D31   D(6,5,8,9)           -179.64           estimate D2E/DX2                !
 ! D32   D(6,5,8,11)             0.2304         estimate D2E/DX2                !
 ! D33   D(4,7,9,8)             -0.2113         estimate D2E/DX2                !
 ! D34   D(4,7,9,12)          -179.7792         estimate D2E/DX2                !
 ! D35   D(10,7,9,8)           179.7044         estimate D2E/DX2                !
 ! D36   D(10,7,9,12)            0.1366         estimate D2E/DX2                !
 ! D37   D(5,8,9,7)              0.3888         estimate D2E/DX2                !
 ! D38   D(5,8,9,12)           179.9002         estimate D2E/DX2                !
 ! D39   D(11,8,9,7)          -179.483          estimate D2E/DX2                !
 ! D40   D(11,8,9,12)            0.0284         estimate D2E/DX2                !
 --------------------------------------------------------------------------------
 Trust Radius=3.00D-01 FncErr=1.00D-07 GrdErr=1.00D-06 EigMax=2.50D+02 EigMin=1.00D-04
 Number of steps in this run=     94 maximum allowed number of steps=    100.
 GradGradGradGradGradGradGradGradGradGradGradGradGradGradGradGradGradGrad

                          Input orientation:                          
 ---------------------------------------------------------------------
 Center     Atomic      Atomic             Coordinates (Angstroms)
 Number     Number       Type             X           Y           Z
 ---------------------------------------------------------------------
      1          6           0       -2.158860    0.689180    0.029740
      2          6           0       -2.133200   -0.716210   -0.015700
      3          6           0       -0.935720   -1.417510   -0.008190
      4          6           0        0.248700   -0.671150    0.003190
      5          6           0        0.250250    0.752200   -0.002660
      6          6           0       -0.983220    1.425600   -0.017300
      7          7           0        1.565700   -1.080290    0.009740
      8          6           0        1.626090    1.166840   -0.006260
      9          6           0        2.390380    0.030590    0.006880
     10          1           0        1.879670   -2.037560    0.014470
     11          1           0        1.997200    2.182330   -0.019200
     12          1           0        3.464810   -0.087870    0.007530
     13          1           0       -3.075000   -1.264000   -0.034340
     14          1           0       -0.916870   -2.506990   -0.023860
     15          1           0       -3.122540    1.203820    0.095590
     16          1           0       -1.013740    2.515100   -0.046640
 ---------------------------------------------------------------------
                    Distance matrix (angstroms):
                    1          2          3          4          5
     1  C    0.000000
     2  C    1.406359   0.000000
     3  C    2.436320   1.387745   0.000000
     4  C    2.765420   2.382401   1.400012   0.000000
     5  C    2.410152   2.799506   2.472690   1.423363   0.000000
     6  C    1.388041   2.431009   2.843521   2.431955   1.405393
     7  N    4.123563   3.716862   2.524112   1.379104   2.255789
     8  C    3.815141   4.204548   3.638920   2.296846   1.436967
     9  C    4.596721   4.584866   3.627694   2.253718   2.258532
    10  H    4.872891   4.224926   2.882949   2.127737   3.230799
    11  H    4.416416   5.045964   4.643381   3.346655   2.257738
    12  H    5.677144   5.633211   4.597048   3.268577   3.322532
    13  H    2.158317   1.089683   2.144940   3.376368   3.888876
    14  H    3.429419   2.164814   1.089756   2.174763   3.461927
    15  H    1.094472   2.162798   3.415307   3.858667   3.404310
    16  H    2.156645   3.419870   3.933572   3.427598   2.169659
                    6          7          8          9         10
     6  C    0.000000
     7  N    3.574522   0.000000
     8  C    2.622132   2.247998   0.000000
     9  C    3.650728   1.383532   1.369444   0.000000
    10  H    4.493398   1.007455   3.214485   2.130288   0.000000
    11  H    3.074987   3.291158   1.081254   2.187523   4.221661
    12  H    4.698529   2.142784   2.226068   1.080941   2.512769
    13  H    3.407313   4.644544   5.292449   5.616764   5.014931
    14  H    3.933155   2.863522   4.468107   4.168712   2.835925
    15  H    2.153746   5.215757   4.749866   5.637076   5.961143
    16  H    1.090322   4.425327   2.964479   4.214699   5.394652
                   11         12         13         14         15
    11  H    0.000000
    12  H    2.703406   0.000000
    13  H    6.132262   6.644859   0.000000
    14  H    5.521010   5.005222   2.490514   0.000000
    15  H    5.213674   6.713375   2.471695   4.318490   0.000000
    16  H    3.029397   5.180328   4.304711   5.023076   2.487312
                   16
    16  H    0.000000
 Stoichiometry    C8H7N
 Framework group  C1[X(C8H7N)]
 Deg. of freedom    42
 Full point group                 C1      NOp   1
 Largest Abelian subgroup         C1      NOp   1
 Largest concise Abelian subgroup C1      NOp   1
                         Standard orientation:                         
 ---------------------------------------------------------------------
 Center     Atomic      Atomic             Coordinates (Angstroms)
 Number     Number       Type             X           Y           Z
 ---------------------------------------------------------------------
      1          6           0       -2.158858    0.689183    0.029741
      2          6           0       -2.133200   -0.716207   -0.015699
      3          6           0       -0.935722   -1.417509   -0.008189
      4          6           0        0.248700   -0.671151    0.003191
      5          6           0        0.250252    0.752199   -0.002659
      6          6           0       -0.983217    1.425601   -0.017299
      7          7           0        1.565699   -1.080293    0.009741
      8          6           0        1.626093    1.166837   -0.006259
      9          6           0        2.390381    0.030585    0.006881
     10          1           0        1.879667   -2.037564    0.014471
     11          1           0        1.997205    2.182326   -0.019199
     12          1           0        3.464811   -0.087877    0.007531
     13          1           0       -3.075001   -1.263995   -0.034339
     14          1           0       -0.916873   -2.506989   -0.023859
     15          1           0       -3.122537    1.203825    0.095591
     16          1           0       -1.013735    2.515101   -0.046639
 ---------------------------------------------------------------------
 Rotational constants (GHZ):           3.8861076           1.6317910           1.1494058
 Standard basis: 6-31G(d) (6D, 7F)
 There are   149 symmetry adapted cartesian basis functions of A   symmetry.
 There are   149 symmetry adapted basis functions of A   symmetry.
   149 basis functions,   280 primitive gaussians,   149 cartesian basis functions
    31 alpha electrons       31 beta electrons
       nuclear repulsion energy       400.0099183022 Hartrees.
 NAtoms=   16 NActive=   16 NUniq=   16 SFac= 1.00D+00 NAtFMM=   60 NAOKFM=F Big=F
 Integral buffers will be    131072 words long.
 Regular integral format.
 Two-electron integral symmetry is turned on.
 One-electron integrals computed using PRISM.
 NBasis=   149 RedAO= T EigKep=  4.13D-04  NBF=   149
 NBsUse=   149 1.00D-06 EigRej= -1.00D+00 NBFU=   149
 ExpMin= 1.61D-01 ExpMax= 4.17D+03 ExpMxC= 6.27D+02 IAcc=3 IRadAn=         5 AccDes= 0.00D+00
 Harris functional with IExCor=  418 and IRadAn=       5 diagonalized for initial guess.
 HarFok:  IExCor=  418 AccDes= 0.00D+00 IRadAn=         5 IDoV= 1 UseB2=F ITyADJ=14
 ICtDFT=  3500011 ScaDFX=  1.000000  1.000000  1.000000  1.000000
 FoFCou: FMM=F IPFlag=           0 FMFlag=      100000 FMFlg1=           0
         NFxFlg=           0 DoJE=T BraDBF=F KetDBF=T FulRan=T
         wScrn=  0.000000 ICntrl=       500 IOpCl=  0 I1Cent=   200000004 NGrid=           0
         NMat0=    1 NMatS0=      1 NMatT0=    0 NMatD0=    1 NMtDS0=    0 NMtDT0=    0
 Petite list used in FoFCou.
 Keep J ints in memory in canonical form, NReq=64400683.
 Requested convergence on RMS density matrix=1.00D-08 within 128 cycles.
 Requested convergence on MAX density matrix=1.00D-06.
 Requested convergence on             energy=1.00D-06.
 No special actions if energy rises.
 Integral accuracy reduced to 1.0D-05 until final iterations.
 Initial convergence to 1.0D-05 achieved.  Increase integral accuracy.
 SCF Done:  E(RB-VP86) =  -363.833068071     A.U. after   16 cycles
            NFock= 16  Conv=0.33D-08     -V/T= 2.0102
 DoSCS=F DFT=T ScalE2(SS,OS)=  1.000000  1.000000
 ExpMin= 1.61D-01 ExpMax= 4.17D+03 ExpMxC= 6.27D+02 IAcc=3 IRadAn=         5 AccDes= 0.00D+00
 HarFok:  IExCor=  205 AccDes= 0.00D+00 IRadAn=         5 IDoV=-2 UseB2=F ITyADJ=14
 ICtDFT= 12500011 ScaDFX=  1.000000  1.000000  1.000000  1.000000
 Range of M.O.s used for correlation:    10   149
 NBasis=   149 NAE=    31 NBE=    31 NFC=     9 NFV=     0
 NROrb=    140 NOA=    22 NOB=    22 NVA=   118 NVB=   118
 Keep J ints in memory in canonical form, NReq=70866525.
 Orbital symmetries:
       Occupied  (A) (A) (A) (A) (A) (A) (A) (A) (A) (A) (A) (A)
                 (A) (A) (A) (A) (A) (A) (A) (A) (A) (A) (A) (A)
                 (A) (A) (A) (A) (A) (A) (A)
       Virtual   (A) (A) (A) (A) (A) (A) (A) (A) (A) (A) (A) (A)
                 (A) (A) (A) (A) (A) (A) (A) (A) (A) (A) (A) (A)
                 (A) (A) (A) (A) (A) (A) (A) (A) (A) (A) (A) (A)
                 (A) (A) (A) (A) (A) (A) (A) (A) (A) (A) (A) (A)
                 (A) (A) (A) (A) (A) (A) (A) (A) (A) (A) (A) (A)
                 (A) (A) (A) (A) (A) (A) (A) (A) (A) (A) (A) (A)
                 (A) (A) (A) (A) (A) (A) (A) (A) (A) (A) (A) (A)
                 (A) (A) (A) (A) (A) (A) (A) (A) (A) (A) (A) (A)
                 (A) (A) (A) (A) (A) (A) (A) (A) (A) (A) (A) (A)
                 (A) (A) (A) (A) (A) (A) (A) (A) (A) (A)
    24 initial guesses have been made.
 Convergence on wavefunction:    0.000001000000000
 Iteration     1 Dimension    24 NMult     0 NNew     24
 CISAX will form    24 AO SS matrices at one time.
 New state      2 was old state      3
 New state      3 was old state      5
 New state      4 was old state      8
 New state      5 was old state      9
 New state      6 was old state     10
 Iteration     2 Dimension    48 NMult    24 NNew     24
 New state      4 was old state      5
 New state      5 was old state      4
 New state      6 was old state      9
 Iteration     3 Dimension    54 NMult    48 NNew      6
 Iteration     4 Dimension    60 NMult    54 NNew      6
 Iteration     5 Dimension    66 NMult    60 NNew      6
 Iteration     6 Dimension    72 NMult    66 NNew      6
 Iteration     7 Dimension    78 NMult    72 NNew      6
 Iteration     8 Dimension    84 NMult    78 NNew      6
 Iteration     9 Dimension    90 NMult    84 NNew      6
 Iteration    10 Dimension    96 NMult    90 NNew      6
 Iteration    11 Dimension   102 NMult    96 NNew      6
 Iteration    12 Dimension   108 NMult   102 NNew      6
 Iteration    13 Dimension   114 NMult   108 NNew      6
 Iteration    14 Dimension   120 NMult   114 NNew      6
 Iteration    15 Dimension   126 NMult   120 NNew      6
 Iteration    16 Dimension   132 NMult   126 NNew      6
 Iteration    17 Dimension   137 NMult   132 NNew      5
 Iteration    18 Dimension   139 NMult   137 NNew      2
 Iteration    19 Dimension   140 NMult   139 NNew      1
 ***********************************************************************
 Excited states from <AA,BB:AA,BB> singles matrix:
 ***********************************************************************
 
 Ground to excited state transition densities written to RWF  633
 Ground to excited state transition electric dipole moments (Au):
       state          X           Y           Z        Dip. S.      Osc.
         1        -0.3719      0.5429     -0.0104      0.4332      0.0482
         2        -0.3744     -0.0878     -0.0024      0.1479      0.0173
         3         0.8818      0.0881      0.0086      0.7854      0.1124
         4        -1.4780     -0.5765     -0.0005      2.5168      0.3760
         5        -0.0072      0.0776      0.0183      0.0064      0.0010
         6         0.8122     -0.5556     -0.0087      0.9684      0.1522
 Ground to excited state transition velocity dipole moments (Au):
       state          X           Y           Z        Dip. S.      Osc.
         1         0.0556     -0.1016      0.0026      0.0134      0.0536
         2         0.0626      0.0156      0.0004      0.0042      0.0158
         3        -0.1889     -0.0201     -0.0025      0.0361      0.1120
         4         0.3235      0.1325     -0.0010      0.1222      0.3635
         5         0.0023     -0.0181     -0.0159      0.0006      0.0017
         6        -0.1920      0.1322      0.0027      0.0543      0.1537
 Ground to excited state transition magnetic dipole moments (Au):
       state          X           Y           Z
         1         0.0031      0.0027      0.0980
         2         0.0035     -0.0027      0.0059
         3         0.0002      0.0014      0.3466
         4         0.0022      0.0038     -0.2015
         5         0.1653      0.0087      0.0070
         6         0.0155      0.0080      0.1221
 Ground to excited state transition velocity quadrupole moments (Au):
       state          XX          YY          ZZ          XY          XZ          YZ
         1         0.1191     -0.0787     -0.0056      0.0063     -0.0059      0.0038
         2         0.0580     -0.1103      0.0073      0.0197      0.0022      0.0048
         3        -0.1438      0.0998      0.0011      0.1958      0.0062     -0.0007
         4         0.0259     -0.0078     -0.0138     -0.1316     -0.0006     -0.0027
         5        -0.0419     -0.0054     -0.0040      0.0202     -0.0467      0.1017
         6         0.3956      0.0055      0.0360     -0.0580     -0.0175      0.0114
 <0|del|b> * <b|rxdel|0> + <0|del|b> * <b|delr+rdel|0>
 Rotatory Strengths (R) in cgs (10**-40 erg-esu-cm/Gauss)
       state          XX          YY          ZZ    R(velocity)    E-M Angle
         1        -1.2618      1.3221      0.5988      0.2197       89.22
         2        -0.1349      1.0395     -0.1709      0.2446       67.62
         3        -2.0689     -0.4596     -0.5451     -1.0245       90.81
         4         1.4592     -0.1309      3.1369      1.4884       88.85
         5        -2.1620      1.2404      1.2567      0.1117       88.41
         6         5.2972     -7.0562     -3.0565     -1.6052       93.20
 1/2[<0|r|b>*<b|rxdel|0> + (<0|rxdel|b>*<b|r|0>)*]
 Rotatory Strengths (R) in cgs (10**-40 erg-esu-cm/Gauss)
       state          XX          YY          ZZ     R(length)
         1         0.8195     -1.0428      0.7210      0.1659
         2         0.9349     -0.1652      0.0101      0.2599
         3        -0.1349     -0.0873     -2.1011     -0.7744
         4         2.2791      1.5546     -0.0738      1.2533
         5         0.8458     -0.4746     -0.0907      0.0935
         6        -8.9289      3.1380      0.7470     -1.6813
  1/2[<0|del|b>*<b|r|0> + (<0|r|b>*<b|del|0>)*] (Au)
       state          X           Y           Z        Dip. S.   Osc.(frdel)
         1        -0.0207     -0.0551     -0.0000      0.0758      0.0506
         2        -0.0234     -0.0014     -0.0000      0.0248      0.0165
         3        -0.1665     -0.0018     -0.0000      0.1683      0.1122
         4        -0.4781     -0.0764      0.0000      0.5545      0.3697
         5        -0.0000     -0.0014     -0.0003      0.0017      0.0011
         6        -0.1560     -0.0734     -0.0000      0.2294      0.1529

 Excitation energies and oscillator strengths:
 
 Excited State   1:      Singlet-A      4.5404 eV  273.07 nm  f=0.0482  <S**2>=0.000
      29 -> 32         0.14176
      30 -> 32        -0.12312
      30 -> 33         0.12656
      31 -> 32         0.65516
 
 Excited State   2:      Singlet-A      4.7632 eV  260.30 nm  f=0.0173  <S**2>=0.000
      30 -> 32         0.53762
      31 -> 33        -0.44757
 This state for optimization and/or second-order correction.
 Total Energy, E(TD-HF/TD-DFT) =  -363.658024593    
 Copying the excited state density for this state as the 1-particle RhoCI density.
 
 Excited State   3:      Singlet-A      5.8424 eV  212.22 nm  f=0.1124  <S**2>=0.000
      29 -> 32         0.43482
      30 -> 32        -0.21421
      30 -> 33        -0.25921
      31 -> 32        -0.11328
      31 -> 33        -0.26641
      31 -> 34         0.31761
 
 Excited State   4:      Singlet-A      6.0984 eV  203.30 nm  f=0.3760  <S**2>=0.000
      29 -> 32         0.25333
      29 -> 33         0.24229
      30 -> 32         0.32305
      31 -> 33         0.41049
      31 -> 34         0.29853
 
 Excited State   5:      Singlet-A      6.3766 eV  194.44 nm  f=0.0010  <S**2>=0.000
      31 -> 35         0.70103
 
 Excited State   6:      Singlet-A      6.4152 eV  193.27 nm  f=0.1522  <S**2>=0.000
      29 -> 34        -0.14565
      30 -> 33         0.55207
      30 -> 34        -0.29508
      31 -> 32        -0.11426
      31 -> 33        -0.11286
      31 -> 34         0.15770
 SavETr:  write IOETrn=   770 NScale= 10 NData=  16 NLR=1 NState=    6 LETran=     118.
          IDoAtm=1111111111111111
          Differentiating once with respect to electric field.
                with respect to dipole field.
          Differentiating once with respect to nuclear coordinates.
 Keep J ints in memory in canonical form, NReq=64412969.
          There are     1 degrees of freedom in the 1st order CPHF.  IDoFFX=0 NUNeed=     1.
 LinEq1:  Iter=  0 NonCon=     1 RMS=9.32D-03 Max=2.83D-01 NDo=     1
 AX will form     1 AO Fock derivatives at one time.
 LinEq1:  Iter=  1 NonCon=     1 RMS=5.23D-03 Max=1.15D-01 NDo=     1
 LinEq1:  Iter=  2 NonCon=     1 RMS=6.01D-03 Max=1.78D-01 NDo=     1
 LinEq1:  Iter=  3 NonCon=     1 RMS=2.73D-03 Max=6.07D-02 NDo=     1
 LinEq1:  Iter=  4 NonCon=     1 RMS=2.88D-03 Max=8.52D-02 NDo=     1
 LinEq1:  Iter=  5 NonCon=     1 RMS=1.27D-03 Max=2.52D-02 NDo=     1
 LinEq1:  Iter=  6 NonCon=     1 RMS=1.01D-03 Max=1.82D-02 NDo=     1
 LinEq1:  Iter=  7 NonCon=     1 RMS=4.86D-04 Max=7.01D-03 NDo=     1
 LinEq1:  Iter=  8 NonCon=     1 RMS=2.13D-04 Max=2.47D-03 NDo=     1
 LinEq1:  Iter=  9 NonCon=     1 RMS=1.23D-04 Max=2.69D-03 NDo=     1
 LinEq1:  Iter= 10 NonCon=     1 RMS=3.67D-05 Max=5.40D-04 NDo=     1
 LinEq1:  Iter= 11 NonCon=     1 RMS=1.95D-05 Max=3.43D-04 NDo=     1
 LinEq1:  Iter= 12 NonCon=     1 RMS=1.44D-05 Max=2.59D-04 NDo=     1
 LinEq1:  Iter= 13 NonCon=     1 RMS=1.03D-05 Max=3.02D-04 NDo=     1
 LinEq1:  Iter= 14 NonCon=     1 RMS=4.91D-06 Max=4.59D-05 NDo=     1
 LinEq1:  Iter= 15 NonCon=     1 RMS=9.79D-07 Max=1.44D-05 NDo=     1
 LinEq1:  Iter= 16 NonCon=     1 RMS=7.72D-07 Max=1.54D-05 NDo=     1
 LinEq1:  Iter= 17 NonCon=     1 RMS=1.97D-07 Max=1.63D-06 NDo=     1
 LinEq1:  Iter= 18 NonCon=     1 RMS=4.29D-08 Max=4.43D-07 NDo=     1
 LinEq1:  Iter= 19 NonCon=     1 RMS=1.40D-08 Max=1.23D-07 NDo=     1
 LinEq1:  Iter= 20 NonCon=     1 RMS=3.11D-09 Max=2.91D-08 NDo=     1
 LinEq1:  Iter= 21 NonCon=     1 RMS=5.80D-10 Max=7.50D-09 NDo=     1
 LinEq1:  Iter= 22 NonCon=     1 RMS=1.17D-10 Max=1.03D-09 NDo=     1
 LinEq1:  Iter= 23 NonCon=     0 RMS=1.93D-11 Max=1.76D-10 NDo=     1
 Linear equations converged to 1.000D-10 1.000D-09 after    23 iterations.
 End of Minotr F.D. properties file   721 does not exist.
 End of Minotr F.D. properties file   722 does not exist.
 End of Minotr F.D. properties file   788 does not exist.

 **********************************************************************

            Population analysis using the CI Density.

 **********************************************************************

 Orbital symmetries:
       Occupied  (A) (A) (A) (A) (A) (A) (A) (A) (A) (A) (A) (A)
                 (A) (A) (A) (A) (A) (A) (A) (A) (A) (A) (A) (A)
                 (A) (A) (A) (A) (A) (A) (A)
       Virtual   (A) (A) (A) (A) (A) (A) (A) (A) (A) (A) (A) (A)
                 (A) (A) (A) (A) (A) (A) (A) (A) (A) (A) (A) (A)
                 (A) (A) (A) (A) (A) (A) (A) (A) (A) (A) (A) (A)
                 (A) (A) (A) (A) (A) (A) (A) (A) (A) (A) (A) (A)
                 (A) (A) (A) (A) (A) (A) (A) (A) (A) (A) (A) (A)
                 (A) (A) (A) (A) (A) (A) (A) (A) (A) (A) (A) (A)
                 (A) (A) (A) (A) (A) (A) (A) (A) (A) (A) (A) (A)
                 (A) (A) (A) (A) (A) (A) (A) (A) (A) (A) (A) (A)
                 (A) (A) (A) (A) (A) (A) (A) (A) (A) (A) (A) (A)
                 (A) (A) (A) (A) (A) (A) (A) (A) (A) (A)
 The electronic state is 1-A.
 Alpha  occ. eigenvalues --  -14.06459  -9.94146  -9.93879  -9.91059  -9.90565
 Alpha  occ. eigenvalues --   -9.90458  -9.90441  -9.90071  -9.89854  -0.89487
 Alpha  occ. eigenvalues --   -0.75678  -0.70510  -0.66027  -0.64321  -0.56011
 Alpha  occ. eigenvalues --   -0.53335  -0.51862  -0.48162  -0.42816  -0.41600
 Alpha  occ. eigenvalues --   -0.38495  -0.37616  -0.36982  -0.35882  -0.34168
 Alpha  occ. eigenvalues --   -0.30695  -0.28975  -0.28680  -0.23975  -0.19170
 Alpha  occ. eigenvalues --   -0.17511
 Alpha virt. eigenvalues --   -0.03185   0.00293   0.03999   0.05749   0.08075
 Alpha virt. eigenvalues --    0.11125   0.12020   0.14236   0.14394   0.15431
 Alpha virt. eigenvalues --    0.16353   0.19031   0.21553   0.23572   0.27160
 Alpha virt. eigenvalues --    0.30169   0.31536   0.35316   0.38418   0.46045
 Alpha virt. eigenvalues --    0.48079   0.48579   0.48896   0.51872   0.52001
 Alpha virt. eigenvalues --    0.52771   0.54897   0.55165   0.55887   0.57315
 Alpha virt. eigenvalues --    0.57910   0.58235   0.58535   0.60168   0.61073
 Alpha virt. eigenvalues --    0.65384   0.66872   0.72704   0.76584   0.76888
 Alpha virt. eigenvalues --    0.77504   0.79408   0.80095   0.80223   0.81463
 Alpha virt. eigenvalues --    0.84093   0.86292   0.89307   0.92071   0.93225
 Alpha virt. eigenvalues --    0.93733   1.00109   1.01971   1.07538   1.08348
 Alpha virt. eigenvalues --    1.15273   1.18356   1.20294   1.24629   1.26871
 Alpha virt. eigenvalues --    1.28445   1.32274   1.35511   1.38140   1.39927
 Alpha virt. eigenvalues --    1.40791   1.43287   1.44969   1.45349   1.49791
 Alpha virt. eigenvalues --    1.55073   1.68624   1.73716   1.75238   1.81796
 Alpha virt. eigenvalues --    1.82666   1.84155   1.87859   1.88491   1.92841
 Alpha virt. eigenvalues --    1.93257   1.97813   2.02327   2.06098   2.06996
 Alpha virt. eigenvalues --    2.09791   2.15455   2.17240   2.18118   2.19105
 Alpha virt. eigenvalues --    2.21211   2.30379   2.31163   2.33018   2.40959
 Alpha virt. eigenvalues --    2.48252   2.51131   2.54264   2.58973   2.59211
 Alpha virt. eigenvalues --    2.64240   2.69215   2.71779   2.75718   2.81591
 Alpha virt. eigenvalues --    2.87926   2.99094   3.13853   3.34730   3.90042
 Alpha virt. eigenvalues --    4.00969   4.02213   4.06946   4.11703   4.23636
 Alpha virt. eigenvalues --    4.31354   4.36755   4.66970
          Condensed to atoms (all electrons):
               1          2          3          4          5          6
     1  C    5.086338   0.455810  -0.036696  -0.032733   0.003800   0.399274
     2  C    0.455810   5.002596   0.471526   0.006733  -0.030999  -0.023467
     3  C   -0.036696   0.471526   5.209836   0.418566  -0.065928  -0.053912
     4  C   -0.032733   0.006733   0.418566   4.913499   0.415144  -0.058973
     5  C    0.003800  -0.030999  -0.065928   0.415144   4.753371   0.464216
     6  C    0.399274  -0.023467  -0.053912  -0.058973   0.464216   5.282189
     7  N   -0.000341   0.006647  -0.096131   0.207038  -0.027352   0.013401
     8  C    0.009585  -0.000210   0.016190  -0.015829   0.417589  -0.112997
     9  C   -0.000480  -0.000228   0.006017  -0.102297  -0.007338   0.013440
    10  H   -0.000005  -0.000062  -0.004254  -0.026734   0.006777  -0.000134
    11  H   -0.000016   0.000004  -0.000162   0.007395  -0.033440  -0.006402
    12  H    0.000005   0.000002  -0.000135   0.006109   0.002134  -0.000180
    13  H   -0.040846   0.353416  -0.040919   0.003064   0.001171   0.004891
    14  H    0.004879  -0.041570   0.346677  -0.043436   0.004675   0.000602
    15  H    0.355212  -0.042096   0.005080   0.001054   0.002724  -0.039652
    16  H   -0.049453   0.005270   0.000579   0.005772  -0.042866   0.353873
               7          8          9         10         11         12
     1  C   -0.000341   0.009585  -0.000480  -0.000005  -0.000016   0.000005
     2  C    0.006647  -0.000210  -0.000228  -0.000062   0.000004   0.000002
     3  C   -0.096131   0.016190   0.006017  -0.004254  -0.000162  -0.000135
     4  C    0.207038  -0.015829  -0.102297  -0.026734   0.007395   0.006109
     5  C   -0.027352   0.417589  -0.007338   0.006777  -0.033440   0.002134
     6  C    0.013401  -0.112997   0.013440  -0.000134  -0.006402  -0.000180
     7  N    7.046675  -0.077225   0.319550   0.319497   0.004488  -0.047993
     8  C   -0.077225   5.207177   0.451674   0.005248   0.366091  -0.032917
     9  C    0.319550   0.451674   5.006988  -0.033852  -0.056572   0.363790
    10  H    0.319497   0.005248  -0.033852   0.399646  -0.000092  -0.002181
    11  H    0.004488   0.366091  -0.056572  -0.000092   0.569122  -0.001234
    12  H   -0.047993  -0.032917   0.363790  -0.002181  -0.001234   0.548699
    13  H   -0.000118   0.000012   0.000002  -0.000002  -0.000000  -0.000000
    14  H   -0.007009  -0.000302  -0.000020   0.002973   0.000003   0.000003
    15  H    0.000004  -0.000179   0.000005  -0.000000  -0.000002  -0.000000
    16  H   -0.000128  -0.008083  -0.000060   0.000005   0.002457  -0.000001
              13         14         15         16
     1  C   -0.040846   0.004879   0.355212  -0.049453
     2  C    0.353416  -0.041570  -0.042096   0.005270
     3  C   -0.040919   0.346677   0.005080   0.000579
     4  C    0.003064  -0.043436   0.001054   0.005772
     5  C    0.001171   0.004675   0.002724  -0.042866
     6  C    0.004891   0.000602  -0.039652   0.353873
     7  N   -0.000118  -0.007009   0.000004  -0.000128
     8  C    0.000012  -0.000302  -0.000179  -0.008083
     9  C    0.000002  -0.000020   0.000005  -0.000060
    10  H   -0.000002   0.002973  -0.000000   0.000005
    11  H   -0.000000   0.000003  -0.000002   0.002457
    12  H   -0.000000   0.000003  -0.000000  -0.000001
    13  H    0.602596  -0.006333  -0.006083  -0.000199
    14  H   -0.006333   0.618421  -0.000184   0.000020
    15  H   -0.006083  -0.000184   0.602686  -0.006134
    16  H   -0.000199   0.000020  -0.006134   0.616196
 Mulliken charges:
               1
     1  C   -0.154330
     2  C   -0.163371
     3  C   -0.176332
     4  C    0.295629
     5  C    0.136320
     6  C   -0.236169
     7  N   -0.661002
     8  C   -0.225824
     9  C    0.039381
    10  H    0.333172
    11  H    0.148360
    12  H    0.163900
    13  H    0.129348
    14  H    0.120601
    15  H    0.127567
    16  H    0.122751
 Sum of Mulliken charges =  -0.00000
 Mulliken charges with hydrogens summed into heavy atoms:
               1
     1  C   -0.026763
     2  C   -0.034023
     3  C   -0.055731
     4  C    0.295629
     5  C    0.136320
     6  C   -0.113418
     7  N   -0.327830
     8  C   -0.077464
     9  C    0.203281
 Electronic spatial extent (au):  <R**2>=           1007.9812
 Charge=              0.0000 electrons
 Dipole moment (field-independent basis, Debye):
    X=              2.3429    Y=             -1.4803    Z=              0.0095  Tot=              2.7714
 Quadrupole moment (field-independent basis, Debye-Ang):
   XX=            -43.6958   YY=            -44.3539   ZZ=            -56.3520
   XY=             -2.7585   XZ=             -0.0571   YZ=             -0.0087
 Traceless Quadrupole moment (field-independent basis, Debye-Ang):
   XX=              4.4381   YY=              3.7800   ZZ=             -8.2181
   XY=             -2.7585   XZ=             -0.0571   YZ=             -0.0087
 Octapole moment (field-independent basis, Debye-Ang**2):
  XXX=             18.6094  YYY=            -10.2685  ZZZ=              0.0403  XYY=             10.4883
  XXY=             -7.1531  XXZ=              0.3611  XZZ=              2.5287  YZZ=             -1.6135
  YYZ=             -0.1651  XYZ=             -0.3663
 Hexadecapole moment (field-independent basis, Debye-Ang**3):
 XXXX=           -795.7923 YYYY=           -364.8824 ZZZZ=            -57.6900 XXXY=            -18.5298
 XXXZ=             -0.9091 YYYX=            -18.0379 YYYZ=             -0.4584 ZZZX=              0.0001
 ZZZY=             -0.0432 XXYY=           -190.2649 XXZZ=           -176.2503 YYZZ=            -87.0925
 XXYZ=              0.5261 YYXZ=              0.0841 ZZXY=             -2.8037
 N-N= 4.000099183022D+02 E-N=-1.643273708305D+03  KE= 3.603880249356D+02
 Calling FoFJK, ICntrl=  10005527 FMM=F ISym2X=0 I1Cent= 0 IOpClX= 0 NMat=1 NMatS=1 NMatT=0.
 ***** Axes restored to original set *****
 -------------------------------------------------------------------
 Center     Atomic                   Forces (Hartrees/Bohr)
 Number     Number              X              Y              Z
 -------------------------------------------------------------------
      1        6          -0.032283084    0.007950641   -0.000154648
      2        6          -0.018862335   -0.016974383    0.001398298
      3        6           0.003294808   -0.026650837   -0.000870539
      4        6           0.003749604   -0.011980548    0.001113809
      5        6           0.012151314    0.025021667   -0.001921133
      6        6           0.022279441    0.033284906    0.000236990
      7        7           0.003265104   -0.005755186    0.000313369
      8        6          -0.027548260    0.018102416    0.000163586
      9        6           0.026062638   -0.018356712   -0.000252407
     10        1           0.002499829   -0.006816325    0.000050340
     11        1           0.001870776    0.005274082    0.000193455
     12        1           0.005563997   -0.000513530   -0.000036274
     13        1          -0.002529378   -0.002207844    0.000090762
     14        1          -0.000198532   -0.003217639   -0.000268148
     15        1           0.000210923    0.000066183   -0.000549357
     16        1           0.000473157    0.002773110    0.000491896
 -------------------------------------------------------------------
 Cartesian Forces:  Max     0.033284906 RMS     0.012337369

 GradGradGradGradGradGradGradGradGradGradGradGradGradGradGradGradGradGrad
 Berny optimization.
 FormGI is forming the generalized inverse of G from B-inverse, IUseBI=4.
 Internal  Forces:  Max     0.040788706 RMS     0.009188701
 Search for a local minimum.
 Step number   1 out of a maximum of   94
 All quantities printed in internal units (Hartrees-Bohrs-Radians)
 Mixed Optimization -- RFO/linear search
 Second derivative matrix not updated -- first step.
 ITU=  0
     Eigenvalues ---    0.01796   0.01876   0.01936   0.01957   0.02014
     Eigenvalues ---    0.02077   0.02091   0.02104   0.02135   0.02150
     Eigenvalues ---    0.02171   0.02192   0.02277   0.15995   0.15997
     Eigenvalues ---    0.15999   0.15999   0.16000   0.16000   0.16000
     Eigenvalues ---    0.21967   0.22184   0.22640   0.24007   0.24641
     Eigenvalues ---    0.34301   0.34775   0.34841   0.34849   0.35843
     Eigenvalues ---    0.35881   0.36568   0.37979   0.41971   0.43107
     Eigenvalues ---    0.45016   0.46141   0.46401   0.46720   0.46776
     Eigenvalues ---    0.47290   0.50149
 RFO step:  Lambda=-1.52142145D-02 EMin= 1.79641872D-02
 Linear search not attempted -- first point.
 Iteration  1 RMS(Cart)=  0.03063824 RMS(Int)=  0.00020656
 Iteration  2 RMS(Cart)=  0.00020264 RMS(Int)=  0.00005577
 Iteration  3 RMS(Cart)=  0.00000007 RMS(Int)=  0.00005577
 Variable       Old X    -DE/DX   Delta X   Delta X   Delta X     New X
                                 (Linear)    (Quad)   (Total)
    R1        2.65763   0.03295   0.00000   0.07285   0.07283   2.73047
    R2        2.62302   0.04079   0.00000   0.08391   0.08391   2.70692
    R3        2.06825  -0.00019   0.00000  -0.00052  -0.00052   2.06773
    R4        2.62246   0.02506   0.00000   0.05128   0.05126   2.67372
    R5        2.05920   0.00329   0.00000   0.00906   0.00906   2.06826
    R6        2.64564   0.02367   0.00000   0.04919   0.04919   2.69483
    R7        2.05934   0.00322   0.00000   0.00885   0.00885   2.06819
    R8        2.68977   0.03323   0.00000   0.07370   0.07367   2.76344
    R9        2.60613   0.01542   0.00000   0.03050   0.03050   2.63663
   R10        2.65581   0.01386   0.00000   0.02961   0.02962   2.68543
   R11        2.71547  -0.00353   0.00000  -0.00942  -0.00946   2.70602
   R12        2.06041   0.00274   0.00000   0.00756   0.00756   2.06797
   R13        2.61450   0.01115   0.00000   0.02346   0.02351   2.63800
   R14        1.90381   0.00726   0.00000   0.01514   0.01514   1.91896
   R15        2.58787   0.03453   0.00000   0.06625   0.06627   2.65415
   R16        2.04327   0.00559   0.00000   0.01497   0.01497   2.05824
   R17        2.04268   0.00559   0.00000   0.01494   0.01494   2.05762
    A1        2.11021   0.00118   0.00000   0.00990   0.00980   2.12001
    A2        2.08048  -0.00042   0.00000  -0.00396  -0.00396   2.07652
    A3        2.09247  -0.00075   0.00000  -0.00584  -0.00584   2.08663
    A4        2.11832  -0.00042   0.00000   0.00185   0.00174   2.12006
    A5        2.07961   0.00087   0.00000   0.00293   0.00294   2.08255
    A6        2.08500  -0.00043   0.00000  -0.00448  -0.00447   2.08052
    A7        2.04953  -0.00256   0.00000  -0.01204  -0.01211   2.03742
    A8        2.11773   0.00101   0.00000   0.00451   0.00454   2.12227
    A9        2.11584   0.00155   0.00000   0.00754   0.00757   2.12342
   A10        2.13411   0.00346   0.00000   0.01027   0.01026   2.14437
   A11        2.27810  -0.00317   0.00000  -0.00862  -0.00858   2.26953
   A12        1.87093  -0.00029   0.00000  -0.00166  -0.00169   1.86924
   A13        2.06944   0.00366   0.00000   0.01295   0.01295   2.08240
   A14        1.86461  -0.00134   0.00000  -0.00773  -0.00782   1.85679
   A15        2.34906  -0.00232   0.00000  -0.00512  -0.00507   2.34399
   A16        2.08151  -0.00525   0.00000  -0.02085  -0.02091   2.06060
   A17        2.10290   0.00318   0.00000   0.01367   0.01368   2.11658
   A18        2.09860   0.00207   0.00000   0.00733   0.00734   2.10595
   A19        1.90817   0.00094   0.00000   0.00543   0.00547   1.91364
   A20        2.18895  -0.00023   0.00000  -0.00135  -0.00137   2.18757
   A21        2.18607  -0.00071   0.00000  -0.00408  -0.00410   2.18197
   A22        1.87017   0.00412   0.00000   0.01624   0.01621   1.88638
   A23        2.21386  -0.00211   0.00000  -0.00842  -0.00841   2.20545
   A24        2.19915  -0.00201   0.00000  -0.00782  -0.00781   2.19134
   A25        1.91087  -0.00343   0.00000  -0.01220  -0.01215   1.89872
   A26        2.09958   0.00182   0.00000   0.00670   0.00667   2.10625
   A27        2.27270   0.00162   0.00000   0.00554   0.00551   2.27821
    D1        0.08496  -0.00095   0.00000  -0.02730  -0.02746   0.05750
    D2       -3.08112  -0.00046   0.00000  -0.01301  -0.01310  -3.09423
    D3       -3.06462  -0.00039   0.00000  -0.01170  -0.01180  -3.07642
    D4        0.05248   0.00011   0.00000   0.00259   0.00256   0.05504
    D5       -0.08896   0.00109   0.00000   0.02866   0.02860  -0.06036
    D6        3.07230   0.00073   0.00000   0.01980   0.01981   3.09211
    D7        3.06067   0.00052   0.00000   0.01295   0.01284   3.07351
    D8       -0.06125   0.00016   0.00000   0.00408   0.00405  -0.05720
    D9       -0.03480   0.00052   0.00000   0.01371   0.01360  -0.02120
   D10        3.12057   0.00044   0.00000   0.01285   0.01284   3.13341
   D11        3.13135   0.00001   0.00000  -0.00073  -0.00084   3.13051
   D12        0.00354  -0.00007   0.00000  -0.00159  -0.00160   0.00194
   D13       -0.00812  -0.00012   0.00000  -0.00115  -0.00106  -0.00918
   D14       -3.13901  -0.00008   0.00000   0.00018   0.00027  -3.13874
   D15        3.11971  -0.00004   0.00000  -0.00031  -0.00032   3.11938
   D16       -0.01119   0.00000   0.00000   0.00102   0.00101  -0.01018
   D17        0.00259   0.00004   0.00000   0.00197   0.00206   0.00465
   D18       -3.12801  -0.00019   0.00000  -0.00538  -0.00535  -3.13336
   D19        3.13567  -0.00002   0.00000   0.00086   0.00094   3.13660
   D20        0.00507  -0.00024   0.00000  -0.00649  -0.00647  -0.00140
   D21        3.13110   0.00005   0.00000  -0.00016  -0.00023   3.13088
   D22       -0.00902   0.00007   0.00000   0.00073   0.00066  -0.00836
   D23       -0.00102   0.00006   0.00000   0.00095   0.00088  -0.00015
   D24       -3.14114   0.00009   0.00000   0.00184   0.00176  -3.13938
   D25        0.04569  -0.00063   0.00000  -0.01600  -0.01592   0.02978
   D26       -3.11552  -0.00025   0.00000  -0.00708  -0.00711  -3.12263
   D27       -3.11068  -0.00030   0.00000  -0.00608  -0.00595  -3.11663
   D28        0.01129   0.00007   0.00000   0.00284   0.00286   0.01415
   D29       -0.00728   0.00037   0.00000   0.00973   0.00970   0.00242
   D30        3.13205   0.00027   0.00000   0.00712   0.00706   3.13911
   D31       -3.13531   0.00004   0.00000   0.00050   0.00051  -3.13480
   D32        0.00402  -0.00006   0.00000  -0.00211  -0.00213   0.00189
   D33       -0.00369   0.00022   0.00000   0.00547   0.00538   0.00169
   D34       -3.13774   0.00001   0.00000  -0.00034  -0.00041  -3.13815
   D35        3.13643   0.00020   0.00000   0.00458   0.00450   3.14093
   D36        0.00238  -0.00001   0.00000  -0.00123  -0.00129   0.00110
   D37        0.00679  -0.00033   0.00000  -0.00930  -0.00935  -0.00256
   D38        3.13985  -0.00009   0.00000  -0.00274  -0.00281   3.13704
   D39       -3.13257  -0.00023   0.00000  -0.00671  -0.00674  -3.13931
   D40        0.00050   0.00001   0.00000  -0.00015  -0.00020   0.00030
         Item               Value     Threshold  Converged?
 Maximum Force            0.040789     0.000450     NO 
 RMS     Force            0.009189     0.000300     NO 
 Maximum Displacement     0.102778     0.001800     NO 
 RMS     Displacement     0.030613     0.001200     NO 
 Predicted change in Energy=-7.883235D-03
 GradGradGradGradGradGradGradGradGradGradGradGradGradGradGradGradGradGrad

                          Input orientation:                          
 ---------------------------------------------------------------------
 Center     Atomic      Atomic             Coordinates (Angstroms)
 Number     Number       Type             X           Y           Z
 ---------------------------------------------------------------------
      1          6           0       -2.190174    0.705437    0.020081
      2          6           0       -2.164433   -0.738933   -0.009444
      3          6           0       -0.944869   -1.456221   -0.004500
      4          6           0        0.253752   -0.683672    0.003983
      5          6           0        0.255374    0.778655   -0.003696
      6          6           0       -0.982950    1.475697   -0.014572
      7          7           0        1.586865   -1.095387    0.007259
      8          6           0        1.629618    1.181112   -0.002742
      9          6           0        2.423214    0.022301    0.001892
     10          1           0        1.903621   -2.060181    0.010759
     11          1           0        2.002864    2.204315   -0.009459
     12          1           0        3.505837   -0.093928    0.000151
     13          1           0       -3.108973   -1.291589   -0.026577
     14          1           0       -0.923061   -2.550343   -0.019200
     15          1           0       -3.155548    1.217330    0.077370
     16          1           0       -1.007486    2.569488   -0.038314
 ---------------------------------------------------------------------
                    Distance matrix (angstroms):
                    1          2          3          4          5
     1  C    0.000000
     2  C    1.444901   0.000000
     3  C    2.494826   1.414873   0.000000
     4  C    2.811166   2.418854   1.426043   0.000000
     5  C    2.446759   2.856321   2.536781   1.462348   0.000000
     6  C    1.432442   2.510082   2.932183   2.488504   1.421067
     7  N    4.184394   3.768233   2.557346   1.395245   2.298918
     8  C    3.849363   4.252228   3.685582   2.317427   1.431964
     9  C    4.663727   4.650389   3.678322   2.281440   2.296004
    10  H    4.940434   4.277285   2.911854   2.148695   3.282669
    11  H    4.452984   5.101869   4.699860   3.376394   2.255274
    12  H    5.751862   5.706845   4.654530   3.305127   3.365550
    13  H    2.198746   1.094476   2.170469   3.417370   3.950350
    14  H    3.493884   2.195976   1.094438   2.206782   3.531455
    15  H    1.094195   2.194723   3.470112   3.904167   3.439970
    16  H    2.208358   3.504997   4.026338   3.489349   2.191597
                    6          7          8          9         10
     6  C    0.000000
     7  N    3.635230   0.000000
     8  C    2.629150   2.276922   0.000000
     9  C    3.703321   1.395971   1.404514   0.000000
    10  H    4.564577   1.015467   3.252882   2.146343   0.000000
    11  H    3.073434   3.325863   1.089175   2.222163   4.265699
    12  H    4.755328   2.164584   2.268465   1.088845   2.536407
    13  H    3.489698   4.700057   5.345003   5.686142   5.071314
    14  H    4.026488   2.901262   4.521083   4.220960   2.869022
    15  H    2.189837   5.276746   4.785973   5.705819   6.028408
    16  H    1.094324   4.490439   2.980465   4.273112   5.469076
                   11         12         13         14         15
    11  H    0.000000
    12  H    2.746077   0.000000
    13  H    6.192941   6.722411   0.000000
    14  H    5.582822   5.064532   2.522445   0.000000
    15  H    5.252703   6.789654   2.511503   4.380489   0.000000
    16  H    3.032555   5.240739   4.395941   5.120563   2.540843
                   16
    16  H    0.000000
 Stoichiometry    C8H7N
 Framework group  C1[X(C8H7N)]
 Deg. of freedom    42
 Full point group                 C1      NOp   1
 Largest Abelian subgroup         C1      NOp   1
 Largest concise Abelian subgroup C1      NOp   1
                         Standard orientation:                         
 ---------------------------------------------------------------------
 Center     Atomic      Atomic             Coordinates (Angstroms)
 Number     Number       Type             X           Y           Z
 ---------------------------------------------------------------------
      1          6           0       -2.191368    0.701307    0.019899
      2          6           0       -2.163260   -0.743006   -0.010252
      3          6           0       -0.942527   -1.458304   -0.005272
      4          6           0        0.254828   -0.683801    0.003892
      5          6           0        0.254063    0.778530   -0.003146
      6          6           0       -0.985395    1.473553   -0.014071
      7          7           0        1.588611   -1.093339    0.007369
      8          6           0        1.627648    1.183231   -0.001622
      9          6           0        2.423134    0.025716    0.002732
     10          1           0        1.906941   -2.057616    0.010538
     11          1           0        1.999223    2.207045   -0.007784
     12          1           0        3.505946   -0.088744    0.001249
     13          1           0       -3.106891   -1.297197   -0.027897
     14          1           0       -0.918927   -2.552382   -0.020446
     15          1           0       -3.157593    1.211597    0.077136
     16          1           0       -1.011711    2.567313   -0.037341
 ---------------------------------------------------------------------
 Rotational constants (GHZ):           3.7127250           1.5943034           1.1154448
 Standard basis: 6-31G(d) (6D, 7F)
 There are   149 symmetry adapted cartesian basis functions of A   symmetry.
 There are   149 symmetry adapted basis functions of A   symmetry.
   149 basis functions,   280 primitive gaussians,   149 cartesian basis functions
    31 alpha electrons       31 beta electrons
       nuclear repulsion energy       393.7619452617 Hartrees.
 NAtoms=   16 NActive=   16 NUniq=   16 SFac= 1.00D+00 NAtFMM=   60 NAOKFM=F Big=F
 Integral buffers will be    131072 words long.
 Regular integral format.
 Two-electron integral symmetry is turned on.
 One-electron integrals computed using PRISM.
 NBasis=   149 RedAO= T EigKep=  5.06D-04  NBF=   149
 NBsUse=   149 1.00D-06 EigRej= -1.00D+00 NBFU=   149
 Initial guess from the checkpoint file:  "FuncsBVP862nd.chk"
 B after Tr=     0.000000    0.000000   -0.000000
         Rot=    1.000000   -0.000014    0.000007   -0.000687 Ang=  -0.08 deg.
 ExpMin= 1.61D-01 ExpMax= 4.17D+03 ExpMxC= 6.27D+02 IAcc=3 IRadAn=         5 AccDes= 0.00D+00
 Harris functional with IExCor=  418 and IRadAn=       5 diagonalized for initial guess.
 HarFok:  IExCor=  418 AccDes= 0.00D+00 IRadAn=         5 IDoV= 1 UseB2=F ITyADJ=14
 ICtDFT=  3500011 ScaDFX=  1.000000  1.000000  1.000000  1.000000
 FoFCou: FMM=F IPFlag=           0 FMFlag=      100000 FMFlg1=           0
         NFxFlg=           0 DoJE=T BraDBF=F KetDBF=T FulRan=T
         wScrn=  0.000000 ICntrl=       500 IOpCl=  0 I1Cent=   200000004 NGrid=           0
         NMat0=    1 NMatS0=      1 NMatT0=    0 NMatD0=    1 NMtDS0=    0 NMtDT0=    0
 Petite list used in FoFCou.
 Keep J ints in memory in canonical form, NReq=64400683.
 Requested convergence on RMS density matrix=1.00D-08 within 128 cycles.
 Requested convergence on MAX density matrix=1.00D-06.
 Requested convergence on             energy=1.00D-06.
 No special actions if energy rises.
 Integral accuracy reduced to 1.0D-05 until final iterations.
 Initial convergence to 1.0D-05 achieved.  Increase integral accuracy.
 SCF Done:  E(RB-VP86) =  -363.830417737     A.U. after   13 cycles
            NFock= 13  Conv=0.98D-08     -V/T= 2.0120
 DoSCS=F DFT=T ScalE2(SS,OS)=  1.000000  1.000000
 ExpMin= 1.61D-01 ExpMax= 4.17D+03 ExpMxC= 6.27D+02 IAcc=3 IRadAn=         5 AccDes= 0.00D+00
 HarFok:  IExCor=  205 AccDes= 0.00D+00 IRadAn=         5 IDoV=-2 UseB2=F ITyADJ=14
 ICtDFT= 12500011 ScaDFX=  1.000000  1.000000  1.000000  1.000000
 Range of M.O.s used for correlation:    10   149
 NBasis=   149 NAE=    31 NBE=    31 NFC=     9 NFV=     0
 NROrb=    140 NOA=    22 NOB=    22 NVA=   118 NVB=   118
 Keep J ints in memory in canonical form, NReq=66017397.
 Orbital symmetries:
       Occupied  (A) (A) (A) (A) (A) (A) (A) (A) (A) (A) (A) (A)
                 (A) (A) (A) (A) (A) (A) (A) (A) (A) (A) (A) (A)
                 (A) (A) (A) (A) (A) (A) (A)
       Virtual   (A) (A) (A) (A) (A) (A) (A) (A) (A) (A) (A) (A)
                 (A) (A) (A) (A) (A) (A) (A) (A) (A) (A) (A) (A)
                 (A) (A) (A) (A) (A) (A) (A) (A) (A) (A) (A) (A)
                 (A) (A) (A) (A) (A) (A) (A) (A) (A) (A) (A) (A)
                 (A) (A) (A) (A) (A) (A) (A) (A) (A) (A) (A) (A)
                 (A) (A) (A) (A) (A) (A) (A) (A) (A) (A) (A) (A)
                 (A) (A) (A) (A) (A) (A) (A) (A) (A) (A) (A) (A)
                 (A) (A) (A) (A) (A) (A) (A) (A) (A) (A) (A) (A)
                 (A) (A) (A) (A) (A) (A) (A) (A) (A) (A) (A) (A)
                 (A) (A) (A) (A) (A) (A) (A) (A) (A) (A)
 Generating guess from densities on rwf.
 Convergence on wavefunction:    0.000001000000000
 Iteration     1 Dimension     6 NMult     0 NNew      6
 CISAX will form     6 AO SS matrices at one time.
 New state      5 was old state      6
 New state      6 was old state      5
 Iteration     2 Dimension    12 NMult     6 NNew      6
 Iteration     3 Dimension    18 NMult    12 NNew      6
 Iteration     4 Dimension    24 NMult    18 NNew      6
 Iteration     5 Dimension    30 NMult    24 NNew      6
 Iteration     6 Dimension    36 NMult    30 NNew      6
 Iteration     7 Dimension    42 NMult    36 NNew      6
 Iteration     8 Dimension    48 NMult    42 NNew      6
 Iteration     9 Dimension    54 NMult    48 NNew      6
 Iteration    10 Dimension    60 NMult    54 NNew      6
 Iteration    11 Dimension    66 NMult    60 NNew      6
 Iteration    12 Dimension    72 NMult    66 NNew      6
 Iteration    13 Dimension    78 NMult    72 NNew      6
 Iteration    14 Dimension    84 NMult    78 NNew      6
 Iteration    15 Dimension    90 NMult    84 NNew      6
 Iteration    16 Dimension    96 NMult    90 NNew      6
 Iteration    17 Dimension   101 NMult    96 NNew      5
 Iteration    18 Dimension   105 NMult   101 NNew      4
 Iteration    19 Dimension   107 NMult   105 NNew      2
 ***********************************************************************
 Excited states from <AA,BB:AA,BB> singles matrix:
 ***********************************************************************
 
 Ground to excited state transition densities written to RWF  633
 Ground to excited state transition electric dipole moments (Au):
       state          X           Y           Z        Dip. S.      Osc.
         1        -0.4362      0.5399     -0.0067      0.4819      0.0513
         2        -0.3104     -0.1534      0.0001      0.1199      0.0132
         3         1.0009      0.2123      0.0041      1.0468      0.1437
         4        -1.2899     -0.6109      0.0005      2.0371      0.2918
         5         1.0458     -0.5130     -0.0048      1.3570      0.2034
         6         0.0449      0.0050      0.0137      0.0022      0.0003
 Ground to excited state transition velocity dipole moments (Au):
       state          X           Y           Z        Dip. S.      Osc.
         1         0.0631     -0.0963      0.0017      0.0132      0.0553
         2         0.0492      0.0268     -0.0002      0.0031      0.0127
         3        -0.2040     -0.0454     -0.0011      0.0437      0.1414
         4         0.2692      0.1336     -0.0007      0.0903      0.2803
         5        -0.2349      0.1161      0.0023      0.0687      0.2036
         6        -0.0099     -0.0009     -0.0138      0.0003      0.0008
 Ground to excited state transition magnetic dipole moments (Au):
       state          X           Y           Z
         1         0.0016      0.0016      0.0956
         2         0.0005     -0.0013      0.0176
         3         0.0021      0.0001      0.3587
         4         0.0015      0.0008     -0.1758
         5        -0.0034      0.0034      0.1475
         6         0.1796     -0.0173      0.0143
 Ground to excited state transition velocity quadrupole moments (Au):
       state          XX          YY          ZZ          XY          XZ          YZ
         1         0.1355     -0.1007     -0.0043      0.0066     -0.0038      0.0027
         2         0.0291     -0.0889      0.0069      0.0225      0.0020      0.0029
         3        -0.1818      0.0959      0.0009      0.2155      0.0041      0.0003
         4         0.0264      0.0025     -0.0095     -0.1216      0.0007     -0.0018
         5         0.3838      0.0229      0.0326     -0.0531     -0.0072      0.0001
         6         0.0008     -0.0015     -0.0001      0.0085     -0.0412      0.0966
 <0|del|b> * <b|rxdel|0> + <0|del|b> * <b|delr+rdel|0>
 Rotatory Strengths (R) in cgs (10**-40 erg-esu-cm/Gauss)
       state          XX          YY          ZZ    R(velocity)    E-M Angle
         1        -0.7543      0.9381      0.3120      0.1653       89.42
         2        -0.2051      0.3643     -0.2031     -0.0146       90.00
         3        -0.7686     -1.1098     -0.9439     -0.9408       90.63
         4         0.3824     -0.0430      1.8010      0.7135       89.29
         5         2.2829      1.9711      0.5841      1.6127       87.72
         6        -0.5204     -4.3614     -1.1886     -2.0235      129.68
 1/2[<0|r|b>*<b|rxdel|0> + (<0|rxdel|b>*<b|r|0>)*]
 Rotatory Strengths (R) in cgs (10**-40 erg-esu-cm/Gauss)
       state          XX          YY          ZZ     R(length)
         1         0.5023     -0.6030      0.4515      0.1169
         2         0.1201     -0.1366     -0.0016     -0.0060
         3        -1.4682     -0.0150     -1.0385     -0.8405
         4         1.3951      0.3594      0.0568      0.6038
         5         2.5323      1.2207      0.4970      1.4167
         6        -5.7023      0.0616     -0.1394     -1.9267
  1/2[<0|del|b>*<b|r|0> + (<0|r|b>*<b|del|0>)*] (Au)
       state          X           Y           Z        Dip. S.   Osc.(frdel)
         1        -0.0275     -0.0520     -0.0000      0.0795      0.0530
         2        -0.0153     -0.0041     -0.0000      0.0194      0.0129
         3        -0.2042     -0.0096     -0.0000      0.2138      0.1425
         4        -0.3473     -0.0816     -0.0000      0.4289      0.2859
         5        -0.2457     -0.0596     -0.0000      0.3053      0.2035
         6        -0.0004     -0.0000     -0.0002      0.0006      0.0004

 Excitation energies and oscillator strengths:
 
 Excited State   1:      Singlet-A      4.3460 eV  285.29 nm  f=0.0513  <S**2>=0.000
      29 -> 32         0.13832
      30 -> 33         0.12948
      31 -> 32         0.65762
 
 Excited State   2:      Singlet-A      4.4861 eV  276.38 nm  f=0.0132  <S**2>=0.000
      30 -> 32         0.54497
      31 -> 33        -0.44516
 This state for optimization and/or second-order correction.
 Total Energy, E(TD-HF/TD-DFT) =  -363.665558071    
 Copying the excited state density for this state as the 1-particle RhoCI density.
 
 Excited State   3:      Singlet-A      5.6038 eV  221.25 nm  f=0.1437  <S**2>=0.000
      29 -> 32         0.39989
      30 -> 32        -0.23763
      30 -> 33        -0.28297
      31 -> 32        -0.11055
      31 -> 33        -0.31911
      31 -> 34         0.27074
 
 Excited State   4:      Singlet-A      5.8461 eV  212.08 nm  f=0.2918  <S**2>=0.000
      29 -> 32         0.30478
      29 -> 33         0.23452
      30 -> 32         0.29386
      31 -> 33         0.36490
      31 -> 34         0.34542
 
 Excited State   5:      Singlet-A      6.1185 eV  202.64 nm  f=0.2034  <S**2>=0.000
      28 -> 32         0.10430
      29 -> 34        -0.12461
      30 -> 32        -0.11458
      30 -> 33         0.55555
      30 -> 34        -0.28537
      31 -> 32        -0.13326
      31 -> 33        -0.13389
      31 -> 34         0.13198
 
 Excited State   6:      Singlet-A      6.2264 eV  199.13 nm  f=0.0003  <S**2>=0.000
      31 -> 35         0.70426
 SavETr:  write IOETrn=   770 NScale= 10 NData=  16 NLR=1 NState=    6 LETran=     118.
          IDoAtm=1111111111111111
          Differentiating once with respect to electric field.
                with respect to dipole field.
          Differentiating once with respect to nuclear coordinates.
 Keep J ints in memory in canonical form, NReq=64412969.
          There are     1 degrees of freedom in the 1st order CPHF.  IDoFFX=0 NUNeed=     1.
 LinEq1:  Iter=  0 NonCon=     1 RMS=6.71D-03 Max=1.78D-01 NDo=     1
 AX will form     1 AO Fock derivatives at one time.
 LinEq1:  Iter=  1 NonCon=     1 RMS=3.86D-03 Max=1.07D-01 NDo=     1
 LinEq1:  Iter=  2 NonCon=     1 RMS=4.67D-03 Max=1.40D-01 NDo=     1
 LinEq1:  Iter=  3 NonCon=     1 RMS=2.19D-03 Max=5.58D-02 NDo=     1
 LinEq1:  Iter=  4 NonCon=     1 RMS=2.17D-03 Max=6.66D-02 NDo=     1
 LinEq1:  Iter=  5 NonCon=     1 RMS=1.10D-03 Max=1.97D-02 NDo=     1
 LinEq1:  Iter=  6 NonCon=     1 RMS=8.79D-04 Max=1.82D-02 NDo=     1
 LinEq1:  Iter=  7 NonCon=     1 RMS=5.10D-04 Max=7.43D-03 NDo=     1
 LinEq1:  Iter=  8 NonCon=     1 RMS=2.43D-04 Max=3.96D-03 NDo=     1
 LinEq1:  Iter=  9 NonCon=     1 RMS=1.60D-04 Max=2.06D-03 NDo=     1
 LinEq1:  Iter= 10 NonCon=     1 RMS=5.60D-05 Max=9.47D-04 NDo=     1
 LinEq1:  Iter= 11 NonCon=     1 RMS=5.25D-05 Max=1.34D-03 NDo=     1
 LinEq1:  Iter= 12 NonCon=     1 RMS=2.65D-05 Max=4.59D-04 NDo=     1
 LinEq1:  Iter= 13 NonCon=     1 RMS=2.34D-05 Max=3.95D-04 NDo=     1
 LinEq1:  Iter= 14 NonCon=     1 RMS=6.55D-06 Max=6.23D-05 NDo=     1
 LinEq1:  Iter= 15 NonCon=     1 RMS=1.21D-06 Max=1.69D-05 NDo=     1
 LinEq1:  Iter= 16 NonCon=     1 RMS=9.81D-07 Max=1.68D-05 NDo=     1
 LinEq1:  Iter= 17 NonCon=     1 RMS=2.60D-07 Max=2.08D-06 NDo=     1
 LinEq1:  Iter= 18 NonCon=     1 RMS=5.08D-08 Max=4.81D-07 NDo=     1
 LinEq1:  Iter= 19 NonCon=     1 RMS=1.73D-08 Max=1.64D-07 NDo=     1
 LinEq1:  Iter= 20 NonCon=     1 RMS=3.92D-09 Max=4.34D-08 NDo=     1
 LinEq1:  Iter= 21 NonCon=     1 RMS=6.73D-10 Max=7.83D-09 NDo=     1
 LinEq1:  Iter= 22 NonCon=     1 RMS=1.41D-10 Max=1.42D-09 NDo=     1
 LinEq1:  Iter= 23 NonCon=     0 RMS=2.32D-11 Max=1.68D-10 NDo=     1
 Linear equations converged to 1.000D-10 1.000D-09 after    23 iterations.
 End of Minotr F.D. properties file   721 does not exist.
 End of Minotr F.D. properties file   722 does not exist.
 End of Minotr F.D. properties file   788 does not exist.
 Calling FoFJK, ICntrl=  10005527 FMM=F ISym2X=0 I1Cent= 0 IOpClX= 0 NMat=1 NMatS=1 NMatT=0.
 ***** Axes restored to original set *****
 -------------------------------------------------------------------
 Center     Atomic                   Forces (Hartrees/Bohr)
 Number     Number              X              Y              Z
 -------------------------------------------------------------------
      1        6          -0.002013532   -0.001684201   -0.000892425
      2        6          -0.001396010   -0.001465373    0.000998453
      3        6           0.003492855    0.001529758   -0.000529333
      4        6          -0.002935006   -0.007893417    0.000222211
      5        6           0.004026172    0.004660269   -0.000606913
      6        6           0.005691789    0.000536161    0.000769631
      7        7          -0.007573107    0.002055995    0.000005208
      8        6          -0.005629228   -0.001047329   -0.000279163
      9        6           0.006716276    0.002841199    0.000064346
     10        1          -0.000375438   -0.000233465   -0.000040515
     11        1           0.000712141    0.000027722    0.000066441
     12        1          -0.000636497    0.000262903    0.000033277
     13        1           0.000239396    0.000842831    0.000315326
     14        1          -0.000119368    0.000564737    0.000002803
     15        1           0.000368525   -0.000161749   -0.000645839
     16        1          -0.000568969   -0.000836040    0.000516491
 -------------------------------------------------------------------
 Cartesian Forces:  Max     0.007893417 RMS     0.002590141

 GradGradGradGradGradGradGradGradGradGradGradGradGradGradGradGradGradGrad
 Berny optimization.
 Using GEDIIS/GDIIS optimizer.
 FormGI is forming the generalized inverse of G from B-inverse, IUseBI=4.
 Internal  Forces:  Max     0.004480986 RMS     0.001256959
 Search for a local minimum.
 Step number   2 out of a maximum of   94
 All quantities printed in internal units (Hartrees-Bohrs-Radians)
 Mixed Optimization -- RFO/linear search
 Update second derivatives using D2CorX and points    1    2
 DE= -7.53D-03 DEPred=-7.88D-03 R= 9.56D-01
 TightC=F SS=  1.41D+00  RLast= 1.91D-01 DXNew= 5.0454D-01 5.7178D-01
 Trust test= 9.56D-01 RLast= 1.91D-01 DXMaxT set to 5.05D-01
 ITU=  1  0
 Use linear search instead of GDIIS.
     Eigenvalues ---    0.01796   0.01878   0.01936   0.01956   0.02015
     Eigenvalues ---    0.02075   0.02091   0.02103   0.02132   0.02147
     Eigenvalues ---    0.02169   0.02191   0.02278   0.15993   0.15999
     Eigenvalues ---    0.15999   0.16000   0.16000   0.16000   0.16015
     Eigenvalues ---    0.21722   0.22026   0.22758   0.24058   0.24645
     Eigenvalues ---    0.34296   0.34783   0.34845   0.34887   0.35814
     Eigenvalues ---    0.35924   0.36778   0.37468   0.41723   0.42230
     Eigenvalues ---    0.44905   0.45976   0.46331   0.46443   0.46824
     Eigenvalues ---    0.48083   0.54069
 RFO step:  Lambda=-4.69062370D-04 EMin= 1.79617559D-02
 Quartic linear search produced a step of  0.01915.
 Iteration  1 RMS(Cart)=  0.00802261 RMS(Int)=  0.00005037
 Iteration  2 RMS(Cart)=  0.00006039 RMS(Int)=  0.00002725
 Iteration  3 RMS(Cart)=  0.00000000 RMS(Int)=  0.00002725
 Variable       Old X    -DE/DX   Delta X   Delta X   Delta X     New X
                                 (Linear)    (Quad)   (Total)
    R1        2.73047  -0.00027   0.00139   0.00032   0.00169   2.73216
    R2        2.70692   0.00287   0.00161   0.00712   0.00871   2.71563
    R3        2.06773  -0.00043  -0.00001  -0.00129  -0.00130   2.06642
    R4        2.67372  -0.00010   0.00098   0.00030   0.00128   2.67501
    R5        2.06826  -0.00064   0.00017  -0.00178  -0.00160   2.06666
    R6        2.69483  -0.00316   0.00094  -0.00685  -0.00589   2.68894
    R7        2.06819  -0.00057   0.00017  -0.00157  -0.00140   2.06678
    R8        2.76344   0.00284   0.00141   0.00675   0.00817   2.77161
    R9        2.63663  -0.00414   0.00058  -0.00841  -0.00783   2.62881
   R10        2.68543  -0.00331   0.00057  -0.00729  -0.00672   2.67870
   R11        2.70602  -0.00347  -0.00018  -0.00906  -0.00925   2.69677
   R12        2.06797  -0.00083   0.00014  -0.00237  -0.00222   2.06575
   R13        2.63800   0.00448   0.00045   0.00999   0.01045   2.64846
   R14        1.91896   0.00010   0.00029   0.00037   0.00066   1.91961
   R15        2.65415  -0.00018   0.00127   0.00060   0.00188   2.65602
   R16        2.05824   0.00027   0.00029   0.00091   0.00119   2.05943
   R17        2.05762  -0.00066   0.00029  -0.00173  -0.00145   2.05617
    A1        2.12001   0.00069   0.00019   0.00431   0.00439   2.12441
    A2        2.07652  -0.00031  -0.00008  -0.00197  -0.00202   2.07450
    A3        2.08663  -0.00038  -0.00011  -0.00240  -0.00248   2.08414
    A4        2.12006  -0.00115   0.00003  -0.00469  -0.00475   2.11532
    A5        2.08255  -0.00006   0.00006  -0.00159  -0.00151   2.08105
    A6        2.08052   0.00121  -0.00009   0.00636   0.00630   2.08682
    A7        2.03742   0.00002  -0.00023  -0.00048  -0.00075   2.03667
    A8        2.12227  -0.00012   0.00009  -0.00047  -0.00037   2.12190
    A9        2.12342   0.00010   0.00015   0.00100   0.00116   2.12457
   A10        2.14437   0.00204   0.00020   0.00808   0.00827   2.15264
   A11        2.26953   0.00055  -0.00016   0.00332   0.00317   2.27269
   A12        1.86924  -0.00259  -0.00003  -0.01138  -0.01142   1.85782
   A13        2.08240  -0.00174   0.00025  -0.00688  -0.00666   2.07574
   A14        1.85679   0.00223  -0.00015   0.00799   0.00783   1.86462
   A15        2.34399  -0.00049  -0.00010  -0.00110  -0.00117   2.34283
   A16        2.06060   0.00017  -0.00040   0.00105   0.00056   2.06117
   A17        2.11658  -0.00070   0.00026  -0.00435  -0.00406   2.11252
   A18        2.10595   0.00053   0.00014   0.00338   0.00354   2.10949
   A19        1.91364   0.00243   0.00010   0.01143   0.01155   1.92519
   A20        2.18757  -0.00163  -0.00003  -0.00832  -0.00835   2.17922
   A21        2.18197  -0.00080  -0.00008  -0.00311  -0.00320   2.17877
   A22        1.88638   0.00029   0.00031   0.00175   0.00205   1.88843
   A23        2.20545   0.00053  -0.00016   0.00344   0.00328   2.20873
   A24        2.19134  -0.00082  -0.00015  -0.00518  -0.00532   2.18602
   A25        1.89872  -0.00236  -0.00023  -0.00979  -0.01001   1.88871
   A26        2.10625   0.00138   0.00013   0.00616   0.00628   2.11254
   A27        2.27821   0.00098   0.00011   0.00363   0.00373   2.28194
    D1        0.05750  -0.00057  -0.00053  -0.02688  -0.02739   0.03011
    D2       -3.09423  -0.00036  -0.00025  -0.01770  -0.01798  -3.11221
    D3       -3.07642  -0.00038  -0.00023  -0.01716  -0.01733  -3.09375
    D4        0.05504  -0.00017   0.00005  -0.00798  -0.00792   0.04712
    D5       -0.06036   0.00056   0.00055   0.02785   0.02844  -0.03192
    D6        3.09211   0.00040   0.00038   0.01996   0.02040   3.11252
    D7        3.07351   0.00036   0.00025   0.01807   0.01833   3.09185
    D8       -0.05720   0.00021   0.00008   0.01018   0.01029  -0.04690
    D9       -0.02120   0.00024   0.00026   0.01159   0.01183  -0.00937
   D10        3.13341   0.00017   0.00025   0.00804   0.00827  -3.14151
   D11        3.13051   0.00004  -0.00002   0.00247   0.00244   3.13295
   D12        0.00194  -0.00003  -0.00003  -0.00108  -0.00113   0.00081
   D13       -0.00918   0.00002  -0.00002   0.00108   0.00104  -0.00814
   D14       -3.13874  -0.00002   0.00001  -0.00126  -0.00127  -3.14001
   D15        3.11938   0.00009  -0.00001   0.00462   0.00459   3.12398
   D16       -0.01018   0.00005   0.00002   0.00228   0.00229  -0.00789
   D17        0.00465   0.00001   0.00004   0.00092   0.00097   0.00561
   D18       -3.13336  -0.00006  -0.00010  -0.00256  -0.00263  -3.13599
   D19        3.13660   0.00006   0.00002   0.00285   0.00286   3.13947
   D20       -0.00140  -0.00001  -0.00012  -0.00062  -0.00074  -0.00214
   D21        3.13088   0.00008  -0.00000   0.00355   0.00352   3.13439
   D22       -0.00836   0.00005   0.00001   0.00215   0.00214  -0.00622
   D23       -0.00015   0.00003   0.00002   0.00140   0.00141   0.00127
   D24       -3.13938  -0.00001   0.00003   0.00000   0.00004  -3.13934
   D25        0.02978  -0.00033  -0.00030  -0.01523  -0.01548   0.01430
   D26       -3.12263  -0.00018  -0.00014  -0.00744  -0.00751  -3.13014
   D27       -3.11663  -0.00023  -0.00011  -0.01055  -0.01065  -3.12728
   D28        0.01415  -0.00008   0.00005  -0.00277  -0.00268   0.01147
   D29        0.00242  -0.00000   0.00019  -0.00036  -0.00018   0.00223
   D30        3.13911   0.00006   0.00014   0.00293   0.00307  -3.14100
   D31       -3.13480  -0.00009   0.00001  -0.00458  -0.00457  -3.13938
   D32        0.00189  -0.00002  -0.00004  -0.00129  -0.00132   0.00057
   D33        0.00169  -0.00003   0.00010  -0.00167  -0.00158   0.00011
   D34       -3.13815  -0.00004  -0.00001  -0.00207  -0.00208  -3.14023
   D35        3.14093  -0.00000   0.00009  -0.00029  -0.00021   3.14072
   D36        0.00110  -0.00001  -0.00002  -0.00069  -0.00072   0.00038
   D37       -0.00256   0.00003  -0.00018   0.00125   0.00107  -0.00149
   D38        3.13704   0.00004  -0.00005   0.00171   0.00164   3.13869
   D39       -3.13931  -0.00004  -0.00013  -0.00204  -0.00216  -3.14147
   D40        0.00030  -0.00003  -0.00000  -0.00159  -0.00159  -0.00129
         Item               Value     Threshold  Converged?
 Maximum Force            0.004481     0.000450     NO 
 RMS     Force            0.001257     0.000300     NO 
 Maximum Displacement     0.042293     0.001800     NO 
 RMS     Displacement     0.008024     0.001200     NO 
 Predicted change in Energy=-2.353457D-04
 GradGradGradGradGradGradGradGradGradGradGradGradGradGradGradGradGradGrad

                          Input orientation:                          
 ---------------------------------------------------------------------
 Center     Atomic      Atomic             Coordinates (Angstroms)
 Number     Number       Type             X           Y           Z
 ---------------------------------------------------------------------
      1          6           0       -2.187008    0.702031    0.010965
      2          6           0       -2.166716   -0.743544   -0.004170
      3          6           0       -0.945749   -1.459800   -0.002608
      4          6           0        0.248824   -0.686696    0.002591
      5          6           0        0.259797    0.779922   -0.003700
      6          6           0       -0.975644    1.474901   -0.008605
[...]
 ! D1    D(6,1,2,3)              0.002          -DE/DX =    0.0                 !
 ! D2    D(6,1,2,13)           179.9964         -DE/DX =    0.0                 !
 ! D3    D(15,1,2,3)           179.9884         -DE/DX =    0.0                 !
 ! D4    D(15,1,2,13)           -0.0171         -DE/DX =    0.0                 !
 ! D5    D(2,1,6,5)             -0.0013         -DE/DX =    0.0                 !
 ! D6    D(2,1,6,16)           179.9937         -DE/DX =    0.0                 !
 ! D7    D(15,1,6,5)          -179.9877         -DE/DX =    0.0                 !
 ! D8    D(15,1,6,16)            0.0073         -DE/DX =    0.0                 !
 ! D9    D(1,2,3,4)             -0.0021         -DE/DX =    0.0                 !
 ! D10   D(1,2,3,14)          -179.9822         -DE/DX =    0.0                 !
 ! D11   D(13,2,3,4)          -179.9965         -DE/DX =    0.0                 !
 ! D12   D(13,2,3,14)            0.0234         -DE/DX =    0.0                 !
 ! D13   D(2,3,4,5)              0.0017         -DE/DX =    0.0                 !
 ! D14   D(2,3,4,7)            179.9786         -DE/DX =    0.0                 !
 ! D15   D(14,3,4,5)           179.9818         -DE/DX =    0.0                 !
 ! D16   D(14,3,4,7)            -0.0413         -DE/DX =    0.0                 !
 ! D17   D(3,4,5,6)             -0.0012         -DE/DX =    0.0                 !
 ! D18   D(3,4,5,8)            179.9864         -DE/DX =    0.0                 !
 ! D19   D(7,4,5,6)           -179.9827         -DE/DX =    0.0                 !
 ! D20   D(7,4,5,8)              0.0049         -DE/DX =    0.0                 !
 ! D21   D(3,4,7,9)           -179.9819         -DE/DX =    0.0                 !
 ! D22   D(3,4,7,10)             0.0192         -DE/DX =    0.0                 !
 ! D23   D(5,4,7,9)             -0.0021         -DE/DX =    0.0                 !
 ! D24   D(5,4,7,10)           179.999          -DE/DX =    0.0                 !
 ! D25   D(4,5,6,1)              0.0009         -DE/DX =    0.0                 !
 ! D26   D(4,5,6,16)          -179.9941         -DE/DX =    0.0                 !
 ! D27   D(8,5,6,1)           -179.9824         -DE/DX =    0.0                 !
 ! D28   D(8,5,6,16)             0.0226         -DE/DX =    0.0                 !
 ! D29   D(4,5,8,9)             -0.0058         -DE/DX =    0.0                 !
 ! D30   D(4,5,8,11)          -180.0049         -DE/DX =    0.0                 !
 ! D31   D(6,5,8,9)            179.979          -DE/DX =    0.0                 !
 ! D32   D(6,5,8,11)            -0.0201         -DE/DX =    0.0                 !
 ! D33   D(4,7,9,8)             -0.0015         -DE/DX =    0.0                 !
 ! D34   D(4,7,9,12)          -179.9698         -DE/DX =    0.0                 !
 ! D35   D(10,7,9,8)          -180.0026         -DE/DX =    0.0                 !
 ! D36   D(10,7,9,12)            0.0291         -DE/DX =    0.0                 !
 ! D37   D(5,8,9,7)              0.0046         -DE/DX =    0.0                 !
 ! D38   D(5,8,9,12)           179.9687         -DE/DX =    0.0                 !
 ! D39   D(11,8,9,7)           180.0037         -DE/DX =    0.0                 !
 ! D40   D(11,8,9,12)           -0.0322         -DE/DX =    0.0                 !
 --------------------------------------------------------------------------------
 GradGradGradGradGradGradGradGradGradGradGradGradGradGradGradGradGradGrad

                          Input orientation:                          
 ---------------------------------------------------------------------
 Center     Atomic      Atomic             Coordinates (Angstroms)
 Number     Number       Type             X           Y           Z
 ---------------------------------------------------------------------
      1          6           0       -2.186810    0.701903    0.003426
      2          6           0       -2.162818   -0.742147    0.002269
      3          6           0       -0.943777   -1.458582   -0.000242
      4          6           0        0.249999   -0.685786   -0.001606
      5          6           0        0.259146    0.782332   -0.000493
      6          6           0       -0.976076    1.476776    0.002040
      7          7           0        1.580961   -1.091486   -0.003669
      8          6           0        1.625382    1.181969   -0.002102
      9          6           0        2.425877    0.023478   -0.003976
     10          1           0        1.894674   -2.057676   -0.004808
     11          1           0        2.004591    2.203653   -0.001925
     12          1           0        3.507156   -0.093670   -0.005989
     13          1           0       -3.109905   -1.288891    0.003459
     14          1           0       -0.921648   -2.551913   -0.001413
     15          1           0       -3.152413    1.214919    0.005179
     16          1           0       -1.010689    2.569203    0.002839
 ---------------------------------------------------------------------
                    Distance matrix (angstroms):
                    1          2          3          4          5
     1  C    0.000000
     2  C    1.444250   0.000000
     3  C    2.492557   1.413982   0.000000
     4  C    2.804237   2.413478   1.422081   0.000000
     5  C    2.447281   2.861810   2.543367   1.468147   0.000000
     6  C    1.437465   2.516342   2.935536   2.485950   1.417050
     7  N    4.172817   3.760048   2.551289   1.391423   2.293120
     8  C    3.842305   4.248847   3.684167   2.319523   1.423487
     9  C    4.662317   4.652133   3.681179   2.288560   2.295778
    10  H    4.926851   4.265432   2.900990   2.141740   3.277288
    11  H    4.452316   5.103435   4.701578   3.380451   2.250940
    12  H    5.749285   5.706943   4.655516   3.310543   3.364072
    13  H    2.194394   1.093574   2.172767   3.413607   3.954805
    14  H    3.491129   2.194486   1.093556   2.203449   3.537155
    15  H    1.093424   2.193037   3.467810   3.897323   3.438880
    16  H    2.206823   3.506058   4.028341   3.490603   2.192122
                    6          7          8          9         10
     6  C    0.000000
     7  N    3.624147   0.000000
     8  C    2.618113   2.273889   0.000000
     9  C    3.699377   1.398937   1.408153   0.000000
    10  H    4.553416   1.015844   3.250819   2.147877   0.000000
    11  H    3.068019   3.322259   1.089788   2.220507   4.262747
    12  H    4.750341   2.169302   2.273399   1.087609   2.541145
    13  H    3.493156   4.695024   5.341173   5.689222   5.063290
    14  H    4.029058   2.897569   4.519872   4.223573   2.859362
    15  H    2.192036   5.265398   4.777914   5.704115   6.015236
    16  H    1.092976   4.485235   2.978811   4.276768   5.463442
                   11         12         13         14         15
    11  H    0.000000
    12  H    2.745070   0.000000
    13  H    6.193219   6.724146   0.000000
    14  H    5.583752   5.065303   2.526602   0.000000
    15  H    5.250936   6.786928   2.504171   4.377828   0.000000
    16  H    3.037361   5.244225   4.392220   5.121892   2.533984
                   16
    16  H    0.000000
 Stoichiometry    C8H7N
 Framework group  C1[X(C8H7N)]
 Deg. of freedom    42
 Full point group                 C1      NOp   1
 Largest Abelian subgroup         C1      NOp   1
 Largest concise Abelian subgroup C1      NOp   1
                         Standard orientation:                         
 ---------------------------------------------------------------------
 Center     Atomic      Atomic             Coordinates (Angstroms)
 Number     Number       Type             X           Y           Z
 ---------------------------------------------------------------------
      1          6           0       -2.186247    0.704311    0.000119
      2          6           0       -2.164214   -0.739771    0.000082
      3          6           0       -0.946145   -1.457861   -0.000050
      4          6           0        0.248680   -0.686687   -0.000190
      5          6           0        0.259819    0.781418   -0.000165
      6          6           0       -0.974460    1.477538   -0.000019
      7          7           0        1.579092   -1.094195    0.000061
      8          6           0        1.626599    1.179198   -0.000011
      9          6           0        2.425520    0.019621    0.000194
     10          1           0        1.891493   -2.060810    0.000121
     11          1           0        2.007193    2.200366   -0.000028
     12          1           0        3.506642   -0.098996   -0.000098
     13          1           0       -3.112044   -1.285228    0.000252
     14          1           0       -0.925499   -2.551222   -0.000367
     15          1           0       -3.151153    1.218638    0.000029
     16          1           0       -1.007590    2.570012   -0.000093
 ---------------------------------------------------------------------
 Rotational constants (GHZ):           3.7102753           1.5981669           1.1170206

 **********************************************************************

            Population analysis using the CI Density.

 **********************************************************************

 Orbital symmetries:
       Occupied  (A) (A) (A) (A) (A) (A) (A) (A) (A) (A) (A) (A)
                 (A) (A) (A) (A) (A) (A) (A) (A) (A) (A) (A) (A)
                 (A) (A) (A) (A) (A) (A) (A)
       Virtual   (A) (A) (A) (A) (A) (A) (A) (A) (A) (A) (A) (A)
                 (A) (A) (A) (A) (A) (A) (A) (A) (A) (A) (A) (A)
                 (A) (A) (A) (A) (A) (A) (A) (A) (A) (A) (A) (A)
                 (A) (A) (A) (A) (A) (A) (A) (A) (A) (A) (A) (A)
                 (A) (A) (A) (A) (A) (A) (A) (A) (A) (A) (A) (A)
                 (A) (A) (A) (A) (A) (A) (A) (A) (A) (A) (A) (A)
                 (A) (A) (A) (A) (A) (A) (A) (A) (A) (A) (A) (A)
                 (A) (A) (A) (A) (A) (A) (A) (A) (A) (A) (A) (A)
                 (A) (A) (A) (A) (A) (A) (A) (A) (A) (A) (A) (A)
                 (A) (A) (A) (A) (A) (A) (A) (A) (A) (A)
 The electronic state is 1-A.
 Alpha  occ. eigenvalues --  -14.06969  -9.94841  -9.94763  -9.91827  -9.91318
 Alpha  occ. eigenvalues --   -9.91294  -9.91279  -9.91043  -9.90426  -0.88689
 Alpha  occ. eigenvalues --   -0.74462  -0.70107  -0.65249  -0.63815  -0.55676
 Alpha  occ. eigenvalues --   -0.53367  -0.51347  -0.47719  -0.43058  -0.41288
 Alpha  occ. eigenvalues --   -0.38130  -0.37715  -0.36360  -0.35286  -0.34294
 Alpha  occ. eigenvalues --   -0.30669  -0.28909  -0.28237  -0.24024  -0.18827
 Alpha  occ. eigenvalues --   -0.17333
 Alpha virt. eigenvalues --   -0.03863  -0.00559   0.03422   0.05409   0.08129
 Alpha virt. eigenvalues --    0.10646   0.11535   0.12931   0.13800   0.15070
 Alpha virt. eigenvalues --    0.15376   0.18001   0.20797   0.22002   0.25627
 Alpha virt. eigenvalues --    0.28851   0.30121   0.33887   0.37836   0.44923
 Alpha virt. eigenvalues --    0.47045   0.47774   0.48735   0.50142   0.51504
 Alpha virt. eigenvalues --    0.52187   0.53892   0.55050   0.55183   0.55507
 Alpha virt. eigenvalues --    0.57462   0.57727   0.58052   0.59316   0.60975
 Alpha virt. eigenvalues --    0.64979   0.66607   0.72362   0.76121   0.76517
 Alpha virt. eigenvalues --    0.76541   0.79453   0.79584   0.80021   0.81283
 Alpha virt. eigenvalues --    0.83379   0.85693   0.89030   0.90413   0.92211
 Alpha virt. eigenvalues --    0.92586   0.98788   1.00813   1.06093   1.07361
 Alpha virt. eigenvalues --    1.13178   1.18372   1.19245   1.23943   1.26793
 Alpha virt. eigenvalues --    1.28890   1.31046   1.35104   1.35827   1.39747
 Alpha virt. eigenvalues --    1.41434   1.43418   1.43448   1.43593   1.48859
 Alpha virt. eigenvalues --    1.53197   1.67795   1.69924   1.75271   1.80928
 Alpha virt. eigenvalues --    1.81309   1.81434   1.85711   1.87105   1.89673
 Alpha virt. eigenvalues --    1.92532   1.92692   2.00393   2.01220   2.03320
 Alpha virt. eigenvalues --    2.06628   2.11500   2.14112   2.15640   2.16946
 Alpha virt. eigenvalues --    2.17508   2.27125   2.30206   2.31335   2.37748
 Alpha virt. eigenvalues --    2.45016   2.48536   2.52106   2.53531   2.55891
 Alpha virt. eigenvalues --    2.60676   2.65241   2.69677   2.71377   2.80230
 Alpha virt. eigenvalues --    2.85295   2.94307   3.10294   3.26251   3.88556
 Alpha virt. eigenvalues --    3.97227   4.00941   4.05864   4.09297   4.22956
 Alpha virt. eigenvalues --    4.30251   4.36018   4.64003
          Condensed to atoms (all electrons):
               1          2          3          4          5          6
     1  C    5.098389   0.447955  -0.034961  -0.027555   0.000102   0.395861
     2  C    0.447955   5.015200   0.469150  -0.001053  -0.025818  -0.025707
     3  C   -0.034961   0.469150   5.174677   0.428331  -0.057776  -0.042727
     4  C   -0.027555  -0.001053   0.428331   4.902227   0.408670  -0.055190
     5  C    0.000102  -0.025818  -0.057776   0.408670   4.733667   0.465470
     6  C    0.395861  -0.025707  -0.042727  -0.055190   0.465470   5.262023
     7  N   -0.000244   0.005734  -0.086243   0.222610  -0.027611   0.011255
     8  C    0.008359  -0.000110   0.013506  -0.020690   0.434942  -0.107504
     9  C   -0.000398  -0.000185   0.005552  -0.095669  -0.011896   0.011472
    10  H   -0.000004  -0.000053  -0.003673  -0.026268   0.005994  -0.000113
    11  H   -0.000004   0.000002  -0.000147   0.006689  -0.033899  -0.005960
    12  H    0.000003   0.000001  -0.000118   0.005381   0.001907  -0.000149
    13  H   -0.039014   0.354853  -0.039506   0.002793   0.000854   0.004046
    14  H    0.004236  -0.039812   0.348285  -0.041276   0.003911   0.000378
    15  H    0.354688  -0.039609   0.004445   0.000884   0.002407  -0.038203
    16  H   -0.045374   0.004170   0.000354   0.004962  -0.040347   0.354356
               7          8          9         10         11         12
     1  C   -0.000244   0.008359  -0.000398  -0.000004  -0.000004   0.000003
     2  C    0.005734  -0.000110  -0.000185  -0.000053   0.000002   0.000001
     3  C   -0.086243   0.013506   0.005552  -0.003673  -0.000147  -0.000118
     4  C    0.222610  -0.020690  -0.095669  -0.026268   0.006689   0.005381
     5  C   -0.027611   0.434942  -0.011896   0.005994  -0.033899   0.001907
     6  C    0.011255  -0.107504   0.011472  -0.000113  -0.005960  -0.000149
     7  N    7.020669  -0.072121   0.310916   0.316638   0.004138  -0.045015
     8  C   -0.072121   5.196202   0.450173   0.004843   0.363658  -0.030838
     9  C    0.310916   0.450173   5.026482  -0.032190  -0.052625   0.363336
    10  H    0.316638   0.004843  -0.032190   0.399142  -0.000084  -0.001968
    11  H    0.004138   0.363658  -0.052625  -0.000084   0.569495  -0.000918
    12  H   -0.045015  -0.030838   0.363336  -0.001968  -0.000918   0.542139
    13  H   -0.000102   0.000008   0.000002  -0.000001  -0.000000  -0.000000
    14  H   -0.006067  -0.000227  -0.000035   0.002695   0.000002   0.000002
    15  H    0.000002  -0.000167   0.000004  -0.000000  -0.000001  -0.000000
    16  H   -0.000102  -0.006996  -0.000065   0.000004   0.002367  -0.000000
              13         14         15         16
     1  C   -0.039014   0.004236   0.354688  -0.045374
     2  C    0.354853  -0.039812  -0.039609   0.004170
     3  C   -0.039506   0.348285   0.004445   0.000354
     4  C    0.002793  -0.041276   0.000884   0.004962
     5  C    0.000854   0.003911   0.002407  -0.040347
     6  C    0.004046   0.000378  -0.038203   0.354356
     7  N   -0.000102  -0.006067   0.000002  -0.000102
     8  C    0.000008  -0.000227  -0.000167  -0.006996
     9  C    0.000002  -0.000035   0.000004  -0.000065
    10  H   -0.000001   0.002695  -0.000000   0.000004
    11  H   -0.000000   0.000002  -0.000001   0.002367
    12  H   -0.000000   0.000002  -0.000000  -0.000000
    13  H    0.593186  -0.005197  -0.005040  -0.000143
    14  H   -0.005197   0.605950  -0.000150   0.000015
    15  H   -0.005040  -0.000150   0.592757  -0.004553
    16  H   -0.000143   0.000015  -0.004553   0.599990
 Mulliken charges:
               1
     1  C   -0.162040
     2  C   -0.164719
     3  C   -0.179148
     4  C    0.285152
     5  C    0.139425
     6  C   -0.229308
     7  N   -0.654458
     8  C   -0.233038
     9  C    0.025126
    10  H    0.335038
    11  H    0.147285
    12  H    0.166236
    13  H    0.133261
    14  H    0.127288
    15  H    0.132537
    16  H    0.131363
 Sum of Mulliken charges =  -0.00000
 Mulliken charges with hydrogens summed into heavy atoms:
               1
     1  C   -0.029503
     2  C   -0.031459
     3  C   -0.051860
     4  C    0.285152
     5  C    0.139425
     6  C   -0.097944
     7  N   -0.319420
     8  C   -0.085753
     9  C    0.191362
 Electronic spatial extent (au):  <R**2>=           1033.4830
 Charge=             -0.0000 electrons
 Dipole moment (field-independent basis, Debye):
    X=              2.1144    Y=             -1.4487    Z=             -0.0004  Tot=              2.5630
 Quadrupole moment (field-independent basis, Debye-Ang):
   XX=            -43.7090   YY=            -43.9148   ZZ=            -56.8672
   XY=             -2.9720   XZ=             -0.0005   YZ=             -0.0001
 Traceless Quadrupole moment (field-independent basis, Debye-Ang):
   XX=              4.4547   YY=              4.2489   ZZ=             -8.7035
   XY=             -2.9720   XZ=             -0.0005   YZ=             -0.0001
 Octapole moment (field-independent basis, Debye-Ang**2):
  XXX=             17.8065  YYY=            -10.4092  ZZZ=             -0.0004  XYY=              9.8481
  XXY=             -7.3511  XXZ=             -0.0016  XZZ=              2.4798  YZZ=             -1.6074
  YYZ=             -0.0016  XYZ=             -0.0003
 Hexadecapole moment (field-independent basis, Debye-Ang**3):
 XXXX=           -808.6307 YYYY=           -376.2688 ZZZZ=            -58.4827 XXXY=            -20.0570
 XXXZ=             -0.0105 YYYX=            -19.1474 YYYZ=              0.0009 ZZZX=             -0.0004
 ZZZY=             -0.0004 XXYY=           -195.0501 XXZZ=           -181.3324 YYZZ=            -90.6384
 XXYZ=             -0.0037 YYXZ=              0.0026 ZZXY=             -2.9935
 N-N= 3.939509525398D+02 E-N=-1.630663989985D+03  KE= 3.597629451238D+02
 Unable to Open any file for archive entry.
 1\1\GINC-COMET-07-01\FOpt\RBVP86 TD-FC\6-31G(d)\C8H7N1\SCAPARAS\17-Jun
 -2020\0\\# td=(nstates=6, root=2) BVP86/6-31G(d) Opt density=current\\
 FuncsBVP862nd\\0,1\C,-2.1868103162,0.7019033737,0.0034257342\C,-2.1628
 181353,-0.7421471364,0.0022692389\C,-0.9437771128,-1.4585816087,-0.000
 2418483\C,0.2499987536,-0.6857862221,-0.0016055172\C,0.2591457317,0.78
 23321542,-0.0004927146\C,-0.9760759459,1.4767755118,0.0020403179\N,1.5
 809614531,-1.0914860577,-0.0036694474\C,1.6253824518,1.181968537,-0.00
 21015993\C,2.4258765404,0.0234776069,-0.0039760417\H,1.8946741945,-2.0
 576760077,-0.0048084491\H,2.0045906027,2.2036526466,-0.0019247626\H,3.
 507156369,-0.0936698769,-0.0059886038\H,-3.1099049466,-1.28889128,0.00
 34586428\H,-0.9216480194,-2.5519134177,-0.0014131688\H,-3.1524128299,1
 .2149188129,0.0051790257\H,-1.0106887907,2.5692029643,0.0028391933\\Ve
 rsion=ES64L-G16RevC.01\State=1-A\HF=-363.8302298\RMSD=8.136e-09\RMSF=9
 .776e-06\Dipole=0.8318536,-0.5699583,-0.0001444\Quadrupole=3.311926,3.
 1589165,-6.4708425,-2.209573,-0.0003818,-0.0000728\PG=C01 [X(C8H7N1)]\
 \@
 The archive entry for this job was punched.


 WE ARE REACHING THE STAGE WHERE THE PROBLEMS WE MUST SOLVE ARE 
 GOING TO BECOME INSOLUBLE WITHOUT COMPUTERS.
 I DO NOT FEAR COMPUTERS.  I FEAR THE LACK OF THEM.

                                   -- ISSAC ASIMOV
 Job cpu time:       0 days  1 hours 23 minutes 44.4 seconds.
 Elapsed time:       0 days  0 hours 42 minutes 12.4 seconds.
 File lengths (MBytes):  RWF=    162 Int=      0 D2E=      0 Chk=      8 Scr=      1
 Normal termination of Gaussian 16 at Wed Jun 17 10:35:11 2020.
