 Entering Gaussian System, Link 0=/opt/gaussian/16.C.01/g16/g16
 Initial command:
 /opt/gaussian/16.C.01/g16/l1.exe "/scratch/scaparas/38762243/Gau-12371.inp" -scrdir="/scratch/scaparas/38762243/"
 Entering Link 1 = /opt/gaussian/16.C.01/g16/l1.exe PID=     12372.
  
 Copyright (c) 1988-2019, Gaussian, Inc.  All Rights Reserved.
  
 This is part of the Gaussian(R) 16 program.  It is based on
 the Gaussian(R) 09 system (copyright 2009, Gaussian, Inc.),
 the Gaussian(R) 03 system (copyright 2003, Gaussian, Inc.),
 the Gaussian(R) 98 system (copyright 1998, Gaussian, Inc.),
 the Gaussian(R) 94 system (copyright 1995, Gaussian, Inc.),
 the Gaussian 92(TM) system (copyright 1992, Gaussian, Inc.),
 the Gaussian 90(TM) system (copyright 1990, Gaussian, Inc.),
 the Gaussian 88(TM) system (copyright 1988, Gaussian, Inc.),
 the Gaussian 86(TM) system (copyright 1986, Carnegie Mellon
 University), and the Gaussian 82(TM) system (copyright 1983,
 Carnegie Mellon University). Gaussian is a federally registered
 trademark of Gaussian, Inc.
  
 This software contains proprietary and confidential information,
 including trade secrets, belonging to Gaussian, Inc.
  
 This software is provided under written license and may be
 used, copied, transmitted, or stored only in accord with that
 written license.
  
 The following legend is applicable only to US Government
 contracts under FAR:
  
                    RESTRICTED RIGHTS LEGEND
  
 Use, reproduction and disclosure by the US Government is
 subject to restrictions as set forth in subparagraphs (a)
 and (c) of the Commercial Computer Software - Restricted
 Rights clause in FAR 52.227-19.
  
 Gaussian, Inc.
 340 Quinnipiac St., Bldg. 40, Wallingford CT 06492
  
  
 ---------------------------------------------------------------
 Warning -- This program may not be used in any manner that
 competes with the business of Gaussian, Inc. or will provide
 assistance to any competitor of Gaussian, Inc.  The licensee
 of this program is prohibited from giving any competitor of
 Gaussian, Inc. access to this program.  By using this program,
 the user acknowledges that Gaussian, Inc. is engaged in the
 business of creating and licensing software in the field of
 computational chemistry and represents and warrants to the
 licensee that it is not a competitor of Gaussian, Inc. and that
 it will not use this program in any manner prohibited above.
 ---------------------------------------------------------------
  

 Cite this work as:
 Gaussian 16, Revision C.01,
 M. J. Frisch, G. W. Trucks, H. B. Schlegel, G. E. Scuseria, 
 M. A. Robb, J. R. Cheeseman, G. Scalmani, V. Barone, 
 G. A. Petersson, H. Nakatsuji, X. Li, M. Caricato, A. V. Marenich, 
 J. Bloino, B. G. Janesko, R. Gomperts, B. Mennucci, H. P. Hratchian, 
 J. V. Ortiz, A. F. Izmaylov, J. L. Sonnenberg, D. Williams-Young, 
 F. Ding, F. Lipparini, F. Egidi, J. Goings, B. Peng, A. Petrone, 
 T. Henderson, D. Ranasinghe, V. G. Zakrzewski, J. Gao, N. Rega, 
 G. Zheng, W. Liang, M. Hada, M. Ehara, K. Toyota, R. Fukuda, 
 J. Hasegawa, M. Ishida, T. Nakajima, Y. Honda, O. Kitao, H. Nakai, 
 T. Vreven, K. Throssell, J. A. Montgomery, Jr., J. E. Peralta, 
 F. Ogliaro, M. J. Bearpark, J. J. Heyd, E. N. Brothers, K. N. Kudin, 
 V. N. Staroverov, T. A. Keith, R. Kobayashi, J. Normand, 
 K. Raghavachari, A. P. Rendell, J. C. Burant, S. S. Iyengar, 
 J. Tomasi, M. Cossi, J. M. Millam, M. Klene, C. Adamo, R. Cammi, 
 J. W. Ochterski, R. L. Martin, K. Morokuma, O. Farkas, 
 J. B. Foresman, and D. J. Fox, Gaussian, Inc., Wallingford CT, 2019.
 
 ******************************************
 Gaussian 16:  ES64L-G16RevC.01  3-Jul-2019
                 4-Mar-2021 
 ******************************************
 %NProcShared=2
 Will use up to    2 processors via shared memory.
 %Chk=FuncsSOGGA11X.chk
 ---------------------------------------------------------------
 # td= (nstates=6, root=1) SOGGA11X/6-31G(d) Opt density=current
 ---------------------------------------------------------------
 1/18=20,19=15,26=3,38=1/1,3;
 2/9=110,12=2,17=6,18=5,40=1/2;
 3/5=1,6=6,7=1,11=9,25=1,30=1,71=1,74=-65/1,2,3,8;
 4//1;
 5/5=2,38=5/2;
 8/6=1,10=2,107=1,108=6/1;
 9/8=1,15=2,41=6,42=1,70=2/14;
 10/5=4,28=1/2;
 6/7=2,8=2,9=2,10=2,22=-1/1;
 7/12=6,13=5,14=1/1,2,3,16;
 1/18=20,19=15,26=3/3(2);
 2/9=110/2;
 99//99;
 2/9=110/2;
 3/5=1,6=6,7=1,11=9,25=1,30=1,71=1,74=-65/1,2,3,8;
 4/5=5,16=3,69=1/1;
 5/5=2,38=5/2;
 8/6=1,10=2,107=1,108=6/1;
 9/8=1,15=2,41=6,42=1,49=4,70=2/14;
 10/5=4,28=1/2;
 7/12=6,13=5,14=1/1,2,3,16;
 1/18=20,19=15,26=3/3(-8);
 2/9=110/2;
 6/7=2,8=2,9=2,10=2,22=-1/1;
 99/9=10/99;
 -------------
 FuncsSOGGA11X
 -------------
 Symbolic Z-matrix:
 Charge =  0 Multiplicity = 1
 C                    -2.15886   0.68918   0.02974 
 C                    -2.1332   -0.71621  -0.0157 
 C                    -0.93572  -1.41751  -0.00819 
 C                     0.2487   -0.67115   0.00319 
 C                     0.25025   0.7522   -0.00266 
 C                    -0.98322   1.4256   -0.0173 
 N                     1.5657   -1.08029   0.00974 
 C                     1.62609   1.16684  -0.00626 
 C                     2.39038   0.03059   0.00688 
 H                     1.87967  -2.03756   0.01447 
 H                     1.9972    2.18233  -0.0192 
 H                     3.46481  -0.08787   0.00753 
 H                    -3.075    -1.264    -0.03434 
 H                    -0.91687  -2.50699  -0.02386 
 H                    -3.12254   1.20382   0.09559 
 H                    -1.01374   2.5151   -0.04664 
 

 GradGradGradGradGradGradGradGradGradGradGradGradGradGradGradGradGradGrad
 Berny optimization.
 Initialization pass.
                           ----------------------------
                           !    Initial Parameters    !
                           ! (Angstroms and Degrees)  !
 --------------------------                            --------------------------
 ! Name  Definition              Value          Derivative Info.                !
 --------------------------------------------------------------------------------
 ! R1    R(1,2)                  1.4064         estimate D2E/DX2                !
 ! R2    R(1,6)                  1.388          estimate D2E/DX2                !
 ! R3    R(1,15)                 1.0945         estimate D2E/DX2                !
 ! R4    R(2,3)                  1.3877         estimate D2E/DX2                !
 ! R5    R(2,13)                 1.0897         estimate D2E/DX2                !
 ! R6    R(3,4)                  1.4            estimate D2E/DX2                !
 ! R7    R(3,14)                 1.0898         estimate D2E/DX2                !
 ! R8    R(4,5)                  1.4234         estimate D2E/DX2                !
 ! R9    R(4,7)                  1.3791         estimate D2E/DX2                !
 ! R10   R(5,6)                  1.4054         estimate D2E/DX2                !
 ! R11   R(5,8)                  1.437          estimate D2E/DX2                !
 ! R12   R(6,16)                 1.0903         estimate D2E/DX2                !
 ! R13   R(7,9)                  1.3835         estimate D2E/DX2                !
 ! R14   R(7,10)                 1.0075         estimate D2E/DX2                !
 ! R15   R(8,9)                  1.3694         estimate D2E/DX2                !
 ! R16   R(8,11)                 1.0813         estimate D2E/DX2                !
 ! R17   R(9,12)                 1.0809         estimate D2E/DX2                !
 ! A1    A(2,1,6)              120.9061         estimate D2E/DX2                !
 ! A2    A(2,1,15)             119.2028         estimate D2E/DX2                !
 ! A3    A(6,1,15)             119.8895         estimate D2E/DX2                !
 ! A4    A(1,2,3)              121.3707         estimate D2E/DX2                !
 ! A5    A(1,2,13)             119.153          estimate D2E/DX2                !
 ! A6    A(3,2,13)             119.4616         estimate D2E/DX2                !
 ! A7    A(2,3,4)              117.4292         estimate D2E/DX2                !
 ! A8    A(2,3,14)             121.3371         estimate D2E/DX2                !
 ! A9    A(4,3,14)             121.2289         estimate D2E/DX2                !
 ! A10   A(3,4,5)              122.2756         estimate D2E/DX2                !
 ! A11   A(3,4,7)              130.5258         estimate D2E/DX2                !
 ! A12   A(5,4,7)              107.1964         estimate D2E/DX2                !
 ! A13   A(4,5,6)              118.5703         estimate D2E/DX2                !
 ! A14   A(4,5,8)              106.8342         estimate D2E/DX2                !
 ! A15   A(6,5,8)              134.5914         estimate D2E/DX2                !
 ! A16   A(1,6,5)              119.2617         estimate D2E/DX2                !
 ! A17   A(1,6,16)             120.4875         estimate D2E/DX2                !
 ! A18   A(5,6,16)             120.2412         estimate D2E/DX2                !
 ! A19   A(4,7,9)              109.3301         estimate D2E/DX2                !
 ! A20   A(4,7,10)             125.4173         estimate D2E/DX2                !
 ! A21   A(9,7,10)             125.2525         estimate D2E/DX2                !
 ! A22   A(5,8,9)              107.1528         estimate D2E/DX2                !
 ! A23   A(5,8,11)             126.8451         estimate D2E/DX2                !
 ! A24   A(9,8,11)             126.002          estimate D2E/DX2                !
 ! A25   A(7,9,8)              109.4848         estimate D2E/DX2                !
 ! A26   A(7,9,12)             120.2971         estimate D2E/DX2                !
 ! A27   A(8,9,12)             130.2163         estimate D2E/DX2                !
 ! D1    D(6,1,2,3)              4.8678         estimate D2E/DX2                !
 ! D2    D(6,1,2,13)          -176.5353         estimate D2E/DX2                !
 ! D3    D(15,1,2,3)          -175.5899         estimate D2E/DX2                !
 ! D4    D(15,1,2,13)            3.0069         estimate D2E/DX2                !
 ! D5    D(2,1,6,5)             -5.0972         estimate D2E/DX2                !
 ! D6    D(2,1,6,16)           176.0299         estimate D2E/DX2                !
 ! D7    D(15,1,6,5)           175.3637         estimate D2E/DX2                !
 ! D8    D(15,1,6,16)           -3.5093         estimate D2E/DX2                !
 ! D9    D(1,2,3,4)             -1.9941         estimate D2E/DX2                !
 ! D10   D(1,2,3,14)           178.7955         estimate D2E/DX2                !
 ! D11   D(13,2,3,4)           179.4132         estimate D2E/DX2                !
 ! D12   D(13,2,3,14)            0.2029         estimate D2E/DX2                !
 ! D13   D(2,3,4,5)             -0.4651         estimate D2E/DX2                !
 ! D14   D(2,3,4,7)           -179.8522         estimate D2E/DX2                !
 ! D15   D(14,3,4,5)           178.7462         estimate D2E/DX2                !
 ! D16   D(14,3,4,7)            -0.641          estimate D2E/DX2                !
 ! D17   D(3,4,5,6)              0.1482         estimate D2E/DX2                !
 ! D18   D(3,4,5,8)           -179.2217         estimate D2E/DX2                !
 ! D19   D(7,4,5,6)            179.6606         estimate D2E/DX2                !
 ! D20   D(7,4,5,8)              0.2907         estimate D2E/DX2                !
 ! D21   D(3,4,7,9)            179.3989         estimate D2E/DX2                !
 ! D22   D(3,4,7,10)            -0.5167         estimate D2E/DX2                !
 ! D23   D(5,4,7,9)             -0.0587         estimate D2E/DX2                !
 ! D24   D(5,4,7,10)          -179.9743         estimate D2E/DX2                !
 ! D25   D(4,5,6,1)              2.618          estimate D2E/DX2                !
 ! D26   D(4,5,6,16)          -178.5062         estimate D2E/DX2                !
 ! D27   D(8,5,6,1)           -178.2289         estimate D2E/DX2                !
 ! D28   D(8,5,6,16)             0.6469         estimate D2E/DX2                !
 ! D29   D(4,5,8,9)             -0.4171         estimate D2E/DX2                !
 ! D30   D(4,5,8,11)           179.4533         estimate D2E/DX2                !
 ! D31   D(6,5,8,9)           -179.64           estimate D2E/DX2                !
 ! D32   D(6,5,8,11)             0.2304         estimate D2E/DX2                !
 ! D33   D(4,7,9,8)             -0.2113         estimate D2E/DX2                !
 ! D34   D(4,7,9,12)          -179.7792         estimate D2E/DX2                !
 ! D35   D(10,7,9,8)           179.7044         estimate D2E/DX2                !
 ! D36   D(10,7,9,12)            0.1366         estimate D2E/DX2                !
 ! D37   D(5,8,9,7)              0.3888         estimate D2E/DX2                !
 ! D38   D(5,8,9,12)           179.9002         estimate D2E/DX2                !
 ! D39   D(11,8,9,7)          -179.483          estimate D2E/DX2                !
 ! D40   D(11,8,9,12)            0.0284         estimate D2E/DX2                !
 --------------------------------------------------------------------------------
 Trust Radius=3.00D-01 FncErr=1.00D-07 GrdErr=1.00D-06 EigMax=2.50D+02 EigMin=1.00D-04
 Number of steps in this run=     94 maximum allowed number of steps=    100.
 GradGradGradGradGradGradGradGradGradGradGradGradGradGradGradGradGradGrad

                          Input orientation:                          
 ---------------------------------------------------------------------
 Center     Atomic      Atomic             Coordinates (Angstroms)
 Number     Number       Type             X           Y           Z
 ---------------------------------------------------------------------
      1          6           0       -2.158860    0.689180    0.029740
      2          6           0       -2.133200   -0.716210   -0.015700
      3          6           0       -0.935720   -1.417510   -0.008190
      4          6           0        0.248700   -0.671150    0.003190
      5          6           0        0.250250    0.752200   -0.002660
      6          6           0       -0.983220    1.425600   -0.017300
      7          7           0        1.565700   -1.080290    0.009740
      8          6           0        1.626090    1.166840   -0.006260
      9          6           0        2.390380    0.030590    0.006880
     10          1           0        1.879670   -2.037560    0.014470
     11          1           0        1.997200    2.182330   -0.019200
     12          1           0        3.464810   -0.087870    0.007530
     13          1           0       -3.075000   -1.264000   -0.034340
     14          1           0       -0.916870   -2.506990   -0.023860
     15          1           0       -3.122540    1.203820    0.095590
     16          1           0       -1.013740    2.515100   -0.046640
 ---------------------------------------------------------------------
                    Distance matrix (angstroms):
                    1          2          3          4          5
     1  C    0.000000
     2  C    1.406359   0.000000
     3  C    2.436320   1.387745   0.000000
     4  C    2.765420   2.382401   1.400012   0.000000
     5  C    2.410152   2.799506   2.472690   1.423363   0.000000
     6  C    1.388041   2.431009   2.843521   2.431955   1.405393
     7  N    4.123563   3.716862   2.524112   1.379104   2.255789
     8  C    3.815141   4.204548   3.638920   2.296846   1.436967
     9  C    4.596721   4.584866   3.627694   2.253718   2.258532
    10  H    4.872891   4.224926   2.882949   2.127737   3.230799
    11  H    4.416416   5.045964   4.643381   3.346655   2.257738
    12  H    5.677144   5.633211   4.597048   3.268577   3.322532
    13  H    2.158317   1.089683   2.144940   3.376368   3.888876
    14  H    3.429419   2.164814   1.089756   2.174763   3.461927
    15  H    1.094472   2.162798   3.415307   3.858667   3.404310
    16  H    2.156645   3.419870   3.933572   3.427598   2.169659
                    6          7          8          9         10
     6  C    0.000000
     7  N    3.574522   0.000000
     8  C    2.622132   2.247998   0.000000
     9  C    3.650728   1.383532   1.369444   0.000000
    10  H    4.493398   1.007455   3.214485   2.130288   0.000000
    11  H    3.074987   3.291158   1.081254   2.187523   4.221661
    12  H    4.698529   2.142784   2.226068   1.080941   2.512769
    13  H    3.407313   4.644544   5.292449   5.616764   5.014931
    14  H    3.933155   2.863522   4.468107   4.168712   2.835925
    15  H    2.153746   5.215757   4.749866   5.637076   5.961143
    16  H    1.090322   4.425327   2.964479   4.214699   5.394652
                   11         12         13         14         15
    11  H    0.000000
    12  H    2.703406   0.000000
    13  H    6.132262   6.644859   0.000000
    14  H    5.521010   5.005222   2.490514   0.000000
    15  H    5.213674   6.713375   2.471695   4.318490   0.000000
    16  H    3.029397   5.180328   4.304711   5.023076   2.487312
                   16
    16  H    0.000000
 Stoichiometry    C8H7N
 Framework group  C1[X(C8H7N)]
 Deg. of freedom    42
 Full point group                 C1      NOp   1
 Largest Abelian subgroup         C1      NOp   1
 Largest concise Abelian subgroup C1      NOp   1
                         Standard orientation:                         
 ---------------------------------------------------------------------
 Center     Atomic      Atomic             Coordinates (Angstroms)
 Number     Number       Type             X           Y           Z
 ---------------------------------------------------------------------
      1          6           0       -2.158858    0.689183    0.029741
      2          6           0       -2.133200   -0.716207   -0.015699
      3          6           0       -0.935722   -1.417509   -0.008189
      4          6           0        0.248700   -0.671151    0.003191
      5          6           0        0.250252    0.752199   -0.002659
      6          6           0       -0.983217    1.425601   -0.017299
      7          7           0        1.565699   -1.080293    0.009741
      8          6           0        1.626093    1.166837   -0.006259
      9          6           0        2.390381    0.030585    0.006881
     10          1           0        1.879667   -2.037564    0.014471
     11          1           0        1.997205    2.182326   -0.019199
     12          1           0        3.464811   -0.087877    0.007531
     13          1           0       -3.075001   -1.263995   -0.034339
     14          1           0       -0.916873   -2.506989   -0.023859
     15          1           0       -3.122537    1.203825    0.095591
     16          1           0       -1.013735    2.515101   -0.046639
 ---------------------------------------------------------------------
 Rotational constants (GHZ):           3.8861076           1.6317910           1.1494058
 Standard basis: 6-31G(d) (6D, 7F)
 There are   149 symmetry adapted cartesian basis functions of A   symmetry.
 There are   149 symmetry adapted basis functions of A   symmetry.
   149 basis functions,   280 primitive gaussians,   149 cartesian basis functions
    31 alpha electrons       31 beta electrons
       nuclear repulsion energy       400.0099183022 Hartrees.
 NAtoms=   16 NActive=   16 NUniq=   16 SFac= 1.00D+00 NAtFMM=   60 NAOKFM=F Big=F
 Integral buffers will be    131072 words long.
 Regular integral format.
 Two-electron integral symmetry is turned on.
 One-electron integrals computed using PRISM.
 NBasis=   149 RedAO= T EigKep=  4.13D-04  NBF=   149
 NBsUse=   149 1.00D-06 EigRej= -1.00D+00 NBFU=   149
 ExpMin= 1.61D-01 ExpMax= 4.17D+03 ExpMxC= 6.27D+02 IAcc=3 IRadAn=         5 AccDes= 0.00D+00
 Harris functional with IExCor= 5143 and IRadAn=       5 diagonalized for initial guess.
 HarFok:  IExCor= 5143 AccDes= 0.00D+00 IRadAn=         5 IDoV= 1 UseB2=F ITyADJ=14
 ICtDFT=  3500011 ScaDFX=  1.000000  1.000000  1.000000  1.000000
 FoFCou: FMM=F IPFlag=           0 FMFlag=      100000 FMFlg1=           0
         NFxFlg=           0 DoJE=T BraDBF=F KetDBF=T FulRan=T
         wScrn=  0.000000 ICntrl=       500 IOpCl=  0 I1Cent=   200000004 NGrid=           0
         NMat0=    1 NMatS0=      1 NMatT0=    0 NMatD0=    1 NMtDS0=    0 NMtDT0=    0
 Petite list used in FoFCou.
 Keep R1 ints in memory in canonical form, NReq=64400683.
 Requested convergence on RMS density matrix=1.00D-08 within 128 cycles.
 Requested convergence on MAX density matrix=1.00D-06.
 Requested convergence on             energy=1.00D-06.
 No special actions if energy rises.
 Integral accuracy reduced to 1.0D-05 until final iterations.
 Initial convergence to 1.0D-05 achieved.  Increase integral accuracy.
 SCF Done:  E(RSOGGA11X) =  -363.717358798     A.U. after   15 cycles
            NFock= 15  Conv=0.53D-08     -V/T= 2.0084
 DoSCS=F DFT=T ScalE2(SS,OS)=  1.000000  1.000000
 ExpMin= 1.61D-01 ExpMax= 4.17D+03 ExpMxC= 6.27D+02 IAcc=3 IRadAn=         5 AccDes= 0.00D+00
 HarFok:  IExCor=  205 AccDes= 0.00D+00 IRadAn=         5 IDoV=-2 UseB2=F ITyADJ=14
 ICtDFT= 12500011 ScaDFX=  1.000000  1.000000  1.000000  1.000000
 Range of M.O.s used for correlation:    10   149
 NBasis=   149 NAE=    31 NBE=    31 NFC=     9 NFV=     0
 NROrb=    140 NOA=    22 NOB=    22 NVA=   118 NVB=   118
 Orbital symmetries:
       Occupied  (A) (A) (A) (A) (A) (A) (A) (A) (A) (A) (A) (A)
                 (A) (A) (A) (A) (A) (A) (A) (A) (A) (A) (A) (A)
                 (A) (A) (A) (A) (A) (A) (A)
       Virtual   (A) (A) (A) (A) (A) (A) (A) (A) (A) (A) (A) (A)
                 (A) (A) (A) (A) (A) (A) (A) (A) (A) (A) (A) (A)
                 (A) (A) (A) (A) (A) (A) (A) (A) (A) (A) (A) (A)
                 (A) (A) (A) (A) (A) (A) (A) (A) (A) (A) (A) (A)
                 (A) (A) (A) (A) (A) (A) (A) (A) (A) (A) (A) (A)
                 (A) (A) (A) (A) (A) (A) (A) (A) (A) (A) (A) (A)
                 (A) (A) (A) (A) (A) (A) (A) (A) (A) (A) (A) (A)
                 (A) (A) (A) (A) (A) (A) (A) (A) (A) (A) (A) (A)
                 (A) (A) (A) (A) (A) (A) (A) (A) (A) (A) (A) (A)
                 (A) (A) (A) (A) (A) (A) (A) (A) (A) (A)
    24 initial guesses have been made.
 Convergence on wavefunction:    0.000001000000000
 Iteration     1 Dimension    24 NMult     0 NNew     24
 CISAX will form    24 AO SS matrices at one time.
 New state      1 was old state      2
 New state      2 was old state      1
 New state      3 was old state      5
 New state      4 was old state      7
 New state      5 was old state      3
 New state      6 was old state      4
 Iteration     2 Dimension    36 NMult    24 NNew     12
 New state      4 was old state      5
 New state      5 was old state      4
 Iteration     3 Dimension    48 NMult    36 NNew     12
 Iteration     4 Dimension    60 NMult    48 NNew     12
 Iteration     5 Dimension    72 NMult    60 NNew     12
 Iteration     6 Dimension    84 NMult    72 NNew     12
 Iteration     7 Dimension    96 NMult    84 NNew     12
 Iteration     8 Dimension   108 NMult    96 NNew     12
 Iteration     9 Dimension   118 NMult   108 NNew     10
 Iteration    10 Dimension   124 NMult   118 NNew      6
 Iteration    11 Dimension   126 NMult   124 NNew      2
 ***********************************************************************
 Excited states from <AA,BB:AA,BB> singles matrix:
 ***********************************************************************
 
 Ground to excited state transition densities written to RWF  633
 Ground to excited state transition electric dipole moments (Au):
       state          X           Y           Z        Dip. S.      Osc.
         1        -0.2182      0.6478     -0.0130      0.4674      0.0597
         2        -0.7712      0.2058     -0.0115      0.6372      0.0823
         3        -1.5649     -0.7190     -0.0073      2.9659      0.4812
         4         1.5237     -0.3209     -0.0144      2.4249      0.4099
         5         0.0651     -0.0138      0.0345      0.0056      0.0010
         6         0.5412     -0.9390     -0.0063      1.1746      0.2113
 Ground to excited state transition velocity dipole moments (Au):
       state          X           Y           Z        Dip. S.      Osc.
         1         0.0364     -0.1351      0.0035      0.0196      0.0682
         2         0.1419     -0.0443      0.0028      0.0221      0.0761
         3         0.3766      0.1808      0.0017      0.1745      0.4780
         4        -0.3785      0.0859      0.0062      0.1507      0.3962
         5        -0.0171      0.0043     -0.0245      0.0009      0.0023
         6        -0.1493      0.2523      0.0015      0.0859      0.2124
 Ground to excited state transition magnetic dipole moments (Au):
       state          X           Y           Z
         1         0.0014      0.0073      0.0744
         2         0.0053     -0.0005     -0.0497
         3        -0.0012      0.0000     -0.5693
         4        -0.0014      0.0098      0.2339
         5         0.2314      0.0257      0.0284
         6         0.0045      0.0047     -0.4900
 Ground to excited state transition velocity quadrupole moments (Au):
       state          XX          YY          ZZ          XY          XZ          YZ
         1         0.1479     -0.0428     -0.0111     -0.0380     -0.0102      0.0024
         2         0.1744     -0.2009      0.0040     -0.0287     -0.0030      0.0078
         3         0.1203     -0.0775     -0.0078     -0.4257     -0.0049     -0.0054
         4         0.4037     -0.0119      0.0433     -0.0123     -0.0205      0.0070
         5        -0.0005      0.0025     -0.0008      0.0139     -0.0826      0.1444
         6         0.4513     -0.0305      0.0037     -0.5207     -0.0002     -0.0038
 <0|del|b> * <b|rxdel|0> + <0|del|b> * <b|delr+rdel|0>
 Rotatory Strengths (R) in cgs (10**-40 erg-esu-cm/Gauss)
       state          XX          YY          ZZ    R(velocity)    E-M Angle
         1        -4.1387      0.9940      0.6728     -0.8240       93.67
         2        -0.6056      3.2868     -0.3485      0.7776       85.07
         3        -1.1017     -3.9555      1.0777     -1.3265       90.33
         4         5.5351     -0.8418      3.1906      2.6279       88.22
         5        -0.7507     -8.8968     -2.2737     -3.9737      129.94
         6        -0.3666     -0.0822     -0.1201     -0.1896       90.09
 1/2[<0|r|b>*<b|rxdel|0> + (<0|rxdel|b>*<b|r|0>)*]
 Rotatory Strengths (R) in cgs (10**-40 erg-esu-cm/Gauss)
       state          XX          YY          ZZ     R(length)
         1         0.2222     -3.3363      0.6832     -0.8103
         2         2.9094      0.0661     -0.4028      0.8576
         3        -1.2729      0.0251     -2.9569     -1.4016
         4         1.5424      2.2162      2.3831      2.0472
         5       -10.6545      0.2498     -0.6938     -3.6995
         6        -1.7129      3.1035     -2.1751     -0.2615
  1/2[<0|del|b>*<b|r|0> + (<0|r|b>*<b|del|0>)*] (Au)
       state          X           Y           Z        Dip. S.   Osc.(frdel)
         1        -0.0079     -0.0875     -0.0000      0.0955      0.0637
         2        -0.1094     -0.0091     -0.0000      0.1186      0.0790
         3        -0.5893     -0.1300     -0.0000      0.7193      0.4795
         4        -0.5767     -0.0276     -0.0001      0.6044      0.4029
         5        -0.0011     -0.0001     -0.0008      0.0020      0.0013
         6        -0.0808     -0.2369     -0.0000      0.3177      0.2118

 Excitation energies and oscillator strengths:
 
 Excited State   1:      Singlet-A      5.2089 eV  238.02 nm  f=0.0597  <S**2>=0.000
      30 -> 32        -0.39672
      30 -> 33         0.15303
      31 -> 32         0.51561
      31 -> 33         0.20633
 This state for optimization and/or second-order correction.
 Total Energy, E(TD-HF/TD-DFT) =  -363.525933693    
 Copying the excited state density for this state as the 1-particle RhoCI density.
 
 Excited State   2:      Singlet-A      5.2721 eV  235.17 nm  f=0.0823  <S**2>=0.000
      30 -> 32         0.43209
      30 -> 33         0.13266
      31 -> 32         0.42601
      31 -> 33        -0.32595
 
 Excited State   3:      Singlet-A      6.6228 eV  187.21 nm  f=0.4812  <S**2>=0.000
      29 -> 32        -0.14736
      30 -> 32         0.33893
      30 -> 33         0.21010
      31 -> 33         0.54816
 
 Excited State   4:      Singlet-A      6.8993 eV  179.70 nm  f=0.4099  <S**2>=0.000
      29 -> 32        -0.28642
      30 -> 32        -0.14685
      30 -> 33         0.55871
      31 -> 32        -0.16076
      31 -> 33        -0.20691
 
 Excited State   5:      Singlet-A      7.3354 eV  169.02 nm  f=0.0010  <S**2>=0.000
      29 -> 35         0.12215
      31 -> 35         0.68580
 
 Excited State   6:      Singlet-A      7.3422 eV  168.87 nm  f=0.2113  <S**2>=0.000
      29 -> 32         0.57894
      30 -> 33         0.30047
      31 -> 32        -0.14848
      31 -> 34         0.18613
 SavETr:  write IOETrn=   770 NScale= 10 NData=  16 NLR=1 NState=    6 LETran=     118.
          IDoAtm=1111111111111111
          Differentiating once with respect to electric field.
                with respect to dipole field.
          Differentiating once with respect to nuclear coordinates.
 Keep R1 ints in memory in canonical form, NReq=64412969.
          There are     1 degrees of freedom in the 1st order CPHF.  IDoFFX=0 NUNeed=     1.
 LinEq1:  Iter=  0 NonCon=     1 RMS=6.35D-03 Max=1.44D-01 NDo=     1
 AX will form     1 AO Fock derivatives at one time.
 LinEq1:  Iter=  1 NonCon=     1 RMS=2.54D-03 Max=6.13D-02 NDo=     1
 LinEq1:  Iter=  2 NonCon=     1 RMS=1.53D-03 Max=3.98D-02 NDo=     1
 LinEq1:  Iter=  3 NonCon=     1 RMS=6.10D-04 Max=1.78D-02 NDo=     1
 LinEq1:  Iter=  4 NonCon=     1 RMS=2.72D-04 Max=7.05D-03 NDo=     1
 LinEq1:  Iter=  5 NonCon=     1 RMS=1.71D-04 Max=5.63D-03 NDo=     1
 LinEq1:  Iter=  6 NonCon=     1 RMS=7.24D-05 Max=1.60D-03 NDo=     1
 LinEq1:  Iter=  7 NonCon=     1 RMS=3.60D-05 Max=7.57D-04 NDo=     1
 LinEq1:  Iter=  8 NonCon=     1 RMS=2.03D-05 Max=3.33D-04 NDo=     1
 LinEq1:  Iter=  9 NonCon=     1 RMS=9.82D-06 Max=1.83D-04 NDo=     1
 LinEq1:  Iter= 10 NonCon=     1 RMS=4.15D-06 Max=6.05D-05 NDo=     1
 LinEq1:  Iter= 11 NonCon=     1 RMS=1.50D-06 Max=3.35D-05 NDo=     1
 LinEq1:  Iter= 12 NonCon=     1 RMS=4.63D-07 Max=8.74D-06 NDo=     1
 LinEq1:  Iter= 13 NonCon=     1 RMS=2.46D-07 Max=3.87D-06 NDo=     1
 LinEq1:  Iter= 14 NonCon=     1 RMS=6.03D-08 Max=8.60D-07 NDo=     1
 LinEq1:  Iter= 15 NonCon=     1 RMS=1.40D-08 Max=1.94D-07 NDo=     1
 LinEq1:  Iter= 16 NonCon=     1 RMS=6.66D-09 Max=1.04D-07 NDo=     1
 LinEq1:  Iter= 17 NonCon=     1 RMS=1.85D-09 Max=4.00D-08 NDo=     1
 LinEq1:  Iter= 18 NonCon=     1 RMS=5.99D-10 Max=7.71D-09 NDo=     1
 LinEq1:  Iter= 19 NonCon=     1 RMS=3.20D-10 Max=9.03D-09 NDo=     1
 LinEq1:  Iter= 20 NonCon=     1 RMS=9.43D-11 Max=1.31D-09 NDo=     1
 LinEq1:  Iter= 21 NonCon=     0 RMS=3.36D-11 Max=6.32D-10 NDo=     1
 Linear equations converged to 1.000D-10 1.000D-09 after    21 iterations.
 End of Minotr F.D. properties file   721 does not exist.
 End of Minotr F.D. properties file   722 does not exist.
 End of Minotr F.D. properties file   788 does not exist.

 **********************************************************************

            Population analysis using the CI Density.

 **********************************************************************

 Orbital symmetries:
       Occupied  (A) (A) (A) (A) (A) (A) (A) (A) (A) (A) (A) (A)
                 (A) (A) (A) (A) (A) (A) (A) (A) (A) (A) (A) (A)
                 (A) (A) (A) (A) (A) (A) (A)
       Virtual   (A) (A) (A) (A) (A) (A) (A) (A) (A) (A) (A) (A)
                 (A) (A) (A) (A) (A) (A) (A) (A) (A) (A) (A) (A)
                 (A) (A) (A) (A) (A) (A) (A) (A) (A) (A) (A) (A)
                 (A) (A) (A) (A) (A) (A) (A) (A) (A) (A) (A) (A)
                 (A) (A) (A) (A) (A) (A) (A) (A) (A) (A) (A) (A)
                 (A) (A) (A) (A) (A) (A) (A) (A) (A) (A) (A) (A)
                 (A) (A) (A) (A) (A) (A) (A) (A) (A) (A) (A) (A)
                 (A) (A) (A) (A) (A) (A) (A) (A) (A) (A) (A) (A)
                 (A) (A) (A) (A) (A) (A) (A) (A) (A) (A) (A) (A)
                 (A) (A) (A) (A) (A) (A) (A) (A) (A) (A)
 The electronic state is 1-A.
 Alpha  occ. eigenvalues --  -14.70031 -10.48646 -10.48223 -10.45254 -10.44803
 Alpha  occ. eigenvalues --  -10.44716 -10.44693 -10.44226 -10.43917  -1.07620
 Alpha  occ. eigenvalues --   -0.92494  -0.86402  -0.81301  -0.79414  -0.68837
 Alpha  occ. eigenvalues --   -0.65754  -0.64203  -0.59393  -0.53423  -0.52113
 Alpha  occ. eigenvalues --   -0.48271  -0.47490  -0.46773  -0.45591  -0.43511
 Alpha  occ. eigenvalues --   -0.39664  -0.37455  -0.37148  -0.31079  -0.24721
 Alpha  occ. eigenvalues --   -0.23056
 Alpha virt. eigenvalues --    0.02013   0.06027   0.10811   0.11476   0.14135
 Alpha virt. eigenvalues --    0.17332   0.18443   0.20592   0.21946   0.22717
 Alpha virt. eigenvalues --    0.23230   0.26127   0.29198   0.30479   0.33944
 Alpha virt. eigenvalues --    0.37462   0.38977   0.42992   0.47885   0.55103
 Alpha virt. eigenvalues --    0.57042   0.57775   0.58479   0.61354   0.61946
 Alpha virt. eigenvalues --    0.62966   0.64190   0.65291   0.66392   0.67214
 Alpha virt. eigenvalues --    0.68425   0.68478   0.69049   0.70885   0.71589
 Alpha virt. eigenvalues --    0.76079   0.77744   0.84231   0.88008   0.88213
 Alpha virt. eigenvalues --    0.89908   0.91361   0.92385   0.93400   0.94007
 Alpha virt. eigenvalues --    0.95689   0.97718   1.00764   1.03896   1.04455
 Alpha virt. eigenvalues --    1.04794   1.10539   1.12441   1.17479   1.19265
 Alpha virt. eigenvalues --    1.26302   1.28523   1.31882   1.35277   1.37416
 Alpha virt. eigenvalues --    1.38990   1.43273   1.46652   1.49573   1.51255
 Alpha virt. eigenvalues --    1.52087   1.54895   1.56460   1.57130   1.61548
 Alpha virt. eigenvalues --    1.66522   1.80720   1.86475   1.88495   1.94441
 Alpha virt. eigenvalues --    1.95325   1.97254   2.01177   2.02472   2.06056
 Alpha virt. eigenvalues --    2.06993   2.12079   2.16764   2.19804   2.21084
 Alpha virt. eigenvalues --    2.23079   2.28930   2.30945   2.31898   2.32758
 Alpha virt. eigenvalues --    2.35415   2.44453   2.45372   2.47092   2.55512
 Alpha virt. eigenvalues --    2.62864   2.65703   2.69211   2.73839   2.74570
 Alpha virt. eigenvalues --    2.79736   2.84879   2.86872   2.91865   2.97546
 Alpha virt. eigenvalues --    3.03797   3.15651   3.30954   3.51581   4.10318
 Alpha virt. eigenvalues --    4.21409   4.22624   4.27304   4.32288   4.44081
 Alpha virt. eigenvalues --    4.51765   4.57266   4.87600
          Condensed to atoms (all electrons):
               1          2          3          4          5          6
     1  C    4.949347   0.554729  -0.046645  -0.029943  -0.030652   0.462442
     2  C    0.554729   5.051227   0.427295  -0.028007  -0.019320  -0.065707
     3  C   -0.046645   0.427295   5.138026   0.532332  -0.069494  -0.025479
     4  C   -0.029943  -0.028007   0.532332   4.709183   0.519937  -0.045510
     5  C   -0.030652  -0.019320  -0.069494   0.519937   4.779699   0.482362
     6  C    0.462442  -0.065707  -0.025479  -0.045510   0.482362   5.155859
     7  N   -0.000148   0.005183  -0.071645   0.262774  -0.047282   0.007084
     8  C    0.006200   0.000154   0.007871  -0.060882   0.491018  -0.066657
     9  C   -0.000365  -0.000227   0.005187  -0.113878  -0.070704   0.009652
    10  H    0.000000  -0.000009  -0.001510  -0.020962   0.005015  -0.000103
    11  H    0.000018   0.000001  -0.000107   0.004839  -0.024791  -0.002556
    12  H    0.000004   0.000001  -0.000048   0.005313   0.001621  -0.000120
    13  H   -0.032291   0.373222  -0.033400   0.002489   0.000783   0.003587
    14  H    0.003624  -0.029459   0.364356  -0.035945   0.003300   0.000336
    15  H    0.370618  -0.030173   0.003413   0.000739   0.002246  -0.034658
    16  H   -0.035023   0.003613   0.000322   0.003814  -0.034558   0.368461
               7          8          9         10         11         12
     1  C   -0.000148   0.006200  -0.000365   0.000000   0.000018   0.000004
     2  C    0.005183   0.000154  -0.000227  -0.000009   0.000001   0.000001
     3  C   -0.071645   0.007871   0.005187  -0.001510  -0.000107  -0.000048
     4  C    0.262774  -0.060882  -0.113878  -0.020962   0.004839   0.005313
     5  C   -0.047282   0.491018  -0.070704   0.005015  -0.024791   0.001621
     6  C    0.007084  -0.066657   0.009652  -0.000103  -0.002556  -0.000120
     7  N    7.016114  -0.061402   0.301479   0.318917   0.003395  -0.042241
     8  C   -0.061402   5.027677   0.523671   0.003720   0.371002  -0.022641
     9  C    0.301479   0.523671   5.036841  -0.023815  -0.036607   0.381958
    10  H    0.318917   0.003720  -0.023815   0.332478  -0.000060  -0.001397
    11  H    0.003395   0.371002  -0.036607  -0.000060   0.471367  -0.000364
    12  H   -0.042241  -0.022641   0.381958  -0.001397  -0.000364   0.469852
    13  H   -0.000094   0.000007   0.000003  -0.000002  -0.000000  -0.000000
    14  H   -0.004062  -0.000258  -0.000007   0.002152   0.000002   0.000002
    15  H    0.000003  -0.000117   0.000003  -0.000000  -0.000001  -0.000000
    16  H   -0.000117  -0.003487  -0.000023   0.000004   0.001561  -0.000000
              13         14         15         16
     1  C   -0.032291   0.003624   0.370618  -0.035023
     2  C    0.373222  -0.029459  -0.030173   0.003613
     3  C   -0.033400   0.364356   0.003413   0.000322
     4  C    0.002489  -0.035945   0.000739   0.003814
     5  C    0.000783   0.003300   0.002246  -0.034558
     6  C    0.003587   0.000336  -0.034658   0.368461
     7  N   -0.000094  -0.004062   0.000003  -0.000117
     8  C    0.000007  -0.000258  -0.000117  -0.003487
     9  C    0.000003  -0.000007   0.000003  -0.000023
    10  H   -0.000002   0.002152  -0.000000   0.000004
    11  H   -0.000000   0.000002  -0.000001   0.001561
    12  H   -0.000000   0.000002  -0.000000  -0.000000
    13  H    0.525040  -0.003657  -0.003250  -0.000143
    14  H   -0.003657   0.528465  -0.000134   0.000014
    15  H   -0.003250  -0.000134   0.511938  -0.003293
    16  H   -0.000143   0.000014  -0.003293   0.520044
 Mulliken charges:
               1
     1  C   -0.171916
     2  C   -0.242524
     3  C   -0.230473
     4  C    0.293707
     5  C    0.010821
     6  C   -0.248995
     7  N   -0.687959
     8  C   -0.215878
     9  C   -0.013169
    10  H    0.385570
    11  H    0.212301
    12  H    0.208059
    13  H    0.167706
    14  H    0.171272
    15  H    0.182666
    16  H    0.178810
 Sum of Mulliken charges =  -0.00000
 Mulliken charges with hydrogens summed into heavy atoms:
               1
     1  C    0.010751
     2  C   -0.074817
     3  C   -0.059201
     4  C    0.293707
     5  C    0.010821
     6  C   -0.070185
     7  N   -0.302388
     8  C   -0.003577
     9  C    0.194890
 Electronic spatial extent (au):  <R**2>=           1008.8919
 Charge=             -0.0000 electrons
 Dipole moment (field-independent basis, Debye):
    X=              2.7663    Y=             -1.1271    Z=              0.0228  Tot=              2.9872
 Quadrupole moment (field-independent basis, Debye-Ang):
   XX=            -44.5961   YY=            -43.3607   ZZ=            -57.6697
   XY=             -3.8835   XZ=             -0.1063   YZ=              0.0014
 Traceless Quadrupole moment (field-independent basis, Debye-Ang):
   XX=              3.9461   YY=              5.1814   ZZ=             -9.1275
   XY=             -3.8835   XZ=             -0.1063   YZ=              0.0014
 Octapole moment (field-independent basis, Debye-Ang**2):
  XXX=             18.5246  YYY=             -9.4394  ZZZ=              0.0727  XYY=             12.1808
  XXY=             -5.1884  XXZ=              0.4753  XZZ=              2.9385  YZZ=             -1.2306
  YYZ=             -0.2326  XYZ=             -0.4808
 Hexadecapole moment (field-independent basis, Debye-Ang**3):
 XXXX=           -804.2370 YYYY=           -356.9988 ZZZZ=            -60.6159 XXXY=            -26.0733
 XXXZ=             -1.3222 YYYX=            -19.3453 YYYZ=             -0.4827 ZZZX=             -0.1177
 ZZZY=             -0.0171 XXYY=           -185.0804 XXZZ=           -181.0188 YYZZ=            -88.1058
 XXYZ=              0.7826 YYXZ=              0.1248 ZZXY=             -3.7973
 N-N= 4.000099183022D+02 E-N=-1.642864825158D+03  KE= 3.608780439562D+02
 Calling FoFJK, ICntrl=  10005127 FMM=F ISym2X=0 I1Cent= 0 IOpClX= 0 NMat=1 NMatS=1 NMatT=0.
 ***** Axes restored to original set *****
 -------------------------------------------------------------------
 Center     Atomic                   Forces (Hartrees/Bohr)
 Number     Number              X              Y              Z
 -------------------------------------------------------------------
      1        6          -0.027822381   -0.027248737   -0.001985407
      2        6          -0.047337742    0.022692104    0.002611187
      3        6           0.036339168   -0.026749892   -0.002101944
      4        6          -0.004352727   -0.008601601    0.000444617
      5        6           0.010291746    0.000306884   -0.001435028
      6        6           0.019380839    0.032815301    0.001684325
      7        7          -0.013559512    0.015587716    0.000249394
      8        6          -0.018768739    0.010202956    0.000035601
      9        6           0.037994938   -0.017533677   -0.000259784
     10        1           0.000143674   -0.000656360   -0.000145086
     11        1           0.000648675    0.000006718    0.000281814
     12        1          -0.001139703   -0.000187043    0.000028295
     13        1           0.002519197    0.001778311    0.001390212
     14        1           0.000153512    0.002459964    0.000425105
     15        1           0.005119542   -0.002208892   -0.002026290
     16        1           0.000389512   -0.002663753    0.000802989
 -------------------------------------------------------------------
 Cartesian Forces:  Max     0.047337742 RMS     0.014914769

 GradGradGradGradGradGradGradGradGradGradGradGradGradGradGradGradGradGrad
 Berny optimization.
 FormGI is forming the generalized inverse of G from B-inverse, IUseBI=4.
 Internal  Forces:  Max     0.042602287 RMS     0.007544162
 Search for a local minimum.
 Step number   1 out of a maximum of   94
 All quantities printed in internal units (Hartrees-Bohrs-Radians)
 Mixed Optimization -- RFO/linear search
 Second derivative matrix not updated -- first step.
 ITU=  0
     Eigenvalues ---    0.01796   0.01876   0.01936   0.01957   0.02014
     Eigenvalues ---    0.02077   0.02091   0.02104   0.02135   0.02150
     Eigenvalues ---    0.02171   0.02192   0.02277   0.15995   0.15997
     Eigenvalues ---    0.15999   0.15999   0.16000   0.16000   0.16000
     Eigenvalues ---    0.21967   0.22184   0.22640   0.24007   0.24641
     Eigenvalues ---    0.34301   0.34775   0.34841   0.34849   0.35843
     Eigenvalues ---    0.35881   0.36568   0.37979   0.41971   0.43107
     Eigenvalues ---    0.45016   0.46141   0.46401   0.46720   0.46776
     Eigenvalues ---    0.47290   0.50149
 RFO step:  Lambda=-1.19666112D-02 EMin= 1.79641872D-02
 Linear search not attempted -- first point.
 Iteration  1 RMS(Cart)=  0.02773480 RMS(Int)=  0.00042906
 Iteration  2 RMS(Cart)=  0.00047048 RMS(Int)=  0.00020271
 Iteration  3 RMS(Cart)=  0.00000018 RMS(Int)=  0.00020271
 Variable       Old X    -DE/DX   Delta X   Delta X   Delta X     New X
                                 (Linear)    (Quad)   (Total)
    R1        2.65763  -0.00631   0.00000  -0.01168  -0.01169   2.64594
    R2        2.62302   0.03679   0.00000   0.07638   0.07638   2.69940
    R3        2.06825  -0.00567   0.00000  -0.01597  -0.01597   2.05228
    R4        2.62246   0.04260   0.00000   0.08810   0.08810   2.71056
    R5        2.05920  -0.00310   0.00000  -0.00859  -0.00859   2.05062
    R6        2.64564   0.00498   0.00000   0.00953   0.00954   2.65518
    R7        2.05934  -0.00246   0.00000  -0.00683  -0.00683   2.05251
    R8        2.68977   0.00618   0.00000   0.00922   0.00897   2.69874
    R9        2.60613  -0.00057   0.00000  -0.00337  -0.00328   2.60285
   R10        2.65581   0.01126   0.00000   0.02349   0.02350   2.67931
   R11        2.71547   0.00290   0.00000   0.00804   0.00781   2.72328
   R12        2.06041  -0.00269   0.00000  -0.00749  -0.00749   2.05292
   R13        2.61450   0.00392   0.00000   0.00892   0.00923   2.62373
   R14        1.90381   0.00067   0.00000   0.00140   0.00140   1.90522
   R15        2.58787   0.02122   0.00000   0.04340   0.04351   2.63139
   R16        2.04327   0.00023   0.00000   0.00061   0.00061   2.04388
   R17        2.04268  -0.00111   0.00000  -0.00300  -0.00300   2.03968
    A1        2.11021   0.00438   0.00000   0.02494   0.02465   2.13486
    A2        2.08048  -0.00171   0.00000  -0.00961  -0.00957   2.07091
    A3        2.09247  -0.00267   0.00000  -0.01518  -0.01513   2.07734
    A4        2.11832  -0.00699   0.00000  -0.02434  -0.02462   2.09370
    A5        2.07961   0.00318   0.00000   0.01050   0.01060   2.09021
    A6        2.08500   0.00381   0.00000   0.01411   0.01421   2.09921
    A7        2.04953  -0.00072   0.00000  -0.00364  -0.00391   2.04562
    A8        2.11773   0.00057   0.00000   0.00308   0.00315   2.12089
    A9        2.11584   0.00016   0.00000   0.00076   0.00083   2.11668
   A10        2.13411   0.00680   0.00000   0.02503   0.02492   2.15903
   A11        2.27810  -0.00261   0.00000  -0.00185  -0.00163   2.27647
   A12        1.87093  -0.00420   0.00000  -0.02313  -0.02325   1.84768
   A13        2.06944  -0.00036   0.00000  -0.00506  -0.00504   2.06440
   A14        1.86461   0.00071   0.00000   0.00107   0.00065   1.86526
   A15        2.34906  -0.00035   0.00000   0.00406   0.00443   2.35350
   A16        2.08151  -0.00299   0.00000  -0.01303  -0.01331   2.06820
   A17        2.10290   0.00181   0.00000   0.00845   0.00852   2.11142
   A18        2.09860   0.00119   0.00000   0.00490   0.00496   2.10357
   A19        1.90817   0.01382   0.00000   0.05512   0.05541   1.96358
   A20        2.18895  -0.00698   0.00000  -0.02794  -0.02808   2.16086
   A21        2.18607  -0.00685   0.00000  -0.02718  -0.02733   2.15874
   A22        1.87017   0.00449   0.00000   0.02506   0.02491   1.89508
   A23        2.21386  -0.00162   0.00000  -0.00892  -0.00885   2.20502
   A24        2.19915  -0.00287   0.00000  -0.01615  -0.01607   2.18308
   A25        1.91087  -0.01482   0.00000  -0.05804  -0.05769   1.85318
   A26        2.09958   0.00710   0.00000   0.02720   0.02702   2.12660
   A27        2.27270   0.00773   0.00000   0.03089   0.03071   2.30341
    D1        0.08496  -0.00193   0.00000  -0.05478  -0.05470   0.03026
    D2       -3.08112  -0.00143   0.00000  -0.04181  -0.04195  -3.12307
    D3       -3.06462  -0.00128   0.00000  -0.03355  -0.03318  -3.09780
    D4        0.05248  -0.00079   0.00000  -0.02058  -0.02042   0.03206
    D5       -0.08896   0.00145   0.00000   0.04957   0.05003  -0.03893
    D6        3.07230   0.00081   0.00000   0.03072   0.03124   3.10354
    D7        3.06067   0.00080   0.00000   0.02817   0.02841   3.08908
    D8       -0.06125   0.00016   0.00000   0.00932   0.00961  -0.05164
    D9       -0.03480   0.00088   0.00000   0.02736   0.02716  -0.00765
   D10        3.12057   0.00033   0.00000   0.01137   0.01122   3.13179
   D11        3.13135   0.00040   0.00000   0.01440   0.01439  -3.13745
   D12        0.00354  -0.00015   0.00000  -0.00159  -0.00155   0.00199
   D13       -0.00812  -0.00001   0.00000   0.00275   0.00275  -0.00537
   D14       -3.13901  -0.00024   0.00000  -0.00383  -0.00378   3.14039
   D15        3.11971   0.00054   0.00000   0.01874   0.01866   3.13837
   D16       -0.01119   0.00031   0.00000   0.01216   0.01213   0.00094
   D17        0.00259  -0.00025   0.00000  -0.00630  -0.00618  -0.00359
   D18       -3.12801  -0.00045   0.00000  -0.01135  -0.01113  -3.13914
   D19        3.13567  -0.00008   0.00000  -0.00102  -0.00096   3.13471
   D20        0.00507  -0.00027   0.00000  -0.00607  -0.00591  -0.00084
   D21        3.13110   0.00035   0.00000   0.00670   0.00637   3.13747
   D22       -0.00902   0.00032   0.00000   0.00777   0.00756  -0.00146
   D23       -0.00102   0.00009   0.00000   0.00066   0.00051  -0.00052
   D24       -3.14114   0.00007   0.00000   0.00173   0.00170  -3.13945
   D25        0.04569  -0.00096   0.00000  -0.02138  -0.02083   0.02486
   D26       -3.11552  -0.00032   0.00000  -0.00254  -0.00208  -3.11760
   D27       -3.11068  -0.00069   0.00000  -0.01465  -0.01421  -3.12489
   D28        0.01129  -0.00004   0.00000   0.00419   0.00454   0.01583
   D29       -0.00728   0.00035   0.00000   0.00914   0.00917   0.00190
   D30        3.13205   0.00024   0.00000   0.00694   0.00699   3.13904
   D31       -3.13531   0.00011   0.00000   0.00301   0.00312  -3.13219
   D32        0.00402  -0.00001   0.00000   0.00081   0.00094   0.00496
   D33       -0.00369   0.00018   0.00000   0.00548   0.00539   0.00170
   D34       -3.13774  -0.00006   0.00000  -0.00088  -0.00078  -3.13852
   D35        3.13643   0.00021   0.00000   0.00441   0.00420   3.14063
   D36        0.00238  -0.00004   0.00000  -0.00195  -0.00197   0.00042
   D37        0.00679  -0.00035   0.00000  -0.00915  -0.00895  -0.00217
   D38        3.13985  -0.00010   0.00000  -0.00204  -0.00199   3.13786
   D39       -3.13257  -0.00025   0.00000  -0.00698  -0.00682  -3.13939
   D40        0.00050   0.00001   0.00000   0.00012   0.00014   0.00064
         Item               Value     Threshold  Converged?
 Maximum Force            0.042602     0.000450     NO 
 RMS     Force            0.007544     0.000300     NO 
 Maximum Displacement     0.089917     0.001800     NO 
 RMS     Displacement     0.027658     0.001200     NO 
 Predicted change in Energy=-6.246572D-03
 GradGradGradGradGradGradGradGradGradGradGradGradGradGradGradGradGradGrad

                          Input orientation:                          
 ---------------------------------------------------------------------
 Center     Atomic      Atomic             Coordinates (Angstroms)
 Number     Number       Type             X           Y           Z
 ---------------------------------------------------------------------
      1          6           0       -2.186073    0.675832    0.010451
      2          6           0       -2.178781   -0.724232   -0.005421
      3          6           0       -0.932393   -1.434104   -0.006722
      4          6           0        0.244229   -0.666171   -0.001164
      5          6           0        0.258501    0.761866   -0.000776
      6          6           0       -0.983262    1.446088   -0.010787
      7          7           0        1.565305   -1.055908    0.000429
      8          6           0        1.641679    1.166310    0.002259
      9          6           0        2.437962    0.023985    0.001162
     10          1           0        1.866321   -2.018118   -0.001230
     11          1           0        2.012301    2.182404    0.001080
     12          1           0        3.509046   -0.109355   -0.000410
     13          1           0       -3.117963   -1.267797   -0.005645
     14          1           0       -0.897245   -2.519670   -0.009793
     15          1           0       -3.141085    1.191195    0.052844
     16          1           0       -1.014890    2.531753   -0.033286
 ---------------------------------------------------------------------
                    Distance matrix (angstroms):
                    1          2          3          4          5
     1  C    0.000000
     2  C    1.400173   0.000000
     3  C    2.454351   1.434365   0.000000
     4  C    2.776234   2.423709   1.405059   0.000000
     5  C    2.446113   2.854619   2.498109   1.428109   0.000000
     6  C    1.428460   2.477818   2.880644   2.443044   1.417827
     7  N    4.131811   3.758753   2.526179   1.377367   2.238759
     8  C    3.859057   4.262643   3.658973   2.304532   1.441099
     9  C    4.669763   4.676985   3.672245   2.299737   2.300983
    10  H    4.866149   4.247000   2.859004   2.111621   3.211448
    11  H    4.460514   5.100366   4.663733   3.352680   2.256932
    12  H    5.749001   5.720968   4.634801   3.311960   3.365275
    13  H    2.155545   1.085139   2.191888   3.415598   3.939552
    14  H    3.445682   2.205890   1.086139   2.176808   3.479125
    15  H    1.086022   2.144361   3.431335   3.861745   3.427008
    16  H    2.195000   3.457868   3.966804   3.437024   2.180614
                    6          7          8          9         10
     6  C    0.000000
     7  N    3.571457   0.000000
     8  C    2.639841   2.223531   0.000000
     9  C    3.705036   1.388416   1.392471   0.000000
    10  H    4.485637   1.008197   3.192344   2.120605   0.000000
    11  H    3.084752   3.269016   1.081576   2.199990   4.203058
    12  H    4.753982   2.161965   2.261502   1.079353   2.518317
    13  H    3.452846   4.688063   5.345946   5.704126   5.040446
    14  H    3.966691   2.864761   4.475794   4.194510   2.808724
    15  H    2.173757   5.215585   4.783096   5.700072   5.947834
    16  H    1.086359   4.419259   2.987148   4.267584   5.385511
                   11         12         13         14         15
    11  H    0.000000
    12  H    2.737226   0.000000
    13  H    6.182519   6.727501   0.000000
    14  H    5.529473   5.022461   2.549273   0.000000
    15  H    5.248100   6.776320   2.459797   4.336965   0.000000
    16  H    3.047476   5.238562   4.342840   5.052847   2.514999
                   16
    16  H    0.000000
 Stoichiometry    C8H7N
 Framework group  C1[X(C8H7N)]
 Deg. of freedom    42
 Full point group                 C1      NOp   1
 Largest Abelian subgroup         C1      NOp   1
 Largest concise Abelian subgroup C1      NOp   1
                         Standard orientation:                         
 ---------------------------------------------------------------------
 Center     Atomic      Atomic             Coordinates (Angstroms)
 Number     Number       Type             X           Y           Z
 ---------------------------------------------------------------------
      1          6           0       -2.181043    0.689611    0.010501
      2          6           0       -2.183576   -0.710482   -0.004291
      3          6           0       -0.942201   -1.429086   -0.004823
      4          6           0        0.239781   -0.669427    0.000352
      5          6           0        0.264077    0.758475   -0.000358
      6          6           0       -0.972851    1.451388   -0.011116
      7          7           0        1.558089   -1.068426    0.002480
      8          6           0        1.650059    1.153202    0.002613
      9          6           0        2.438304    0.005315    0.002537
     10          1           0        1.852344   -2.032726    0.001615
     11          1           0        2.027804    2.166668    0.000716
     12          1           0        3.508426   -0.135541    0.001258
     13          1           0       -3.126550   -1.247442   -0.004264
     14          1           0       -0.914674   -2.514874   -0.007053
     15          1           0       -3.132421    1.211697    0.052327
     16          1           0       -0.996854    2.537230   -0.034457
 ---------------------------------------------------------------------
 Rotational constants (GHZ):           3.8694841           1.5920340           1.1279937
 Standard basis: 6-31G(d) (6D, 7F)
 There are   149 symmetry adapted cartesian basis functions of A   symmetry.
 There are   149 symmetry adapted basis functions of A   symmetry.
   149 basis functions,   280 primitive gaussians,   149 cartesian basis functions
    31 alpha electrons       31 beta electrons
       nuclear repulsion energy       396.9090522543 Hartrees.
 NAtoms=   16 NActive=   16 NUniq=   16 SFac= 1.00D+00 NAtFMM=   60 NAOKFM=F Big=F
 Integral buffers will be    131072 words long.
 Regular integral format.
 Two-electron integral symmetry is turned on.
 One-electron integrals computed using PRISM.
 NBasis=   149 RedAO= T EigKep=  4.54D-04  NBF=   149
 NBsUse=   149 1.00D-06 EigRej= -1.00D+00 NBFU=   149
 Initial guess from the checkpoint file:  "FuncsSOGGA11X.chk"
 B after Tr=     0.000000    0.000000   -0.000000
         Rot=    0.999995   -0.000035    0.000003    0.003158 Ang=  -0.36 deg.
 ExpMin= 1.61D-01 ExpMax= 4.17D+03 ExpMxC= 6.27D+02 IAcc=3 IRadAn=         5 AccDes= 0.00D+00
 Harris functional with IExCor= 5143 and IRadAn=       5 diagonalized for initial guess.
 HarFok:  IExCor= 5143 AccDes= 0.00D+00 IRadAn=         5 IDoV= 1 UseB2=F ITyADJ=14
 ICtDFT=  3500011 ScaDFX=  1.000000  1.000000  1.000000  1.000000
 FoFCou: FMM=F IPFlag=           0 FMFlag=      100000 FMFlg1=           0
         NFxFlg=           0 DoJE=T BraDBF=F KetDBF=T FulRan=T
         wScrn=  0.000000 ICntrl=       500 IOpCl=  0 I1Cent=   200000004 NGrid=           0
         NMat0=    1 NMatS0=      1 NMatT0=    0 NMatD0=    1 NMtDS0=    0 NMtDT0=    0
 Petite list used in FoFCou.
 Keep R1 ints in memory in canonical form, NReq=64400683.
 Requested convergence on RMS density matrix=1.00D-08 within 128 cycles.
 Requested convergence on MAX density matrix=1.00D-06.
 Requested convergence on             energy=1.00D-06.
 No special actions if energy rises.
 Integral accuracy reduced to 1.0D-05 until final iterations.
 EnCoef did     1 forward-backward iterations
 Initial convergence to 1.0D-05 achieved.  Increase integral accuracy.
 SCF Done:  E(RSOGGA11X) =  -363.712231972     A.U. after   13 cycles
            NFock= 13  Conv=0.40D-08     -V/T= 2.0092
 DoSCS=F DFT=T ScalE2(SS,OS)=  1.000000  1.000000
 ExpMin= 1.61D-01 ExpMax= 4.17D+03 ExpMxC= 6.27D+02 IAcc=3 IRadAn=         5 AccDes= 0.00D+00
 HarFok:  IExCor=  205 AccDes= 0.00D+00 IRadAn=         5 IDoV=-2 UseB2=F ITyADJ=14
 ICtDFT= 12500011 ScaDFX=  1.000000  1.000000  1.000000  1.000000
 Range of M.O.s used for correlation:    10   149
 NBasis=   149 NAE=    31 NBE=    31 NFC=     9 NFV=     0
 NROrb=    140 NOA=    22 NOB=    22 NVA=   118 NVB=   118
 Orbital symmetries:
       Occupied  (A) (A) (A) (A) (A) (A) (A) (A) (A) (A) (A) (A)
                 (A) (A) (A) (A) (A) (A) (A) (A) (A) (A) (A) (A)
                 (A) (A) (A) (A) (A) (A) (A)
       Virtual   (A) (A) (A) (A) (A) (A) (A) (A) (A) (A) (A) (A)
                 (A) (A) (A) (A) (A) (A) (A) (A) (A) (A) (A) (A)
                 (A) (A) (A) (A) (A) (A) (A) (A) (A) (A) (A) (A)
                 (A) (A) (A) (A) (A) (A) (A) (A) (A) (A) (A) (A)
                 (A) (A) (A) (A) (A) (A) (A) (A) (A) (A) (A) (A)
                 (A) (A) (A) (A) (A) (A) (A) (A) (A) (A) (A) (A)
                 (A) (A) (A) (A) (A) (A) (A) (A) (A) (A) (A) (A)
                 (A) (A) (A) (A) (A) (A) (A) (A) (A) (A) (A) (A)
                 (A) (A) (A) (A) (A) (A) (A) (A) (A) (A) (A) (A)
                 (A) (A) (A) (A) (A) (A) (A) (A) (A) (A)
 Generating guess from densities on rwf.
 Convergence on wavefunction:    0.000001000000000
 Iteration     1 Dimension    12 NMult     0 NNew     12
 CISAX will form    12 AO SS matrices at one time.
 New state      5 was old state      6
 New state      6 was old state      5
 Iteration     2 Dimension    24 NMult    12 NNew     12
 Iteration     3 Dimension    36 NMult    24 NNew     12
 Iteration     4 Dimension    48 NMult    36 NNew     12
 Iteration     5 Dimension    60 NMult    48 NNew     12
 Iteration     6 Dimension    72 NMult    60 NNew     12
 Iteration     7 Dimension    84 NMult    72 NNew     12
 Iteration     8 Dimension    94 NMult    84 NNew     10
 Iteration     9 Dimension   102 NMult    94 NNew      8
 Iteration    10 Dimension   108 NMult   102 NNew      6
 Iteration    11 Dimension   110 NMult   108 NNew      2
 ***********************************************************************
 Excited states from <AA,BB:AA,BB> singles matrix:
 ***********************************************************************
 
 Ground to excited state transition densities written to RWF  633
 Ground to excited state transition electric dipole moments (Au):
       state          X           Y           Z        Dip. S.      Osc.
         1        -0.4101      0.7798     -0.0036      0.7763      0.0928
         2        -0.6965      0.0295     -0.0023      0.4860      0.0608
         3        -1.8975     -0.5089     -0.0021      3.8596      0.6180
         4         1.0685     -0.0274     -0.0038      1.1424      0.1890
         5         0.6407     -1.0694     -0.0032      1.5542      0.2712
         6         0.0056     -0.0095      0.0371      0.0015      0.0003
 Ground to excited state transition velocity dipole moments (Au):
       state          X           Y           Z        Dip. S.      Osc.
         1         0.0664     -0.1525      0.0012      0.0277      0.1029
         2         0.1243     -0.0059      0.0005      0.0155      0.0551
         3         0.4494      0.1267      0.0000      0.2180      0.6052
         4        -0.2568      0.0129      0.0022      0.0661      0.1777
         5        -0.1703      0.2807      0.0011      0.1078      0.2746
         6        -0.0014      0.0031     -0.0258      0.0007      0.0017
 Ground to excited state transition magnetic dipole moments (Au):
       state          X           Y           Z
         1         0.0017      0.0033      0.0099
         2        -0.0002     -0.0015     -0.0895
         3        -0.0014     -0.0003     -0.5301
         4        -0.0032     -0.0020      0.2767
         5         0.0013     -0.0034     -0.4977
         6         0.2371      0.0524      0.0836
 Ground to excited state transition velocity quadrupole moments (Au):
       state          XX          YY          ZZ          XY          XZ          YZ
         1         0.1642     -0.0916     -0.0099     -0.0148     -0.0036      0.0022
         2         0.1427     -0.1833      0.0097     -0.0256      0.0005      0.0023
         3        -0.0185     -0.0665     -0.0155     -0.3661     -0.0009     -0.0016
         4         0.1796      0.0176      0.0337      0.1257     -0.0053      0.0022
         5         0.6148     -0.0609      0.0192     -0.5774     -0.0014     -0.0018
         6        -0.0490      0.0190      0.0011      0.0597     -0.0868      0.1413
 <0|del|b> * <b|rxdel|0> + <0|del|b> * <b|delr+rdel|0>
 Rotatory Strengths (R) in cgs (10**-40 erg-esu-cm/Gauss)
       state          XX          YY          ZZ    R(velocity)    E-M Angle
         1        -2.0965      0.5621      0.0420     -0.4975      102.40
         2        -0.0785      0.4339     -0.5884     -0.0776       90.00
         3         0.0799     -2.0176     -0.0784     -0.6720       90.16
         4         1.3290      0.8297      1.8622      1.3403       88.86
         5        -2.4036      0.2502     -2.5067     -1.5534       90.60
         6        -4.3174     -1.5407     -0.3269     -2.0616      110.42
 1/2[<0|r|b>*<b|rxdel|0> + (<0|rxdel|b>*<b|r|0>)*]
 Rotatory Strengths (R) in cgs (10**-40 erg-esu-cm/Gauss)
       state          XX          YY          ZZ     R(length)
         1         0.4855     -1.8129      0.0256     -0.4339
         2        -0.1147      0.0310     -0.1467     -0.0768
         3        -1.8984     -0.1201     -0.7934     -0.9373
         4         2.4253     -0.0390      0.7479      1.0447
         5        -0.5787     -2.5380     -1.1120     -1.4096
         6        -0.9326      0.3537     -2.1903     -0.9231
  1/2[<0|del|b>*<b|r|0> + (<0|r|b>*<b|del|0>)*] (Au)
       state          X           Y           Z        Dip. S.   Osc.(frdel)
         1        -0.0272     -0.1189     -0.0000      0.1462      0.0974
         2        -0.0866     -0.0002     -0.0000      0.0867      0.0578
         3        -0.8528     -0.0645     -0.0000      0.9173      0.6115
         4        -0.2744     -0.0004     -0.0000      0.2748      0.1832
         5        -0.1091     -0.3002     -0.0000      0.4094      0.2729
         6        -0.0000     -0.0000     -0.0010      0.0010      0.0007

 Excitation energies and oscillator strengths:
 
 Excited State   1:      Singlet-A      4.8797 eV  254.08 nm  f=0.0928  <S**2>=0.000
      30 -> 32        -0.19338
      30 -> 33         0.15406
      31 -> 32         0.65016
 This state for optimization and/or second-order correction.
 Total Energy, E(TD-HF/TD-DFT) =  -363.532904632    
 Copying the excited state density for this state as the 1-particle RhoCI density.
 
 Excited State   2:      Singlet-A      5.1026 eV  242.98 nm  f=0.0608  <S**2>=0.000
      30 -> 32         0.55557
      31 -> 32         0.20007
      31 -> 33        -0.37517
 
 Excited State   3:      Singlet-A      6.5352 eV  189.72 nm  f=0.6180  <S**2>=0.000
      29 -> 32        -0.17586
      30 -> 32         0.34210
      30 -> 33         0.15799
      31 -> 33         0.55491
      31 -> 34        -0.10581
 
 Excited State   4:      Singlet-A      6.7528 eV  183.60 nm  f=0.1890  <S**2>=0.000
      29 -> 32        -0.49151
      30 -> 32        -0.14687
      30 -> 33         0.42354
      31 -> 33        -0.19811
 
 Excited State   5:      Singlet-A      7.1231 eV  174.06 nm  f=0.2712  <S**2>=0.000
      29 -> 32         0.42982
      30 -> 33         0.50557
      31 -> 32        -0.17045
      31 -> 34         0.13523
 
 Excited State   6:      Singlet-A      7.2566 eV  170.86 nm  f=0.0003  <S**2>=0.000
      29 -> 35         0.11762
      31 -> 35         0.68742
 SavETr:  write IOETrn=   770 NScale= 10 NData=  16 NLR=1 NState=    6 LETran=     118.
          IDoAtm=1111111111111111
          Differentiating once with respect to electric field.
                with respect to dipole field.
          Differentiating once with respect to nuclear coordinates.
 Keep R1 ints in memory in canonical form, NReq=64412969.
          There are     1 degrees of freedom in the 1st order CPHF.  IDoFFX=0 NUNeed=     1.
 LinEq1:  Iter=  0 NonCon=     1 RMS=7.67D-03 Max=1.79D-01 NDo=     1
 AX will form     1 AO Fock derivatives at one time.
 LinEq1:  Iter=  1 NonCon=     1 RMS=3.17D-03 Max=7.05D-02 NDo=     1
 LinEq1:  Iter=  2 NonCon=     1 RMS=1.92D-03 Max=4.85D-02 NDo=     1
 LinEq1:  Iter=  3 NonCon=     1 RMS=7.17D-04 Max=1.79D-02 NDo=     1
 LinEq1:  Iter=  4 NonCon=     1 RMS=3.19D-04 Max=9.98D-03 NDo=     1
 LinEq1:  Iter=  5 NonCon=     1 RMS=2.09D-04 Max=7.02D-03 NDo=     1
 LinEq1:  Iter=  6 NonCon=     1 RMS=9.46D-05 Max=2.31D-03 NDo=     1
 LinEq1:  Iter=  7 NonCon=     1 RMS=4.74D-05 Max=9.98D-04 NDo=     1
 LinEq1:  Iter=  8 NonCon=     1 RMS=2.23D-05 Max=4.06D-04 NDo=     1
 LinEq1:  Iter=  9 NonCon=     1 RMS=1.26D-05 Max=2.03D-04 NDo=     1
 LinEq1:  Iter= 10 NonCon=     1 RMS=5.40D-06 Max=9.18D-05 NDo=     1
 LinEq1:  Iter= 11 NonCon=     1 RMS=1.85D-06 Max=2.53D-05 NDo=     1
 LinEq1:  Iter= 12 NonCon=     1 RMS=7.19D-07 Max=1.28D-05 NDo=     1
 LinEq1:  Iter= 13 NonCon=     1 RMS=2.94D-07 Max=4.55D-06 NDo=     1
 LinEq1:  Iter= 14 NonCon=     1 RMS=9.43D-08 Max=1.96D-06 NDo=     1
 LinEq1:  Iter= 15 NonCon=     1 RMS=5.98D-08 Max=1.76D-06 NDo=     1
 LinEq1:  Iter= 16 NonCon=     1 RMS=1.77D-08 Max=2.94D-07 NDo=     1
 LinEq1:  Iter= 17 NonCon=     1 RMS=3.83D-09 Max=4.48D-08 NDo=     1
 LinEq1:  Iter= 18 NonCon=     1 RMS=2.04D-09 Max=4.86D-08 NDo=     1
 LinEq1:  Iter= 19 NonCon=     1 RMS=7.53D-10 Max=1.06D-08 NDo=     1
 LinEq1:  Iter= 20 NonCon=     1 RMS=1.79D-10 Max=2.49D-09 NDo=     1
 LinEq1:  Iter= 21 NonCon=     0 RMS=5.02D-11 Max=6.12D-10 NDo=     1
 Linear equations converged to 1.000D-10 1.000D-09 after    21 iterations.
 End of Minotr F.D. properties file   721 does not exist.
 End of Minotr F.D. properties file   722 does not exist.
 End of Minotr F.D. properties file   788 does not exist.
 Calling FoFJK, ICntrl=  10005127 FMM=F ISym2X=0 I1Cent= 0 IOpClX= 0 NMat=1 NMatS=1 NMatT=0.
 ***** Axes restored to original set *****
 -------------------------------------------------------------------
 Center     Atomic                   Forces (Hartrees/Bohr)
 Number     Number              X              Y              Z
 -------------------------------------------------------------------
      1        6          -0.001341941   -0.018768850   -0.000259818
      2        6          -0.007870664    0.023380382    0.001142209
      3        6           0.016983998   -0.006018963   -0.000969926
      4        6          -0.009415929    0.009124009    0.000114632
      5        6           0.005219657   -0.006753233   -0.000623453
      6        6           0.001849310    0.006420413    0.000956021
      7        7           0.011269678    0.007715855    0.000115562
      8        6          -0.018005354    0.008152649   -0.000452851
      9        6           0.002292018   -0.021703644    0.000122595
     10        1           0.000569961   -0.001604792   -0.000112321
     11        1           0.000177296    0.000548784    0.000142533
     12        1          -0.001380011   -0.000673432    0.000052863
     13        1           0.001023647   -0.000692743    0.000640124
     14        1          -0.000316596    0.000316020    0.000063128
     15        1           0.000086793    0.001349441   -0.001463601
     16        1          -0.001141864   -0.000791897    0.000532302
 -------------------------------------------------------------------
 Cartesian Forces:  Max     0.023380382 RMS     0.007427510

 GradGradGradGradGradGradGradGradGradGradGradGradGradGradGradGradGradGrad
 Berny optimization.
 Using GEDIIS/GDIIS optimizer.
 FormGI is forming the generalized inverse of G from B-inverse, IUseBI=4.
 Internal  Forces:  Max     0.015150923 RMS     0.003547414
 Search for a local minimum.
 Step number   2 out of a maximum of   94
 All quantities printed in internal units (Hartrees-Bohrs-Radians)
 Mixed Optimization -- RFO/linear search
 Update second derivatives using D2CorX and points    1    2
 DE= -6.97D-03 DEPred=-6.25D-03 R= 1.12D+00
 TightC=F SS=  1.41D+00  RLast= 2.11D-01 DXNew= 5.0454D-01 6.3210D-01
 Trust test= 1.12D+00 RLast= 2.11D-01 DXMaxT set to 5.05D-01
 ITU=  1  0
 Use linear search instead of GDIIS.
     Eigenvalues ---    0.01794   0.01877   0.01936   0.01956   0.02012
     Eigenvalues ---    0.02059   0.02084   0.02104   0.02134   0.02144
     Eigenvalues ---    0.02166   0.02190   0.02280   0.15816   0.15999
     Eigenvalues ---    0.16000   0.16000   0.16000   0.16000   0.16012
     Eigenvalues ---    0.19678   0.22048   0.23173   0.24524   0.25060
     Eigenvalues ---    0.31866   0.34459   0.34798   0.34844   0.35086
     Eigenvalues ---    0.35846   0.35910   0.37490   0.38192   0.42134
     Eigenvalues ---    0.43589   0.45495   0.46293   0.46413   0.46855
     Eigenvalues ---    0.48872   0.64280
 RFO step:  Lambda=-3.04570237D-03 EMin= 1.79441725D-02
 Quartic linear search produced a step of  0.15855.
 Iteration  1 RMS(Cart)=  0.01656329 RMS(Int)=  0.00017509
 Iteration  2 RMS(Cart)=  0.00018726 RMS(Int)=  0.00009698
 Iteration  3 RMS(Cart)=  0.00000002 RMS(Int)=  0.00009698
 Variable       Old X    -DE/DX   Delta X   Delta X   Delta X     New X
                                 (Linear)    (Quad)   (Total)
    R1        2.64594  -0.01515  -0.00185  -0.03987  -0.04178   2.60416
    R2        2.69940   0.00152   0.01211   0.01038   0.02245   2.72185
    R3        2.05228   0.00051  -0.00253   0.00038  -0.00215   2.05013
    R4        2.71056   0.01046   0.01397   0.03267   0.04661   2.75717
    R5        2.05062  -0.00054  -0.00136  -0.00248  -0.00384   2.04678
    R6        2.65518  -0.00848   0.00151  -0.02065  -0.01910   2.63607
    R7        2.05251  -0.00033  -0.00108  -0.00163  -0.00272   2.04979
    R8        2.69874  -0.00617   0.00142  -0.01732  -0.01591   2.68283
    R9        2.60285   0.00437  -0.00052   0.00899   0.00854   2.61139
   R10        2.67931   0.00131   0.00373   0.00543   0.00918   2.68849
   R11        2.72328  -0.00865   0.00124  -0.02369  -0.02256   2.70073
   R12        2.05292  -0.00077  -0.00119  -0.00315  -0.00433   2.04859
   R13        2.62373  -0.01397   0.00146  -0.03191  -0.03034   2.59339
   R14        1.90522   0.00170   0.00022   0.00433   0.00455   1.90977
   R15        2.63139   0.01489   0.00690   0.03835   0.04525   2.67663
   R16        2.04388   0.00058   0.00010   0.00189   0.00199   2.04587
   R17        2.03968  -0.00129  -0.00048  -0.00435  -0.00483   2.03485
    A1        2.13486   0.00036   0.00391   0.00419   0.00788   2.14274
    A2        2.07091   0.00109  -0.00152   0.00708   0.00566   2.07657
    A3        2.07734  -0.00144  -0.00240  -0.01118  -0.01349   2.06385
    A4        2.09370   0.00198  -0.00390   0.00845   0.00433   2.09803
    A5        2.09021   0.00014   0.00168   0.00372   0.00548   2.09570
    A6        2.09921  -0.00212   0.00225  -0.01209  -0.00975   2.08946
    A7        2.04562  -0.00241  -0.00062  -0.01326  -0.01399   2.03163
    A8        2.12089   0.00089   0.00050   0.00448   0.00501   2.12589
    A9        2.11668   0.00152   0.00013   0.00877   0.00893   2.12561
   A10        2.15903   0.00055   0.00395   0.00559   0.00952   2.16855
   A11        2.27647  -0.00439  -0.00026  -0.01828  -0.01853   2.25794
   A12        1.84768   0.00385  -0.00369   0.01270   0.00902   1.85670
   A13        2.06440   0.00224  -0.00080   0.01025   0.00950   2.07391
   A14        1.86526  -0.00144   0.00010  -0.00745  -0.00750   1.85776
   A15        2.35350  -0.00080   0.00070  -0.00279  -0.00199   2.35151
   A16        2.06820  -0.00270  -0.00211  -0.01448  -0.01675   2.05145
   A17        2.11142   0.00015   0.00135  -0.00113   0.00025   2.11167
   A18        2.10357   0.00255   0.00079   0.01561   0.01642   2.11999
   A19        1.96358  -0.00094   0.00878  -0.00176   0.00717   1.97075
   A20        2.16086   0.00053  -0.00445   0.00129  -0.00323   2.15763
   A21        2.15874   0.00041  -0.00433   0.00047  -0.00394   2.15480
   A22        1.89508   0.00017   0.00395   0.00599   0.00984   1.90492
   A23        2.20502  -0.00011  -0.00140  -0.00290  -0.00426   2.20076
   A24        2.18308  -0.00006  -0.00255  -0.00306  -0.00557   2.17751
   A25        1.85318  -0.00163  -0.00915  -0.00948  -0.01853   1.83465
   A26        2.12660  -0.00004   0.00428  -0.00144   0.00280   2.12940
   A27        2.30341   0.00167   0.00487   0.01091   0.01573   2.31914
    D1        0.03026  -0.00066  -0.00867  -0.02628  -0.03505  -0.00479
    D2       -3.12307  -0.00047  -0.00665  -0.01816  -0.02484   3.13527
    D3       -3.09780  -0.00077  -0.00526  -0.03424  -0.03951  -3.13731
    D4        0.03206  -0.00058  -0.00324  -0.02611  -0.02930   0.00275
    D5       -0.03893   0.00067   0.00793   0.02557   0.03354  -0.00539
    D6        3.10354   0.00039   0.00495   0.01451   0.01970   3.12324
    D7        3.08908   0.00080   0.00450   0.03369   0.03811   3.12719
    D8       -0.05164   0.00051   0.00152   0.02263   0.02427  -0.02736
    D9       -0.00765   0.00034   0.00431   0.01338   0.01759   0.00994
   D10        3.13179   0.00016   0.00178   0.00673   0.00856   3.14035
   D11       -3.13745   0.00014   0.00228   0.00511   0.00732  -3.13013
   D12        0.00199  -0.00005  -0.00025  -0.00154  -0.00171   0.00028
   D13       -0.00537  -0.00003   0.00044  -0.00051   0.00007  -0.00529
   D14        3.14039  -0.00013  -0.00060  -0.00428  -0.00466   3.13573
   D15        3.13837   0.00016   0.00296   0.00613   0.00911  -3.13570
   D16        0.00094   0.00006   0.00192   0.00236   0.00438   0.00532
   D17       -0.00359  -0.00004  -0.00098  -0.00027  -0.00113  -0.00472
   D18       -3.13914  -0.00007  -0.00176  -0.00171  -0.00336   3.14069
   D19        3.13471   0.00002  -0.00015   0.00265   0.00262   3.13733
   D20       -0.00084  -0.00001  -0.00094   0.00121   0.00039  -0.00045
   D21        3.13747   0.00012   0.00101   0.00471   0.00556  -3.14016
   D22       -0.00146   0.00009   0.00120   0.00360   0.00471   0.00326
   D23       -0.00052   0.00004   0.00008   0.00144   0.00146   0.00095
   D24       -3.13945   0.00001   0.00027   0.00034   0.00062  -3.13883
   D25        0.02486  -0.00031  -0.00330  -0.01185  -0.01491   0.00994
   D26       -3.11760  -0.00002  -0.00033  -0.00086  -0.00101  -3.11862
   D27       -3.12489  -0.00026  -0.00225  -0.00990  -0.01191  -3.13680
   D28        0.01583   0.00002   0.00072   0.00110   0.00199   0.01782
   D29        0.00190  -0.00004   0.00145  -0.00344  -0.00206  -0.00016
   D30        3.13904   0.00008   0.00111   0.00312   0.00422  -3.13992
   D31       -3.13219  -0.00009   0.00049  -0.00529  -0.00486  -3.13705
   D32        0.00496   0.00003   0.00015   0.00126   0.00142   0.00638
   D33        0.00170  -0.00007   0.00085  -0.00361  -0.00273  -0.00103
   D34       -3.13852  -0.00007  -0.00012  -0.00279  -0.00285  -3.14137
   D35        3.14063  -0.00004   0.00067  -0.00250  -0.00189   3.13875
   D36        0.00042  -0.00004  -0.00031  -0.00168  -0.00201  -0.00160
   D37       -0.00217   0.00006  -0.00142   0.00421   0.00287   0.00070
   D38        3.13786   0.00005  -0.00032   0.00326   0.00299   3.14085
   D39       -3.13939  -0.00006  -0.00108  -0.00224  -0.00331   3.14049
   D40        0.00064  -0.00007   0.00002  -0.00319  -0.00318  -0.00255
         Item               Value     Threshold  Converged?
 Maximum Force            0.015151     0.000450     NO 
 RMS     Force            0.003547     0.000300     NO 
 Maximum Displacement     0.071248     0.001800     NO 
 RMS     Displacement     0.016569     0.001200     NO 
 Predicted change in Energy=-1.734208D-03
 GradGradGradGradGradGradGradGradGradGradGradGradGradGradGradGradGradGrad

                          Input orientation:                          
 ---------------------------------------------------------------------
 Center     Atomic      Atomic             Coordinates (Angstroms)
 Number     Number       Type             X           Y           Z
 ---------------------------------------------------------------------
      1          6           0       -2.191763    0.668595    0.003330
      2          6           0       -2.179409   -0.709413    0.004191
      3          6           0       -0.912029   -1.432194   -0.006081
      4          6           0        0.245812   -0.654192   -0.004050
      5          6           0        0.254479    0.765465    0.000978
      6          6           0       -0.987697    1.459025   -0.001665
      7          7           0        1.569201   -1.052000   -0.005684
      8          6           0        1.627644    1.161599    0.002760
      9          6           0        2.444836    0.004701   -0.000894
     10          1           0        1.862856   -2.018982   -0.011487
     11          1           0        1.997960    2.178911    0.007925
     12          1           0        3.512073   -0.138476   -0.001622
     13          1           0       -3.111753   -1.260561    0.013941
     14          1           0       -0.872086   -2.516159   -0.004516
     15          1           0       -3.145417    1.185681    0.015141
     16          1           0       -1.031058    2.542079   -0.019276
 ---------------------------------------------------------------------
                    Distance matrix (angstroms):
                    1          2          3          4          5
     1  C    0.000000
     2  C    1.378064   0.000000
     3  C    2.459903   1.459030   0.000000
     4  C    2.773372   2.425864   1.394951   0.000000
     5  C    2.448161   2.845890   2.488071   1.419692   0.000000
     6  C    1.440340   2.474335   2.892212   2.446883   1.422686
     7  N    4.135865   3.764245   2.510190   1.381888   2.243149
     8  C    3.851094   4.241974   3.630121   2.281799   1.429163
     9  C    4.683890   4.679063   3.651471   2.295617   2.318712
[...]
 ! A26   A(7,9,12)             122.6285         -DE/DX =    0.0                 !
 ! A27   A(8,9,12)             131.1836         -DE/DX =    0.0                 !
 ! D1    D(6,1,2,3)              0.0026         -DE/DX =    0.0                 !
 ! D2    D(6,1,2,13)           179.9877         -DE/DX =    0.0                 !
 ! D3    D(15,1,2,3)          -179.9951         -DE/DX =    0.0                 !
 ! D4    D(15,1,2,13)           -0.0101         -DE/DX =    0.0                 !
 ! D5    D(2,1,6,5)             -0.0242         -DE/DX =    0.0                 !
 ! D6    D(2,1,6,16)           179.8679         -DE/DX =    0.0                 !
 ! D7    D(15,1,6,5)           179.9735         -DE/DX =    0.0                 !
 ! D8    D(15,1,6,16)           -0.1343         -DE/DX =    0.0                 !
 ! D9    D(1,2,3,4)              0.0145         -DE/DX =    0.0                 !
 ! D10   D(1,2,3,14)           179.9502         -DE/DX =    0.0                 !
 ! D11   D(13,2,3,4)          -179.9708         -DE/DX =    0.0                 !
 ! D12   D(13,2,3,14)           -0.0351         -DE/DX =    0.0                 !
 ! D13   D(2,3,4,5)             -0.0096         -DE/DX =    0.0                 !
 ! D14   D(2,3,4,7)            179.9223         -DE/DX =    0.0                 !
 ! D15   D(14,3,4,5)          -179.9444         -DE/DX =    0.0                 !
 ! D16   D(14,3,4,7)            -0.0124         -DE/DX =    0.0                 !
 ! D17   D(3,4,5,6)             -0.0121         -DE/DX =    0.0                 !
 ! D18   D(3,4,5,8)            179.918          -DE/DX =    0.0                 !
 ! D19   D(7,4,5,6)           -179.957          -DE/DX =    0.0                 !
 ! D20   D(7,4,5,8)             -0.0269         -DE/DX =    0.0                 !
 ! D21   D(3,4,7,9)           -179.9257         -DE/DX =    0.0                 !
 ! D22   D(3,4,7,10)             0.1589         -DE/DX =    0.0                 !
 ! D23   D(5,4,7,9)              0.0156         -DE/DX =    0.0                 !
 ! D24   D(5,4,7,10)          -179.8998         -DE/DX =    0.0                 !
 ! D25   D(4,5,6,1)              0.0286         -DE/DX =    0.0                 !
 ! D26   D(4,5,6,16)          -179.8641         -DE/DX =    0.0                 !
 ! D27   D(8,5,6,1)           -179.8793         -DE/DX =    0.0                 !
 ! D28   D(8,5,6,16)             0.228          -DE/DX =    0.0                 !
 ! D29   D(4,5,8,9)              0.0289         -DE/DX =    0.0                 !
 ! D30   D(4,5,8,11)          -179.9442         -DE/DX =    0.0                 !
 ! D31   D(6,5,8,9)            179.9455         -DE/DX =    0.0                 !
 ! D32   D(6,5,8,11)            -0.0276         -DE/DX =    0.0                 !
 ! D33   D(4,7,9,8)              0.0024         -DE/DX =    0.0                 !
 ! D34   D(4,7,9,12)          -179.8937         -DE/DX =    0.0                 !
 ! D35   D(10,7,9,8)           179.9171         -DE/DX =    0.0                 !
 ! D36   D(10,7,9,12)            0.021          -DE/DX =    0.0                 !
 ! D37   D(5,8,9,7)             -0.0196         -DE/DX =    0.0                 !
 ! D38   D(5,8,9,12)           179.8642         -DE/DX =    0.0                 !
 ! D39   D(11,8,9,7)           179.9545         -DE/DX =    0.0                 !
 ! D40   D(11,8,9,12)           -0.1618         -DE/DX =    0.0                 !
 --------------------------------------------------------------------------------
 GradGradGradGradGradGradGradGradGradGradGradGradGradGradGradGradGradGrad

                          Input orientation:                          
 ---------------------------------------------------------------------
 Center     Atomic      Atomic             Coordinates (Angstroms)
 Number     Number       Type             X           Y           Z
 ---------------------------------------------------------------------
      1          6           0       -2.185749    0.683243    0.003477
      2          6           0       -2.156939   -0.697116    0.002539
      3          6           0       -0.909845   -1.442006   -0.000543
      4          6           0        0.244307   -0.657738   -0.002138
      5          6           0        0.245123    0.754071   -0.001132
      6          6           0       -0.994090    1.466023    0.001428
      7          7           0        1.588913   -1.060668   -0.003643
      8          6           0        1.603943    1.161537   -0.001433
      9          6           0        2.429190   -0.009880   -0.003315
     10          1           0        1.883274   -2.026310   -0.006068
     11          1           0        1.982810    2.175503   -0.000035
     12          1           0        3.501920   -0.122997   -0.005998
     13          1           0       -3.089371   -1.254580    0.004380
     14          1           0       -0.890971   -2.525601   -0.000471
     15          1           0       -3.146697    1.190946    0.005890
     16          1           0       -1.022169    2.549653    0.000053
 ---------------------------------------------------------------------
                    Distance matrix (angstroms):
                    1          2          3          4          5
     1  C    0.000000
     2  C    1.380660   0.000000
     3  C    2.478836   1.452622   0.000000
     4  C    2.775506   2.401573   1.395402   0.000000
     5  C    2.431908   2.806396   2.481271   1.411810   0.000000
     6  C    1.425763   2.455889   2.909250   2.458455   1.429171
     7  N    4.158047   3.763458   2.527691   1.403681   2.258110
     8  C    3.819759   4.195097   3.619057   2.271205   1.418599
     9  C    4.666705   4.637338   3.633201   2.278911   2.313823
    10  H    4.888632   4.253252   2.853587   2.135233   3.227086
    11  H    4.427610   5.038796   4.631827   3.324101   2.245000
    12  H    5.744536   5.687914   4.604725   3.301213   3.372833
    13  H    2.138151   1.086370   2.187575   3.386690   3.892757
    14  H    3.460223   2.223969   1.083759   2.185812   3.470873
    15  H    1.086825   2.131762   3.454849   3.862201   3.419846
    16  H    2.199413   3.439363   3.993239   3.448379   2.197759
                    6          7          8          9         10
     6  C    0.000000
     7  N    3.613323   0.000000
     8  C    2.615817   2.222257   0.000000
     9  C    3.727890   1.345445   1.432918   0.000000
    10  H    4.525005   1.009513   3.200064   2.089023   0.000000
    11  H    3.060277   3.260057   1.082436   2.230508   4.202995
    12  H    4.768558   2.130453   2.291803   1.078681   2.498522
    13  H    3.433932   4.682307   5.278717   5.657195   5.032184
    14  H    3.992956   2.880254   4.451919   4.165613   2.818823
    15  H    2.170116   5.243649   4.750737   5.703734   5.970886
    16  H    1.083994   4.455579   2.970410   4.296871   5.420431
                   11         12         13         14         15
    11  H    0.000000
    12  H    2.755146   0.000000
    13  H    6.123112   6.687728   0.000000
    14  H    5.509899   5.006998   2.539385   0.000000
    15  H    5.223143   6.777218   2.446198   4.347534   0.000000
    16  H    3.028182   5.254567   4.329611   5.076949   2.521852
                   16
    16  H    0.000000
 Stoichiometry    C8H7N
 Framework group  C1[X(C8H7N)]
 Deg. of freedom    42
 Full point group                 C1      NOp   1
 Largest Abelian subgroup         C1      NOp   1
 Largest concise Abelian subgroup C1      NOp   1
                         Standard orientation:                         
 ---------------------------------------------------------------------
 Center     Atomic      Atomic             Coordinates (Angstroms)
 Number     Number       Type             X           Y           Z
 ---------------------------------------------------------------------
      1          6           0       -2.196260    0.646619    0.000420
      2          6           0       -2.145505   -0.733107    0.000500
      3          6           0       -0.886723   -1.458075   -0.000268
      4          6           0        0.254815   -0.655556   -0.000766
      5          6           0        0.233182    0.756088   -0.000757
      6          6           0       -1.017196    1.448247   -0.000476
      7          7           0        1.605659   -1.037057   -0.000060
      8          6           0        1.585352    1.185108    0.000598
      9          6           0        2.429121    0.026959    0.000728
     10          1           0        1.915339   -1.997897   -0.001380
     11          1           0        1.948046    2.204970    0.001822
     12          1           0        3.503517   -0.069087   -0.000339
     13          1           0       -3.068957   -1.305326    0.001401
     14          1           0       -0.850622   -2.541233    0.000598
     15          1           0       -3.165161    1.138980    0.001098
     16          1           0       -1.062498    2.531292   -0.002658
 ---------------------------------------------------------------------
 Rotational constants (GHZ):           3.8576950           1.6053106           1.1335885

 **********************************************************************

            Population analysis using the CI Density.

 **********************************************************************

 Orbital symmetries:
       Occupied  (A) (A) (A) (A) (A) (A) (A) (A) (A) (A) (A) (A)
                 (A) (A) (A) (A) (A) (A) (A) (A) (A) (A) (A) (A)
                 (A) (A) (A) (A) (A) (A) (A)
       Virtual   (A) (A) (A) (A) (A) (A) (A) (A) (A) (A) (A) (A)
                 (A) (A) (A) (A) (A) (A) (A) (A) (A) (A) (A) (A)
                 (A) (A) (A) (A) (A) (A) (A) (A) (A) (A) (A) (A)
                 (A) (A) (A) (A) (A) (A) (A) (A) (A) (A) (A) (A)
                 (A) (A) (A) (A) (A) (A) (A) (A) (A) (A) (A) (A)
                 (A) (A) (A) (A) (A) (A) (A) (A) (A) (A) (A) (A)
                 (A) (A) (A) (A) (A) (A) (A) (A) (A) (A) (A) (A)
                 (A) (A) (A) (A) (A) (A) (A) (A) (A) (A) (A) (A)
                 (A) (A) (A) (A) (A) (A) (A) (A) (A) (A) (A) (A)
                 (A) (A) (A) (A) (A) (A) (A) (A) (A) (A)
 The electronic state is 1-A.
 Alpha  occ. eigenvalues --  -14.70272 -10.49222 -10.48426 -10.46081 -10.45428
 Alpha  occ. eigenvalues --  -10.45109 -10.44944 -10.44604 -10.43863  -1.07957
 Alpha  occ. eigenvalues --   -0.92095  -0.85584  -0.81811  -0.78237  -0.69337
 Alpha  occ. eigenvalues --   -0.65750  -0.63716  -0.59447  -0.53617  -0.52232
 Alpha  occ. eigenvalues --   -0.48300  -0.47699  -0.46792  -0.44634  -0.43583
 Alpha  occ. eigenvalues --   -0.38868  -0.38387  -0.37111  -0.30376  -0.25679
 Alpha  occ. eigenvalues --   -0.21642
 Alpha virt. eigenvalues --    0.00782   0.06279   0.10238   0.11391   0.14277
 Alpha virt. eigenvalues --    0.17217   0.18528   0.20473   0.21620   0.22544
 Alpha virt. eigenvalues --    0.22560   0.26069   0.28837   0.30410   0.32400
 Alpha virt. eigenvalues --    0.36591   0.37996   0.42049   0.48408   0.55384
 Alpha virt. eigenvalues --    0.56579   0.58626   0.58725   0.59312   0.62247
 Alpha virt. eigenvalues --    0.62678   0.63971   0.64994   0.65360   0.67444
 Alpha virt. eigenvalues --    0.67753   0.67927   0.68899   0.69657   0.71912
 Alpha virt. eigenvalues --    0.75648   0.77721   0.84067   0.87719   0.87951
 Alpha virt. eigenvalues --    0.88908   0.91491   0.93260   0.93467   0.94443
 Alpha virt. eigenvalues --    0.95780   0.97349   1.00449   1.02983   1.03126
 Alpha virt. eigenvalues --    1.04591   1.09342   1.12345   1.17086   1.18825
 Alpha virt. eigenvalues --    1.25603   1.28236   1.31911   1.34806   1.36817
 Alpha virt. eigenvalues --    1.39717   1.42544   1.45567   1.47720   1.52044
 Alpha virt. eigenvalues --    1.52930   1.54578   1.55497   1.56414   1.59475
 Alpha virt. eigenvalues --    1.65499   1.81238   1.83845   1.88570   1.94700
 Alpha virt. eigenvalues --    1.95124   1.98071   2.00701   2.02393   2.05380
 Alpha virt. eigenvalues --    2.05537   2.08016   2.15875   2.17955   2.20655
 Alpha virt. eigenvalues --    2.21080   2.27683   2.28286   2.30064   2.33532
 Alpha virt. eigenvalues --    2.33838   2.42812   2.45749   2.46292   2.53027
 Alpha virt. eigenvalues --    2.61947   2.65239   2.67451   2.70760   2.71247
 Alpha virt. eigenvalues --    2.78566   2.81826   2.85865   2.90179   2.97173
 Alpha virt. eigenvalues --    3.03108   3.12776   3.29901   3.47804   4.10408
 Alpha virt. eigenvalues --    4.19407   4.21336   4.25381   4.31962   4.44052
 Alpha virt. eigenvalues --    4.51384   4.56951   4.86583
          Condensed to atoms (all electrons):
               1          2          3          4          5          6
     1  C    4.923267   0.602721  -0.057768  -0.028346  -0.025586   0.459848
     2  C    0.602721   4.975136   0.405237  -0.015637  -0.024448  -0.056796
     3  C   -0.057768   0.405237   5.221147   0.520243  -0.064434  -0.019195
     4  C   -0.028346  -0.015637   0.520243   4.675771   0.563882  -0.056230
     5  C   -0.025586  -0.024448  -0.064434   0.563882   4.713630   0.474203
     6  C    0.459848  -0.056796  -0.019195  -0.056230   0.474203   5.182363
     7  N    0.000049   0.004458  -0.071180   0.250331  -0.050958   0.006026
     8  C    0.005924   0.000032   0.008198  -0.052089   0.495687  -0.063895
     9  C   -0.000367  -0.000215   0.005755  -0.112150  -0.074284   0.008462
    10  H    0.000002  -0.000022  -0.001190  -0.018798   0.004471  -0.000093
    11  H    0.000015   0.000003  -0.000118   0.004848  -0.020691  -0.002100
    12  H    0.000002   0.000001  -0.000054   0.003987   0.001362  -0.000072
    13  H   -0.031650   0.371234  -0.035464   0.002291   0.000781   0.003355
    14  H    0.002972  -0.026834   0.367318  -0.035234   0.003135   0.000345
    15  H    0.372190  -0.034366   0.003569   0.000688   0.002430  -0.033834
    16  H   -0.032184   0.003463   0.000356   0.003664  -0.035701   0.370129
               7          8          9         10         11         12
     1  C    0.000049   0.005924  -0.000367   0.000002   0.000015   0.000002
     2  C    0.004458   0.000032  -0.000215  -0.000022   0.000003   0.000001
     3  C   -0.071180   0.008198   0.005755  -0.001190  -0.000118  -0.000054
     4  C    0.250331  -0.052089  -0.112150  -0.018798   0.004848   0.003987
     5  C   -0.050958   0.495687  -0.074284   0.004471  -0.020691   0.001362
     6  C    0.006026  -0.063895   0.008462  -0.000093  -0.002100  -0.000072
     7  N    6.972058  -0.076169   0.359518   0.316534   0.003486  -0.038440
     8  C   -0.076169   5.135296   0.449674   0.004659   0.368116  -0.021668
     9  C    0.359518   0.449674   5.014623  -0.026325  -0.037118   0.380696
    10  H    0.316534   0.004659  -0.026325   0.332512  -0.000066  -0.001736
    11  H    0.003486   0.368116  -0.037118  -0.000066   0.461117  -0.000053
    12  H   -0.038440  -0.021668   0.380696  -0.001736  -0.000053   0.449209
    13  H   -0.000086   0.000007   0.000003  -0.000001  -0.000000  -0.000000
    14  H   -0.003855  -0.000254  -0.000013   0.002152   0.000002   0.000001
    15  H    0.000003  -0.000122   0.000003  -0.000000  -0.000001  -0.000000
    16  H   -0.000111  -0.003465  -0.000043   0.000003   0.001562  -0.000000
              13         14         15         16
     1  C   -0.031650   0.002972   0.372190  -0.032184
     2  C    0.371234  -0.026834  -0.034366   0.003463
     3  C   -0.035464   0.367318   0.003569   0.000356
     4  C    0.002291  -0.035234   0.000688   0.003664
     5  C    0.000781   0.003135   0.002430  -0.035701
     6  C    0.003355   0.000345  -0.033834   0.370129
     7  N   -0.000086  -0.003855   0.000003  -0.000111
     8  C    0.000007  -0.000254  -0.000122  -0.003465
     9  C    0.000003  -0.000013   0.000003  -0.000043
    10  H   -0.000001   0.002152  -0.000000   0.000003
    11  H   -0.000000   0.000002  -0.000001   0.001562
    12  H   -0.000000   0.000001  -0.000000  -0.000000
    13  H    0.525948  -0.002524  -0.003852  -0.000135
    14  H   -0.002524   0.524734  -0.000123   0.000011
    15  H   -0.003852  -0.000123   0.528152  -0.002705
    16  H   -0.000135   0.000011  -0.002705   0.526530
 Mulliken charges:
               1
     1  C   -0.191089
     2  C   -0.203966
     3  C   -0.282423
     4  C    0.292778
     5  C    0.036520
     6  C   -0.272517
     7  N   -0.671662
     8  C   -0.249933
     9  C    0.031780
    10  H    0.387897
    11  H    0.220998
    12  H    0.226765
    13  H    0.170093
    14  H    0.168168
    15  H    0.167965
    16  H    0.168627
 Sum of Mulliken charges =  -0.00000
 Mulliken charges with hydrogens summed into heavy atoms:
               1
     1  C   -0.023124
     2  C   -0.033873
     3  C   -0.114255
     4  C    0.292778
     5  C    0.036520
     6  C   -0.103890
     7  N   -0.283765
     8  C   -0.028935
     9  C    0.258544
 Electronic spatial extent (au):  <R**2>=           1020.0455
 Charge=             -0.0000 electrons
 Dipole moment (field-independent basis, Debye):
    X=              4.2030    Y=             -1.3523    Z=             -0.0016  Tot=              4.4152
 Quadrupole moment (field-independent basis, Debye-Ang):
   XX=            -42.4055   YY=            -44.3167   ZZ=            -57.9261
   XY=             -2.5398   XZ=             -0.0085   YZ=              0.0005
 Traceless Quadrupole moment (field-independent basis, Debye-Ang):
   XX=              5.8106   YY=              3.8994   ZZ=             -9.7100
   XY=             -2.5398   XZ=             -0.0085   YZ=              0.0005
 Octapole moment (field-independent basis, Debye-Ang**2):
  XXX=             28.6131  YYY=             -9.1860  ZZZ=             -0.0014  XYY=             13.6842
  XXY=             -7.1002  XXZ=             -0.0035  XZZ=              4.3481  YZZ=             -1.4836
  YYZ=             -0.0097  XYZ=              0.0249
 Hexadecapole moment (field-independent basis, Debye-Ang**3):
 XXXX=           -791.7852 YYYY=           -365.2735 ZZZZ=            -60.9917 XXXY=            -18.0834
 XXXZ=             -0.0954 YYYX=            -16.7162 YYYZ=             -0.0122 ZZZX=             -0.0097
 ZZZY=              0.0004 XXYY=           -188.6614 XXZZ=           -182.1478 YYZZ=            -89.9354
 XXYZ=              0.0204 YYXZ=             -0.0073 ZZXY=             -2.5787
 N-N= 3.976047152753D+02 E-N=-1.637845168621D+03  KE= 3.606052819626D+02
 Unable to Open any file for archive entry.
 1\1\GINC-COMET-06-19\FOpt\RSOGGA11X TD-FC\6-31G(d)\C8H7N1\SCAPARAS\04-
 Mar-2021\0\\# td= (nstates=6, root=1) SOGGA11X/6-31G(d) Opt density=cu
 rrent\\FuncsSOGGA11X\\0,1\C,-2.1857490605,0.6832430384,0.0034769589\C,
 -2.1569385881,-0.6971160423,0.0025387967\C,-0.9098454562,-1.4420059121
 ,-0.0005428564\C,0.2443068216,-0.6577376951,-0.002138351\C,0.245122743
 4,0.754071264,-0.0011317966\C,-0.9940901758,1.4660231069,0.0014282021\
 N,1.5889129598,-1.060668419,-0.0036433912\C,1.6039434994,1.1615368362,
 -0.0014334835\C,2.4291903009,-0.009880367,-0.0033148353\H,1.8832744723
 ,-2.0263095271,-0.0060680825\H,1.9828096732,2.1755026792,-0.0000348691
 \H,3.5019200825,-0.1229965734,-0.0059981156\H,-3.0893705302,-1.2545801
 176,0.0043798663\H,-0.890971331,-2.5256008922,-0.0004711058\H,-3.14669
 66384,1.1909457164,0.0058899462\H,-1.0221687732,2.5496529047,0.0000531
 166\\Version=ES64L-G16RevC.01\State=1-A\HF=-363.7063893\RMSD=5.297e-09
 \RMSF=2.057e-05\Dipole=1.6535914,-0.5320295,-0.0006163\Quadrupole=4.32
 00148,2.899134,-7.2191488,-1.8882458,-0.0063096,0.0003431\PG=C01 [X(C8
 H7N1)]\\@
 The archive entry for this job was punched.


 MY GROUP MEETINGS AREN'T VERY STRUCTURED.
     -- PROF. M. S. GORDON, OCT. 5, 1984
 Job cpu time:       0 days  1 hours 21 minutes 15.7 seconds.
 Elapsed time:       0 days  0 hours 40 minutes 52.9 seconds.
 File lengths (MBytes):  RWF=    202 Int=      0 D2E=      0 Chk=      8 Scr=      1
 Normal termination of Gaussian 16 at Thu Mar  4 05:10:35 2021.
