 Entering Gaussian System, Link 0=/opt/gaussian/16.B.01/g16/g16
 Initial command:
 /opt/gaussian/16.B.01/g16/l1.exe "/scratch/gfoley1/17401704/Gau-26740.inp" -scrdir="/scratch/gfoley1/17401704/"
 Entering Link 1 = /opt/gaussian/16.B.01/g16/l1.exe PID=     26788.
  
 Copyright (c) 1988-2017, Gaussian, Inc.  All Rights Reserved.
  
 This is part of the Gaussian(R) 16 program.  It is based on
 the Gaussian(R) 09 system (copyright 2009, Gaussian, Inc.),
 the Gaussian(R) 03 system (copyright 2003, Gaussian, Inc.),
 the Gaussian(R) 98 system (copyright 1998, Gaussian, Inc.),
 the Gaussian(R) 94 system (copyright 1995, Gaussian, Inc.),
 the Gaussian 92(TM) system (copyright 1992, Gaussian, Inc.),
 the Gaussian 90(TM) system (copyright 1990, Gaussian, Inc.),
 the Gaussian 88(TM) system (copyright 1988, Gaussian, Inc.),
 the Gaussian 86(TM) system (copyright 1986, Carnegie Mellon
 University), and the Gaussian 82(TM) system (copyright 1983,
 Carnegie Mellon University). Gaussian is a federally registered
 trademark of Gaussian, Inc.
  
 This software contains proprietary and confidential information,
 including trade secrets, belonging to Gaussian, Inc.
  
 This software is provided under written license and may be
 used, copied, transmitted, or stored only in accord with that
 written license.
  
 The following legend is applicable only to US Government
 contracts under FAR:
  
                    RESTRICTED RIGHTS LEGEND
  
 Use, reproduction and disclosure by the US Government is
 subject to restrictions as set forth in subparagraphs (a)
 and (c) of the Commercial Computer Software - Restricted
 Rights clause in FAR 52.227-19.
  
 Gaussian, Inc.
 340 Quinnipiac St., Bldg. 40, Wallingford CT 06492
  
  
 ---------------------------------------------------------------
 Warning -- This program may not be used in any manner that
 competes with the business of Gaussian, Inc. or will provide
 assistance to any competitor of Gaussian, Inc.  The licensee
 of this program is prohibited from giving any competitor of
 Gaussian, Inc. access to this program.  By using this program,
 the user acknowledges that Gaussian, Inc. is engaged in the
 business of creating and licensing software in the field of
 computational chemistry and represents and warrants to the
 licensee that it is not a competitor of Gaussian, Inc. and that
 it will not use this program in any manner prohibited above.
 ---------------------------------------------------------------
  

 Cite this work as:
 Gaussian 16, Revision B.01,
 M. J. Frisch, G. W. Trucks, H. B. Schlegel, G. E. Scuseria, 
 M. A. Robb, J. R. Cheeseman, G. Scalmani, V. Barone, 
 G. A. Petersson, H. Nakatsuji, X. Li, M. Caricato, A. V. Marenich, 
 J. Bloino, B. G. Janesko, R. Gomperts, B. Mennucci, H. P. Hratchian, 
 J. V. Ortiz, A. F. Izmaylov, J. L. Sonnenberg, D. Williams-Young, 
 F. Ding, F. Lipparini, F. Egidi, J. Goings, B. Peng, A. Petrone, 
 T. Henderson, D. Ranasinghe, V. G. Zakrzewski, J. Gao, N. Rega, 
 G. Zheng, W. Liang, M. Hada, M. Ehara, K. Toyota, R. Fukuda, 
 J. Hasegawa, M. Ishida, T. Nakajima, Y. Honda, O. Kitao, H. Nakai, 
 T. Vreven, K. Throssell, J. A. Montgomery, Jr., J. E. Peralta, 
 F. Ogliaro, M. J. Bearpark, J. J. Heyd, E. N. Brothers, K. N. Kudin, 
 V. N. Staroverov, T. A. Keith, R. Kobayashi, J. Normand, 
 K. Raghavachari, A. P. Rendell, J. C. Burant, S. S. Iyengar, 
 J. Tomasi, M. Cossi, J. M. Millam, M. Klene, C. Adamo, R. Cammi, 
 J. W. Ochterski, R. L. Martin, K. Morokuma, O. Farkas, 
 J. B. Foresman, and D. J. Fox, Gaussian, Inc., Wallingford CT, 2016.
 
 ******************************************
 Gaussian 16:  ES64L-G16RevB.01 20-Dec-2017
                26-Jun-2018 
 ******************************************
 %nprocshared=4
 Will use up to    4 processors via shared memory.
 %mem=7GB
 --------------------------------------------------------------------
 # opt td=(root=2) LC-BLYP/6-31+g(d) density=current scf=maxcycle=600
 --------------------------------------------------------------------
 1/18=20,19=15,26=3,38=1/1,3;
 2/9=110,12=2,17=6,18=5,40=1/2;
 3/5=1,6=6,7=11,11=9,25=1,30=1,71=1,74=1000402/1,2,3,8;
 4//1;
 5/5=2,7=600,38=5/2;
 8/6=1,10=2,107=2/1;
 9/8=2,15=2,42=1,70=2/14;
 10/5=4,28=2/2;
 6/7=2,8=2,9=2,10=2,22=-1/1;
 7/12=6,13=5,14=2/1,2,3,16;
 1/18=20,19=15,26=3/3(2);
 2/9=110/2;
 99//99;
 2/9=110/2;
 3/5=1,6=6,7=11,11=9,25=1,30=1,71=1,74=1000402/1,2,3,8;
 4/5=5,16=3,69=1/1;
 5/5=2,7=600,38=5/2;
 8/6=1,10=2,107=2/1;
 9/8=2,15=2,42=1,49=4,70=2/14;
 10/5=4,28=2/2;
 7/12=6,13=5,14=2/1,2,3,16;
 1/18=20,19=15,26=3/3(-8);
 2/9=110/2;
 6/7=2,8=2,9=2,10=2,22=-1/1;
 99/9=10/99;
 -------------------
 Title Card Required
 -------------------
 Symbolic Z-matrix:
 Charge =  0 Multiplicity = 1
 C                     2.38236   0.03088   0. 
 H                     3.45292  -0.08191   0. 
 C                     1.62023   1.16307   0. 
 H                     1.99365   2.17268   0. 
 C                     0.24793   0.74811   0. 
 C                    -0.97967   1.42388   0. 
 C                    -2.15137   0.68945   0. 
 C                    -2.12818  -0.71613   0. 
 C                    -0.93226  -1.41335   0. 
 C                     0.24663  -0.67002   0. 
 H                    -1.00927   2.50561   0. 
 H                    -3.10448   1.20063   0. 
 H                    -3.06168  -1.26218   0. 
 H                    -0.91738  -2.49543   0. 
 N                     1.56222  -1.0778    0. 
 H                     1.8767   -2.03017   0. 
 

 GradGradGradGradGradGradGradGradGradGradGradGradGradGradGradGradGradGrad
 Berny optimization.
 Initialization pass.
                           ----------------------------
                           !    Initial Parameters    !
                           ! (Angstroms and Degrees)  !
 --------------------------                            --------------------------
 ! Name  Definition              Value          Derivative Info.                !
 --------------------------------------------------------------------------------
 ! R1    R(1,2)                  1.0765         estimate D2E/DX2                !
 ! R2    R(1,3)                  1.3648         estimate D2E/DX2                !
 ! R3    R(1,15)                 1.3791         estimate D2E/DX2                !
 ! R4    R(3,4)                  1.0765         estimate D2E/DX2                !
 ! R5    R(3,5)                  1.4337         estimate D2E/DX2                !
 ! R6    R(5,6)                  1.4013         estimate D2E/DX2                !
 ! R7    R(5,10)                 1.4181         estimate D2E/DX2                !
 ! R8    R(6,7)                  1.3828         estimate D2E/DX2                !
 ! R9    R(6,11)                 1.0821         estimate D2E/DX2                !
 ! R10   R(7,8)                  1.4058         estimate D2E/DX2                !
 ! R11   R(7,12)                 1.0815         estimate D2E/DX2                !
 ! R12   R(8,9)                  1.3843         estimate D2E/DX2                !
 ! R13   R(8,13)                 1.0815         estimate D2E/DX2                !
 ! R14   R(9,10)                 1.3937         estimate D2E/DX2                !
 ! R15   R(9,14)                 1.0822         estimate D2E/DX2                !
 ! R16   R(10,15)                1.3773         estimate D2E/DX2                !
 ! R17   R(15,16)                1.003          estimate D2E/DX2                !
 ! A1    A(2,1,3)              129.9608         estimate D2E/DX2                !
 ! A2    A(2,1,15)             120.4778         estimate D2E/DX2                !
 ! A3    A(3,1,15)             109.5614         estimate D2E/DX2                !
 ! A4    A(1,3,4)              125.7558         estimate D2E/DX2                !
 ! A5    A(1,3,5)              107.1223         estimate D2E/DX2                !
 ! A6    A(4,3,5)              127.1219         estimate D2E/DX2                !
 ! A7    A(3,5,6)              134.3441         estimate D2E/DX2                !
 ! A8    A(3,5,10)             106.8769         estimate D2E/DX2                !
 ! A9    A(6,5,10)             118.7789         estimate D2E/DX2                !
 ! A10   A(5,6,7)              119.0888         estimate D2E/DX2                !
 ! A11   A(5,6,11)             120.399          estimate D2E/DX2                !
 ! A12   A(7,6,11)             120.5122         estimate D2E/DX2                !
 ! A13   A(6,7,8)              121.1341         estimate D2E/DX2                !
 ! A14   A(6,7,12)             119.7146         estimate D2E/DX2                !
 ! A15   A(8,7,12)             119.1514         estimate D2E/DX2                !
 ! A16   A(7,8,9)              121.1877         estimate D2E/DX2                !
 ! A17   A(7,8,13)             119.3799         estimate D2E/DX2                !
 ! A18   A(9,8,13)             119.4324         estimate D2E/DX2                !
 ! A19   A(8,9,10)             117.525          estimate D2E/DX2                !
 ! A20   A(8,9,14)             121.0304         estimate D2E/DX2                !
 ! A21   A(10,9,14)            121.4446         estimate D2E/DX2                !
 ! A22   A(5,10,9)             122.2855         estimate D2E/DX2                !
 ! A23   A(5,10,15)            107.1687         estimate D2E/DX2                !
 ! A24   A(9,10,15)            130.5458         estimate D2E/DX2                !
 ! A25   A(1,15,10)            109.2707         estimate D2E/DX2                !
 ! A26   A(1,15,16)            125.234          estimate D2E/DX2                !
 ! A27   A(10,15,16)           125.4953         estimate D2E/DX2                !
 ! D1    D(2,1,3,4)              0.0            estimate D2E/DX2                !
 ! D2    D(2,1,3,5)            180.0            estimate D2E/DX2                !
 ! D3    D(15,1,3,4)           180.0            estimate D2E/DX2                !
 ! D4    D(15,1,3,5)             0.0            estimate D2E/DX2                !
 ! D5    D(2,1,15,10)          180.0            estimate D2E/DX2                !
 ! D6    D(2,1,15,16)            0.0            estimate D2E/DX2                !
 ! D7    D(3,1,15,10)            0.0            estimate D2E/DX2                !
 ! D8    D(3,1,15,16)          180.0            estimate D2E/DX2                !
 ! D9    D(1,3,5,6)            180.0            estimate D2E/DX2                !
 ! D10   D(1,3,5,10)             0.0            estimate D2E/DX2                !
 ! D11   D(4,3,5,6)              0.0            estimate D2E/DX2                !
 ! D12   D(4,3,5,10)           180.0            estimate D2E/DX2                !
 ! D13   D(3,5,6,7)            180.0            estimate D2E/DX2                !
 ! D14   D(3,5,6,11)             0.0            estimate D2E/DX2                !
 ! D15   D(10,5,6,7)             0.0            estimate D2E/DX2                !
 ! D16   D(10,5,6,11)          180.0            estimate D2E/DX2                !
 ! D17   D(3,5,10,9)           180.0            estimate D2E/DX2                !
 ! D18   D(3,5,10,15)            0.0            estimate D2E/DX2                !
 ! D19   D(6,5,10,9)             0.0            estimate D2E/DX2                !
 ! D20   D(6,5,10,15)          180.0            estimate D2E/DX2                !
 ! D21   D(5,6,7,8)              0.0            estimate D2E/DX2                !
 ! D22   D(5,6,7,12)           180.0            estimate D2E/DX2                !
 ! D23   D(11,6,7,8)           180.0            estimate D2E/DX2                !
 ! D24   D(11,6,7,12)            0.0            estimate D2E/DX2                !
 ! D25   D(6,7,8,9)              0.0            estimate D2E/DX2                !
 ! D26   D(6,7,8,13)           180.0            estimate D2E/DX2                !
 ! D27   D(12,7,8,9)           180.0            estimate D2E/DX2                !
 ! D28   D(12,7,8,13)            0.0            estimate D2E/DX2                !
 ! D29   D(7,8,9,10)             0.0            estimate D2E/DX2                !
 ! D30   D(7,8,9,14)           180.0            estimate D2E/DX2                !
 ! D31   D(13,8,9,10)          180.0            estimate D2E/DX2                !
 ! D32   D(13,8,9,14)            0.0            estimate D2E/DX2                !
 ! D33   D(8,9,10,5)             0.0            estimate D2E/DX2                !
 ! D34   D(8,9,10,15)          180.0            estimate D2E/DX2                !
 ! D35   D(14,9,10,5)          180.0            estimate D2E/DX2                !
 ! D36   D(14,9,10,15)           0.0            estimate D2E/DX2                !
 ! D37   D(5,10,15,1)            0.0            estimate D2E/DX2                !
 ! D38   D(5,10,15,16)         180.0            estimate D2E/DX2                !
 ! D39   D(9,10,15,1)          180.0            estimate D2E/DX2                !
 ! D40   D(9,10,15,16)           0.0            estimate D2E/DX2                !
 --------------------------------------------------------------------------------
 Trust Radius=3.00D-01 FncErr=1.00D-07 GrdErr=1.00D-06 EigMax=2.50D+02 EigMin=1.00D-04
 Number of steps in this run=     94 maximum allowed number of steps=    100.
 GradGradGradGradGradGradGradGradGradGradGradGradGradGradGradGradGradGrad

                          Input orientation:                          
 ---------------------------------------------------------------------
 Center     Atomic      Atomic             Coordinates (Angstroms)
 Number     Number       Type             X           Y           Z
 ---------------------------------------------------------------------
      1          6           0        2.382361    0.030881    0.000000
      2          1           0        3.452915   -0.081909    0.000000
      3          6           0        1.620231    1.163065    0.000000
      4          1           0        1.993651    2.172676    0.000000
      5          6           0        0.247934    0.748111    0.000000
      6          6           0       -0.979672    1.423877    0.000000
      7          6           0       -2.151373    0.689454    0.000000
      8          6           0       -2.128177   -0.716127    0.000000
      9          6           0       -0.932262   -1.413347    0.000000
     10          6           0        0.246629   -0.670018    0.000000
     11          1           0       -1.009270    2.505611    0.000000
     12          1           0       -3.104484    1.200634    0.000000
     13          1           0       -3.061678   -1.262176    0.000000
     14          1           0       -0.917376   -2.495432    0.000000
     15          7           0        1.562216   -1.077800    0.000000
     16          1           0        1.876702   -2.030174    0.000000
 ---------------------------------------------------------------------
                    Distance matrix (angstroms):
                    1          2          3          4          5
     1  C    0.000000
     2  H    1.076479   0.000000
     3  C    1.364801   2.215557   0.000000
     4  H    2.176782   2.685629   1.076456   0.000000
     5  C    2.251710   3.310715   1.433662   2.253201   0.000000
     6  C    3.639190   4.681369   2.612952   3.066162   1.401312
     7  C    4.581317   5.657123   3.801224   4.402405   2.400024
     8  C    4.571977   5.617012   4.193081   5.033354   2.791039
     9  C    3.615594   4.582849   3.626723   4.628232   2.462674
    10  C    2.247801   3.259776   2.290628   3.336614   1.418130
    11  H    4.198506   5.158135   2.952407   3.021321   2.160872
    12  H    5.610151   6.681646   4.724864   5.189976   3.382822
    13  H    5.595494   6.620646   5.272766   6.111838   3.872310
    14  H    4.155782   4.992448   4.452421   5.501392   3.446523
    15  N    1.379062   2.136947   2.241616   3.278983   2.249731
    16  H    2.122178   2.506030   3.203522   4.204477   3.220521
                    6          7          8          9         10
     6  C    0.000000
     7  C    1.382845   0.000000
     8  C    2.428720   1.405772   0.000000
     9  C    2.837620   2.430639   1.384315   0.000000
    10  C    2.426563   2.756552   2.375254   1.393672   0.000000
    11  H    1.082139   2.145420   3.410506   3.919715   3.414953
    12  H    2.136507   1.081539   2.151081   3.398742   3.837877
    13  H    3.398475   2.153489   1.081478   2.134775   3.360885
    14  H    3.919804   3.415589   2.152200   1.082187   2.164958
    15  N    3.566452   4.112655   3.708073   2.516945   1.377336
    16  H    4.482113   4.860223   4.214947   2.875892   2.123008
                   11         12         13         14         15
    11  H    0.000000
    12  H    2.468377   0.000000
    13  H    4.290524   2.463182   0.000000
    14  H    5.001887   4.294688   2.473651   0.000000
    15  N    4.410598   5.193202   4.627569   2.856231   0.000000
    16  H    5.376075   5.937199   4.997741   2.832550   1.002954
                   16
    16  H    0.000000
 Stoichiometry    C8H7N
 Framework group  CS[SG(C8H7N)]
 Deg. of freedom    29
 Full point group                 CS      NOp   2
 Largest Abelian subgroup         CS      NOp   2
 Largest concise Abelian subgroup C1      NOp   1
                         Standard orientation:                         
 ---------------------------------------------------------------------
 Center     Atomic      Atomic             Coordinates (Angstroms)
 Number     Number       Type             X           Y           Z
 ---------------------------------------------------------------------
      1          6           0       -2.246377    0.793969    0.000000
      2          1           0       -3.212069    1.269622    0.000000
      3          6           0       -1.922257   -0.531787    0.000000
      4          1           0       -2.621445   -1.350257    0.000000
      5          6           0       -0.491095   -0.616414    0.000000
      6          6           0        0.427510   -1.674640    0.000000
      7          6           0        1.780780   -1.390171    0.000000
      8          6           0        2.244548   -0.063101    0.000000
      9          6           0        1.363093    1.004310    0.000000
     10          6           0        0.000000    0.713968    0.000000
     11          1           0        0.081618   -2.700009    0.000000
     12          1           0        2.498641   -2.199122    0.000000
     13          1           0        3.309209    0.126871    0.000000
     14          1           0        1.722913    2.024927    0.000000
     15          7           0       -1.093741    1.551097    0.000000
     16          1           0       -1.059886    2.553480    0.000000
 ---------------------------------------------------------------------
 Rotational constants (GHZ):           3.9070271           1.6424924           1.1563636
 Standard basis: 6-31+G(d) (6D, 7F)
 There are   140 symmetry adapted cartesian basis functions of A'  symmetry.
 There are    45 symmetry adapted cartesian basis functions of A"  symmetry.
 There are   140 symmetry adapted basis functions of A'  symmetry.
 There are    45 symmetry adapted basis functions of A"  symmetry.
   185 basis functions,   316 primitive gaussians,   185 cartesian basis functions
    31 alpha electrons       31 beta electrons
       nuclear repulsion energy       401.2841188295 Hartrees.
 NAtoms=   16 NActive=   16 NUniq=   16 SFac= 1.00D+00 NAtFMM=   60 NAOKFM=F Big=F
 Integral buffers will be    131072 words long.
 Raffenetti 1 integral format.
 Two-electron integral symmetry is turned on.
 One-electron integrals computed using PRISM.
 NBasis=   185 RedAO= T EigKep=  1.27D-06  NBF=   140    45
 NBsUse=   185 1.00D-06 EigRej= -1.00D+00 NBFU=   140    45
 ExpMin= 4.38D-02 ExpMax= 4.17D+03 ExpMxC= 6.27D+02 IAcc=3 IRadAn=         5 AccDes= 0.00D+00
 Harris functional with IExCor=10402 and IRadAn=       5 diagonalized for initial guess.
 HarFok:  IExCor=10402 AccDes= 0.00D+00 IRadAn=         5 IDoV= 1 UseB2=F ITyADJ=14
 ICtDFT=  3500011 ScaDFX=  1.000000  1.000000  1.000000  1.000000
 FoFCou: FMM=F IPFlag=           0 FMFlag=      100000 FMFlg1=           0
         NFxFlg=           0 DoJE=T BraDBF=F KetDBF=T FulRan=T
         wScrn=  0.000000 ICntrl=       500 IOpCl=  0 I1Cent=   200000004 NGrid=           0
         NMat0=    1 NMatS0=      1 NMatT0=    0 NMatD0=    1 NMtDS0=    0 NMtDT0=    0
 Petite list used in FoFCou.
 Initial guess orbital symmetries:
       Occupied  (A') (A') (A') (A') (A') (A') (A') (A') (A') (A')
                 (A') (A') (A') (A') (A') (A') (A') (A') (A') (A')
                 (A') (A') (A') (A") (A') (A') (A') (A") (A") (A")
                 (A")
       Virtual   (A") (A') (A') (A') (A') (A') (A") (A") (A') (A")
                 (A') (A') (A") (A") (A') (A') (A') (A") (A") (A')
                 (A") (A') (A") (A') (A') (A") (A') (A') (A') (A")
                 (A') (A') (A') (A') (A") (A') (A') (A') (A') (A')
                 (A') (A') (A') (A') (A') (A') (A') (A') (A') (A')
                 (A') (A') (A') (A') (A') (A') (A') (A") (A') (A')
                 (A") (A") (A') (A") (A') (A') (A") (A") (A") (A')
                 (A') (A") (A') (A') (A') (A') (A') (A') (A') (A")
                 (A') (A') (A') (A') (A') (A') (A') (A') (A') (A')
                 (A") (A') (A') (A') (A") (A") (A') (A') (A") (A")
                 (A') (A") (A") (A") (A') (A') (A') (A') (A') (A')
                 (A") (A') (A') (A') (A') (A") (A') (A') (A') (A')
                 (A") (A') (A") (A") (A") (A') (A') (A") (A") (A')
                 (A') (A") (A') (A') (A") (A') (A') (A') (A') (A')
                 (A') (A') (A') (A') (A') (A') (A') (A') (A') (A')
                 (A') (A') (A') (A')
 The electronic state of the initial guess is 1-A'.
 Keep R1 ints in memory in symmetry-blocked form, NReq=454694034.
 Requested convergence on RMS density matrix=1.00D-08 within 600 cycles.
 Requested convergence on MAX density matrix=1.00D-06.
 Requested convergence on             energy=1.00D-06.
 No special actions if energy rises.
 SCF Done:  E(RLC-B+HF-LYP) =  -362.735174233     A.U. after   16 cycles
            NFock= 16  Conv=0.45D-08     -V/T= 2.0089
 DoSCS=F DFT=T ScalE2(SS,OS)=  1.000000  1.000000
 ExpMin= 4.38D-02 ExpMax= 4.17D+03 ExpMxC= 6.27D+02 IAcc=3 IRadAn=         5 AccDes= 0.00D+00
 HarFok:  IExCor=  205 AccDes= 0.00D+00 IRadAn=         5 IDoV=-2 UseB2=F ITyADJ=14
 ICtDFT= 12500011 ScaDFX=  1.000000  1.000000  1.000000  1.000000
 Range of M.O.s used for correlation:    10   185
 NBasis=   185 NAE=    31 NBE=    31 NFC=     9 NFV=     0
 NROrb=    176 NOA=    22 NOB=    22 NVA=   154 NVB=   154

 **** Warning!!: The largest alpha MO coefficient is  0.21384581D+03

 Keep R1, R2, and R3 ints in memory in symmetry-blocked form, NReq=454694374.
 Orbital symmetries:
       Occupied  (A') (A') (A') (A') (A') (A') (A') (A') (A') (A')
                 (A') (A') (A') (A') (A') (A') (A') (A') (A') (A')
                 (A') (A") (A') (A') (A') (A') (A") (A') (A") (A")
                 (A")
       Virtual   (A') (A") (A') (A') (A') (A') (A") (A") (A') (A')
                 (A') (A") (A") (A") (A') (A') (A') (A") (A') (A")
                 (A') (A") (A') (A") (A') (A") (A') (A') (A') (A')
                 (A') (A') (A") (A') (A') (A') (A') (A') (A") (A')
                 (A') (A') (A') (A') (A') (A') (A') (A') (A') (A')
                 (A') (A') (A') (A') (A') (A') (A') (A") (A') (A")
                 (A') (A") (A") (A') (A') (A") (A') (A") (A") (A')
                 (A') (A") (A') (A') (A') (A') (A') (A') (A") (A')
                 (A') (A') (A') (A') (A') (A') (A') (A') (A') (A')
                 (A') (A') (A") (A') (A") (A") (A') (A') (A") (A')
                 (A") (A") (A") (A") (A') (A') (A') (A') (A') (A')
                 (A") (A') (A') (A') (A') (A") (A') (A') (A') (A')
                 (A") (A') (A") (A") (A") (A') (A') (A") (A") (A')
                 (A') (A") (A') (A') (A") (A') (A') (A') (A') (A')
                 (A') (A') (A') (A') (A') (A') (A') (A') (A') (A')
                 (A') (A') (A') (A')
    12 initial guesses have been made.
 Convergence on wavefunction:    0.000001000000000
 Iteration     1 Dimension    12 NMult     0 NNew     12
 CISAX will form    12 AO SS matrices at one time.
 New state      1 was old state      6
 New state      2 was old state      1
 New state      3 was old state      2
 Iteration     2 Dimension    18 NMult    12 NNew      6
 New state      2 was old state      3
 New state      3 was old state      2
 Iteration     3 Dimension    24 NMult    18 NNew      6
 Iteration     4 Dimension    30 NMult    24 NNew      6
 Iteration     5 Dimension    36 NMult    30 NNew      6
 Iteration     6 Dimension    42 NMult    36 NNew      6
 Iteration     7 Dimension    48 NMult    42 NNew      6
 Iteration     8 Dimension    54 NMult    48 NNew      6
 Iteration     9 Dimension    60 NMult    54 NNew      6
 Iteration    10 Dimension    66 NMult    60 NNew      6
 Iteration    11 Dimension    72 NMult    66 NNew      6
 Iteration    12 Dimension    78 NMult    72 NNew      6
 Iteration    13 Dimension    82 NMult    78 NNew      4
 Iteration    14 Dimension    84 NMult    82 NNew      2
 ***********************************************************************
 Excited states from <AA,BB:AA,BB> singles matrix:
 ***********************************************************************
 
 Ground to excited state transition densities written to RWF  633
 Ground to excited state transition electric dipole moments (Au):
       state          X           Y           Z        Dip. S.      Osc.
         1         0.5444      0.1597     -0.0000      0.3219      0.0412
         2         0.5434     -0.8910     -0.0000      1.0892      0.1432
         3        -0.0000      0.0000     -0.1766      0.0312      0.0045
 Ground to excited state transition velocity dipole moments (Au):
       state          X           Y           Z        Dip. S.      Osc.
         1        -0.1022     -0.0350      0.0000      0.0117      0.0405
         2        -0.0927      0.1779      0.0000      0.0403      0.1361
         3         0.0000     -0.0000      0.0276      0.0008      0.0024
 Ground to excited state transition magnetic dipole moments (Au):
       state          X           Y           Z
         1         0.0000      0.0000     -0.1460
         2        -0.0000      0.0000      0.0881
         3        -0.0973      0.1703      0.0000
 Ground to excited state transition velocity quadrupole moments (Au):
       state          XX          YY          ZZ          XY          XZ          YZ
         1        -0.0251     -0.0682      0.0175     -0.0441     -0.0000      0.0000
         2         0.2059     -0.1036      0.0175     -0.1893     -0.0000     -0.0000
         3        -0.0000      0.0000     -0.0000      0.0000     -0.1308     -0.0355
 <0|del|b> * <b|rxdel|0> + <0|del|b> * <b|delr+rdel|0>
 Rotatory Strengths (R) in cgs (10**-40 erg-esu-cm/Gauss)
       state          XX          YY          ZZ    R(velocity)    E-M Angle
         1        -0.0000     -0.0000      0.0000     -0.0000       90.00
         2         0.0000      0.0000      0.0000      0.0000       90.00
         3        -0.0000     -0.0000     -0.0000     -0.0000       90.00
 1/2[<0|r|b>*<b|rxdel|0> + (<0|rxdel|b>*<b|r|0>)*]
 Rotatory Strengths (R) in cgs (10**-40 erg-esu-cm/Gauss)
       state          XX          YY          ZZ     R(length)
         1        -0.0000     -0.0000     -0.0000     -0.0000
         2         0.0000      0.0000      0.0000      0.0000
         3        -0.0000     -0.0000      0.0000     -0.0000
  1/2[<0|del|b>*<b|r|0> + (<0|r|b>*<b|del|0>)*] (Au)
       state          X           Y           Z        Dip. S.   Osc.(frdel)
         1        -0.0556     -0.0056     -0.0000      0.0612      0.0408
         2        -0.0504     -0.1585     -0.0000      0.2089      0.1393
         3        -0.0000     -0.0000     -0.0049      0.0049      0.0033

 Excitation energies and oscillator strengths:
 
 Excited State   1:      Singlet-A'     5.2259 eV  237.25 nm  f=0.0412  <S**2>=0.000
      30 -> 33         0.57545
      31 -> 38        -0.32568
 
 Excited State   2:      Singlet-A'     5.3648 eV  231.11 nm  f=0.1432  <S**2>=0.000
      30 -> 38         0.23088
      31 -> 33         0.64166
 This state for optimization and/or second-order correction.
 Total Energy, E(TD-HF/TD-DFT) =  -362.538021133    
 Copying the excited state density for this state as the 1-particle RhoCI density.
 
 Excited State   3:      Singlet-A"     5.8333 eV  212.55 nm  f=0.0045  <S**2>=0.000
      29 -> 32         0.11364
      31 -> 32         0.65360
      31 -> 40         0.12282
 SavETr:  write IOETrn=   770 NScale= 10 NData=  16 NLR=1 NState=    3 LETran=      64.
          IDoAtm=1111111111111111
          Differentiating once with respect to electric field.
                with respect to dipole field.
          Differentiating once with respect to nuclear coordinates.
 Keep R1 ints in memory in symmetry-blocked form, NReq=454696144.
          There are     1 degrees of freedom in the 1st order CPHF.  IDoFFX=0 NUNeed=     1.
 LinEq1:  Iter=  0 NonCon=     1 RMS=3.58D-03 Max=6.06D-02 NDo=     1
 AX will form     1 AO Fock derivatives at one time.
 LinEq1:  Iter=  1 NonCon=     1 RMS=1.82D-03 Max=5.26D-02 NDo=     1
 LinEq1:  Iter=  2 NonCon=     1 RMS=6.41D-04 Max=1.05D-02 NDo=     1
 LinEq1:  Iter=  3 NonCon=     1 RMS=3.49D-04 Max=9.66D-03 NDo=     1
 LinEq1:  Iter=  4 NonCon=     1 RMS=1.39D-04 Max=3.34D-03 NDo=     1
 LinEq1:  Iter=  5 NonCon=     1 RMS=6.07D-05 Max=1.95D-03 NDo=     1
 LinEq1:  Iter=  6 NonCon=     1 RMS=2.69D-05 Max=7.88D-04 NDo=     1
 LinEq1:  Iter=  7 NonCon=     1 RMS=1.25D-05 Max=2.45D-04 NDo=     1
 LinEq1:  Iter=  8 NonCon=     1 RMS=4.72D-06 Max=1.14D-04 NDo=     1
 LinEq1:  Iter=  9 NonCon=     1 RMS=1.52D-06 Max=2.62D-05 NDo=     1
 LinEq1:  Iter= 10 NonCon=     1 RMS=8.21D-07 Max=2.18D-05 NDo=     1
 LinEq1:  Iter= 11 NonCon=     1 RMS=2.45D-07 Max=5.40D-06 NDo=     1
 LinEq1:  Iter= 12 NonCon=     1 RMS=9.97D-08 Max=1.93D-06 NDo=     1
 LinEq1:  Iter= 13 NonCon=     1 RMS=3.86D-08 Max=6.61D-07 NDo=     1
 LinEq1:  Iter= 14 NonCon=     1 RMS=9.86D-09 Max=2.19D-07 NDo=     1
 LinEq1:  Iter= 15 NonCon=     1 RMS=4.41D-09 Max=6.86D-08 NDo=     1
 LinEq1:  Iter= 16 NonCon=     1 RMS=1.14D-09 Max=1.63D-08 NDo=     1
 LinEq1:  Iter= 17 NonCon=     1 RMS=3.03D-10 Max=5.68D-09 NDo=     1
 LinEq1:  Iter= 18 NonCon=     1 RMS=1.35D-10 Max=1.64D-09 NDo=     1
 LinEq1:  Iter= 19 NonCon=     0 RMS=3.26D-11 Max=6.43D-10 NDo=     1
 Linear equations converged to 1.000D-10 1.000D-09 after    19 iterations.
 End of Minotr F.D. properties file   721 does not exist.
 End of Minotr F.D. properties file   722 does not exist.
 End of Minotr F.D. properties file   788 does not exist.

 **********************************************************************

            Population analysis using the CI Density.

 **********************************************************************

 Orbital symmetries:
       Occupied  (A') (A') (A') (A') (A') (A') (A') (A') (A') (A')
                 (A') (A') (A') (A') (A') (A') (A') (A') (A') (A')
                 (A') (A") (A') (A') (A') (A') (A") (A') (A") (A")
                 (A")
       Virtual   (A') (A") (A') (A') (A') (A') (A") (A") (A') (A')
                 (A') (A") (A") (A") (A') (A') (A') (A") (A') (A")
                 (A') (A") (A') (A") (A') (A") (A') (A') (A') (A')
                 (A') (A') (A") (A') (A') (A') (A') (A') (A") (A')
                 (A') (A') (A') (A') (A') (A') (A') (A') (A') (A')
                 (A') (A') (A') (A') (A') (A') (A') (A") (A') (A")
                 (A') (A") (A") (A') (A') (A") (A') (A") (A") (A')
                 (A') (A") (A') (A') (A') (A') (A') (A') (A") (A')
                 (A') (A') (A') (A') (A') (A') (A') (A') (A') (A')
                 (A') (A') (A") (A') (A") (A") (A') (A') (A") (A')
                 (A") (A") (A") (A") (A') (A') (A') (A') (A') (A')
                 (A") (A') (A') (A') (A') (A") (A') (A') (A') (A')
                 (A") (A') (A") (A") (A") (A') (A') (A") (A") (A')
                 (A') (A") (A') (A') (A") (A') (A') (A') (A') (A')
                 (A') (A') (A') (A') (A') (A') (A') (A') (A') (A')
                 (A') (A') (A') (A')
 The electronic state is 1-A'.
 Alpha  occ. eigenvalues --  -14.30555 -10.19622 -10.19323 -10.16264 -10.15827
 Alpha  occ. eigenvalues --  -10.15804 -10.15689 -10.15165 -10.14762  -1.15472
 Alpha  occ. eigenvalues --   -1.01597  -0.95276  -0.90185  -0.88278  -0.78061
 Alpha  occ. eigenvalues --   -0.74685  -0.73455  -0.68894  -0.62376  -0.61379
 Alpha  occ. eigenvalues --   -0.57415  -0.57258  -0.56720  -0.54669  -0.52401
 Alpha  occ. eigenvalues --   -0.48379  -0.47180  -0.46100  -0.40121  -0.32620
 Alpha  occ. eigenvalues --   -0.30856
 Alpha virt. eigenvalues --    0.04616   0.06009   0.06380   0.06813   0.08113
 Alpha virt. eigenvalues --    0.08440   0.10010   0.10584   0.10709   0.10953
 Alpha virt. eigenvalues --    0.11689   0.11720   0.13563   0.14794   0.14864
 Alpha virt. eigenvalues --    0.15054   0.16607   0.17859   0.19368   0.19451
 Alpha virt. eigenvalues --    0.20545   0.21340   0.21776   0.22763   0.22960
 Alpha virt. eigenvalues --    0.24333   0.24359   0.24761   0.26105   0.26500
 Alpha virt. eigenvalues --    0.27346   0.27712   0.28345   0.29041   0.29787
 Alpha virt. eigenvalues --    0.30676   0.30984   0.32129   0.32678   0.32883
 Alpha virt. eigenvalues --    0.34494   0.34999   0.37151   0.37892   0.39933
 Alpha virt. eigenvalues --    0.40711   0.41299   0.42277   0.44726   0.47144
 Alpha virt. eigenvalues --    0.47985   0.51004   0.55663   0.56505   0.62979
 Alpha virt. eigenvalues --    0.70447   0.75258   0.78299   0.78669   0.81093
 Alpha virt. eigenvalues --    0.83080   0.83246   0.84911   0.84961   0.86204
 Alpha virt. eigenvalues --    0.86663   0.87677   0.89188   0.90774   0.91844
 Alpha virt. eigenvalues --    0.93570   0.97022   1.01008   1.01880   1.03085
 Alpha virt. eigenvalues --    1.05616   1.06403   1.07390   1.08086   1.10424
 Alpha virt. eigenvalues --    1.12463   1.14952   1.16625   1.18603   1.21699
 Alpha virt. eigenvalues --    1.23757   1.24574   1.29454   1.30994   1.33548
 Alpha virt. eigenvalues --    1.34853   1.38334   1.38488   1.45027   1.47162
 Alpha virt. eigenvalues --    1.49184   1.50077   1.54980   1.56746   1.58517
 Alpha virt. eigenvalues --    1.61430   1.61790   1.65122   1.65814   1.66765
 Alpha virt. eigenvalues --    1.72435   1.78947   1.93579   1.99271   2.03397
 Alpha virt. eigenvalues --    2.04659   2.06634   2.08867   2.14766   2.14976
 Alpha virt. eigenvalues --    2.16199   2.21536   2.25181   2.29176   2.32428
 Alpha virt. eigenvalues --    2.33138   2.34894   2.40703   2.41838   2.42356
 Alpha virt. eigenvalues --    2.43451   2.46302   2.53975   2.56738   2.59622
 Alpha virt. eigenvalues --    2.69758   2.71930   2.78509   2.80626   2.82961
 Alpha virt. eigenvalues --    2.85039   2.88475   2.95902   2.99459   3.00824
 Alpha virt. eigenvalues --    3.10411   3.12641   3.26828   3.39180   3.60092
 Alpha virt. eigenvalues --    4.27401   4.38153   4.41132   4.44598   4.48280
 Alpha virt. eigenvalues --    4.52043   4.60291   4.64303   4.91470
          Condensed to atoms (all electrons):
               1          2          3          4          5          6
     1  C    6.886169   0.387827  -2.627164  -0.076678   2.020710   0.870241
     2  H    0.387827   0.465795  -0.049494  -0.000618  -0.027421  -0.022154
     3  C   -2.627164  -0.049494  13.113223   0.421980  -5.311621  -2.825262
     4  H   -0.076678  -0.000618   0.421980   0.473376  -0.084707  -0.069891
     5  C    2.020710  -0.027421  -5.311621  -0.084707  14.717221  -1.393196
     6  C    0.870241  -0.022154  -2.825262  -0.069891  -1.393196  12.814428
     7  C   -0.094795   0.000334   0.232342  -0.000273  -0.095131  -0.089140
     8  C    0.044413   0.000596  -0.300984   0.000213  -0.604502   0.440468
     9  C   -1.294322   0.015419   3.378794   0.009809  -3.060022  -2.395413
    10  C   -0.242410   0.060352   0.311782   0.095905  -2.174656  -0.924829
    11  H    0.006178  -0.000001  -0.074123   0.001310   0.044410   0.310758
    12  H    0.000358  -0.000000  -0.001407  -0.000002   0.040709  -0.048742
    13  H    0.001572  -0.000000  -0.002621   0.000000  -0.009596   0.033441
    14  H    0.011960   0.000003  -0.012646   0.000001   0.022544  -0.020893
    15  N    0.472733  -0.052496  -0.487633   0.006862   0.606370   0.077882
    16  H   -0.019484  -0.002438  -0.009227  -0.000074   0.177682   0.034124
               7          8          9         10         11         12
     1  C   -0.094795   0.044413  -1.294322  -0.242410   0.006178   0.000358
     2  H    0.000334   0.000596   0.015419   0.060352  -0.000001  -0.000000
     3  C    0.232342  -0.300984   3.378794   0.311782  -0.074123  -0.001407
     4  H   -0.000273   0.000213   0.009809   0.095905   0.001310  -0.000002
     5  C   -0.095131  -0.604502  -3.060022  -2.174656   0.044410   0.040709
     6  C   -0.089140   0.440468  -2.395413  -0.924829   0.310758  -0.048742
     7  C    5.570144   0.509123   0.158399  -0.540116  -0.032966   0.347712
     8  C    0.509123   5.969756  -0.482261   0.576826   0.027102  -0.038228
     9  C    0.158399  -0.482261  13.975811  -3.829349  -0.052193   0.028167
    10  C   -0.540116   0.576826  -3.829349  13.788582   0.066438  -0.019297
    11  H   -0.032966   0.027102  -0.052193   0.066438   0.515073  -0.003923
    12  H    0.347712  -0.038228   0.028167  -0.019297  -0.003923   0.513919
    13  H   -0.038924   0.339028  -0.056545   0.042312  -0.000140  -0.004122
    14  H    0.026465   0.003298   0.296940  -0.031530   0.000016  -0.000141
    15  N   -0.004940   0.004096  -0.395730  -0.280277  -0.000868   0.000184
    16  H   -0.002853  -0.009446  -0.130601  -0.088183   0.000003  -0.000000
              13         14         15         16
     1  C    0.001572   0.011960   0.472733  -0.019484
     2  H   -0.000000   0.000003  -0.052496  -0.002438
     3  C   -0.002621  -0.012646  -0.487633  -0.009227
     4  H    0.000000   0.000001   0.006862  -0.000074
     5  C   -0.009596   0.022544   0.606370   0.177682
     6  C    0.033441  -0.020893   0.077882   0.034124
     7  C   -0.038924   0.026465  -0.004940  -0.002853
     8  C    0.339028   0.003298   0.004096  -0.009446
     9  C   -0.056545   0.296940  -0.395730  -0.130601
    10  C    0.042312  -0.031530  -0.280277  -0.088183
    11  H   -0.000140   0.000016  -0.000868   0.000003
    12  H   -0.004122  -0.000141   0.000184  -0.000000
    13  H    0.510567  -0.003857  -0.000436  -0.000001
    14  H   -0.003857   0.516550  -0.002144   0.001619
    15  N   -0.000436  -0.002144   7.245151   0.286567
    16  H   -0.000001   0.001619   0.286567   0.325753
 Mulliken charges:
               1
     1  C   -0.347307
     2  H    0.224299
     3  C    0.244060
     4  H    0.222785
     5  C    1.131206
     6  C   -0.791824
     7  C    0.054617
     8  C   -0.479500
     9  C   -0.166902
    10  C   -0.811549
    11  H    0.192925
    12  H    0.184812
    13  H    0.189323
    14  H    0.191817
    15  N   -0.475321
    16  H    0.436559
 Sum of Mulliken charges =  -0.00000
 Mulliken charges with hydrogens summed into heavy atoms:
               1
     1  C   -0.123008
     3  C    0.466846
     5  C    1.131206
     6  C   -0.598899
     7  C    0.239429
     8  C   -0.290177
     9  C    0.024915
    10  C   -0.811549
    15  N   -0.038762
 Electronic spatial extent (au):  <R**2>=           1008.8992
 Charge=             -0.0000 electrons
 Dipole moment (field-independent basis, Debye):
    X=             -2.6439    Y=              2.5655    Z=             -0.0000  Tot=              3.6840
 Quadrupole moment (field-independent basis, Debye-Ang):
   XX=            -47.7994   YY=            -44.6777   ZZ=            -60.8214
   XY=             -1.6571   XZ=              0.0000   YZ=             -0.0000
 Traceless Quadrupole moment (field-independent basis, Debye-Ang):
   XX=              3.3001   YY=              6.4218   ZZ=             -9.7219
   XY=             -1.6571   XZ=              0.0000   YZ=             -0.0000
 Octapole moment (field-independent basis, Debye-Ang**2):
  XXX=            -17.3583  YYY=             23.9988  ZZZ=             -0.0000  XYY=            -11.3407
  XXY=              4.6765  XXZ=             -0.0000  XZZ=             -3.1125  YZZ=              2.5931
  YYZ=             -0.0000  XYZ=              0.0000
 Hexadecapole moment (field-independent basis, Debye-Ang**3):
 XXXX=           -817.4106 YYYY=           -420.9515 ZZZZ=            -89.6418 XXXY=             70.5402
 XXXZ=              0.0000 YYYX=             54.9898 YYYZ=             -0.0000 ZZZX=              0.0000
 ZZZY=             -0.0000 XXYY=           -203.5285 XXZZ=           -193.1056 YYZZ=           -114.6287
 XXYZ=             -0.0000 YYXZ=              0.0000 ZZXY=             31.0634
 N-N= 4.012841188295D+02 E-N=-1.643893750928D+03  KE= 3.596800431358D+02
 Symmetry A'   KE= 3.480124435898D+02
 Symmetry A"   KE= 1.166759954603D+01
 Calling FoFJK, ICntrl=  10005127 FMM=F ISym2X=1 I1Cent= 0 IOpClX= 0 NMat=1 NMatS=1 NMatT=0.
 ***** Axes restored to original set *****
 -------------------------------------------------------------------
 Center     Atomic                   Forces (Hartrees/Bohr)
 Number     Number              X              Y              Z
 -------------------------------------------------------------------
      1        6           0.014805578   -0.051655634   -0.000000000
      2        1           0.003056687   -0.000592257   -0.000000000
      3        6          -0.055685975    0.010459583    0.000000000
      4        1           0.001133262    0.003085923    0.000000000
      5        6           0.040069102   -0.002835301    0.000000000
      6        6          -0.000361590    0.024082205   -0.000000000
      7        6          -0.015369046   -0.033764960    0.000000000
      8        6          -0.036699504    0.046364444   -0.000000000
      9        6           0.050748155   -0.018905815    0.000000000
     10        6          -0.014893565    0.000389073   -0.000000000
     11        1           0.000245426    0.002122518   -0.000000000
     12        1          -0.001963688    0.000694223   -0.000000000
     13        1          -0.002205382   -0.000865629    0.000000000
     14        1           0.000715180   -0.002089933   -0.000000000
     15        7           0.013815657    0.029801021   -0.000000000
     16        1           0.002589704   -0.006289460    0.000000000
 -------------------------------------------------------------------
 Cartesian Forces:  Max     0.055685975 RMS     0.019085444

 GradGradGradGradGradGradGradGradGradGradGradGradGradGradGradGradGradGrad
 Berny optimization.
 FormGI is forming the generalized inverse of G from B-inverse, IUseBI=4.
 Internal  Forces:  Max     0.046846656 RMS     0.009141117
 Search for a local minimum.
 Step number   1 out of a maximum of   94
 All quantities printed in internal units (Hartrees-Bohrs-Radians)
 Mixed Optimization -- RFO/linear search
 Second derivative matrix not updated -- first step.
 ITU=  0
     Eigenvalues ---    0.01850   0.01928   0.01980   0.02009   0.02065
     Eigenvalues ---    0.02108   0.02145   0.02149   0.02167   0.02207
     Eigenvalues ---    0.02232   0.02245   0.02335   0.16000   0.16000
     Eigenvalues ---    0.16000   0.16000   0.16000   0.16000   0.16000
     Eigenvalues ---    0.22000   0.22188   0.22662   0.24012   0.24651
     Eigenvalues ---    0.35731   0.35737   0.35809   0.35816   0.36423
     Eigenvalues ---    0.36426   0.37018   0.38394   0.42612   0.43408
     Eigenvalues ---    0.45745   0.46593   0.47173   0.47440   0.47539
     Eigenvalues ---    0.48098   0.50889
 RFO step:  Lambda=-1.49272035D-02 EMin= 1.85038135D-02
 Linear search not attempted -- first point.
 Iteration  1 RMS(Cart)=  0.02369692 RMS(Int)=  0.00015885
 Iteration  2 RMS(Cart)=  0.00014033 RMS(Int)=  0.00007174
 Iteration  3 RMS(Cart)=  0.00000002 RMS(Int)=  0.00007174
 ClnCor:  largest displacement from symmetrization is 2.19D-10 for atom    11.
 Variable       Old X    -DE/DX   Delta X   Delta X   Delta X     New X
                                 (Linear)    (Quad)   (Total)
    R1        2.03425   0.00310   0.00000   0.00818   0.00818   2.04243
    R2        2.57910   0.03686   0.00000   0.07101   0.07104   2.65014
    R3        2.60605  -0.02760   0.00000  -0.05319  -0.05299   2.55306
    R4        2.03421   0.00329   0.00000   0.00867   0.00867   2.04288
    R5        2.70923  -0.02876   0.00000  -0.06831  -0.06848   2.64075
    R6        2.64810   0.02120   0.00000   0.04504   0.04504   2.69313
    R7        2.67988  -0.00113   0.00000  -0.00623  -0.00638   2.67350
    R8        2.61320   0.02069   0.00000   0.04229   0.04230   2.65550
    R9        2.04495   0.00211   0.00000   0.00568   0.00568   2.05063
   R10        2.65652  -0.02052   0.00000  -0.04322  -0.04321   2.61332
   R11        2.04381   0.00206   0.00000   0.00552   0.00552   2.04933
   R12        2.61598   0.04685   0.00000   0.09424   0.09424   2.71022
   R13        2.04370   0.00234   0.00000   0.00627   0.00627   2.04997
   R14        2.63366  -0.01209   0.00000  -0.02610  -0.02611   2.60754
   R15        2.04504   0.00210   0.00000   0.00564   0.00564   2.05068
   R16        2.60279   0.00683   0.00000   0.01196   0.01205   2.61484
   R17        1.89531   0.00678   0.00000   0.01394   0.01394   1.90925
    A1        2.26824   0.00514   0.00000   0.01946   0.01935   2.28759
    A2        2.10273   0.00459   0.00000   0.01633   0.01623   2.11896
    A3        1.91221  -0.00972   0.00000  -0.03579  -0.03558   1.87663
    A4        2.19485  -0.00285   0.00000  -0.01406  -0.01399   2.18086
    A5        1.86964   0.00572   0.00000   0.02821   0.02807   1.89771
    A6        2.21870  -0.00287   0.00000  -0.01415  -0.01408   2.20461
    A7        2.34475  -0.00100   0.00000  -0.00006   0.00012   2.34486
    A8        1.86535  -0.00270   0.00000  -0.01294  -0.01324   1.85212
    A9        2.07308   0.00370   0.00000   0.01300   0.01312   2.08620
   A10        2.07849  -0.00402   0.00000  -0.01606  -0.01608   2.06241
   A11        2.10136   0.00170   0.00000   0.00626   0.00627   2.10763
   A12        2.10333   0.00232   0.00000   0.00980   0.00981   2.11315
   A13        2.11419  -0.00083   0.00000   0.00023   0.00022   2.11440
   A14        2.08941   0.00074   0.00000   0.00173   0.00174   2.09115
   A15        2.07958   0.00009   0.00000  -0.00196  -0.00196   2.07763
   A16        2.11512   0.00109   0.00000   0.00672   0.00670   2.12183
   A17        2.08357  -0.00092   0.00000  -0.00550  -0.00549   2.07808
   A18        2.08449  -0.00017   0.00000  -0.00122  -0.00121   2.08328
   A19        2.05120  -0.00144   0.00000  -0.00857  -0.00861   2.04258
   A20        2.11238   0.00142   0.00000   0.00830   0.00832   2.12070
   A21        2.11961   0.00002   0.00000   0.00027   0.00029   2.11990
   A22        2.13428   0.00150   0.00000   0.00468   0.00466   2.13895
   A23        1.87045   0.00325   0.00000   0.00739   0.00736   1.87781
   A24        2.27845  -0.00476   0.00000  -0.01208  -0.01202   2.26643
   A25        1.90713   0.00345   0.00000   0.01313   0.01338   1.92051
   A26        2.18575  -0.00219   0.00000  -0.00920  -0.00933   2.17642
   A27        2.19031  -0.00126   0.00000  -0.00392  -0.00405   2.18626
    D1        0.00000   0.00000   0.00000   0.00000   0.00000   0.00000
    D2        3.14159  -0.00000   0.00000  -0.00000   0.00000   3.14159
    D3        3.14159   0.00000   0.00000  -0.00000   0.00000   3.14159
    D4        0.00000  -0.00000   0.00000  -0.00000   0.00000   0.00000
    D5        3.14159  -0.00000   0.00000  -0.00000   0.00000   3.14159
    D6        0.00000   0.00000   0.00000   0.00000   0.00000   0.00000
    D7        0.00000   0.00000   0.00000   0.00000   0.00000   0.00000
    D8        3.14159   0.00000   0.00000   0.00000   0.00000   3.14159
    D9        3.14159   0.00000   0.00000   0.00000   0.00000   3.14159
   D10        0.00000   0.00000   0.00000   0.00000   0.00000   0.00000
   D11        0.00000  -0.00000   0.00000   0.00000   0.00000   0.00000
   D12        3.14159   0.00000   0.00000   0.00000   0.00000   3.14159
   D13        3.14159   0.00000   0.00000   0.00000   0.00000   3.14159
   D14        0.00000   0.00000   0.00000   0.00000   0.00000   0.00000
   D15        0.00000   0.00000   0.00000   0.00000   0.00000   0.00000
   D16        3.14159   0.00000   0.00000   0.00000   0.00000   3.14159
   D17        3.14159  -0.00000   0.00000  -0.00000   0.00000   3.14159
   D18        0.00000  -0.00000   0.00000  -0.00000   0.00000   0.00000
   D19        0.00000  -0.00000   0.00000  -0.00000   0.00000   0.00000
   D20        3.14159  -0.00000   0.00000  -0.00000   0.00000   3.14159
   D21        0.00000  -0.00000   0.00000  -0.00000   0.00000   0.00000
   D22        3.14159   0.00000   0.00000   0.00000   0.00000   3.14159
   D23        3.14159  -0.00000   0.00000  -0.00000   0.00000   3.14159
   D24        0.00000   0.00000   0.00000   0.00000   0.00000   0.00000
   D25        0.00000   0.00000   0.00000   0.00000   0.00000   0.00000
   D26        3.14159  -0.00000   0.00000  -0.00000   0.00000   3.14159
   D27        3.14159  -0.00000   0.00000  -0.00000   0.00000   3.14159
   D28        0.00000  -0.00000   0.00000  -0.00000   0.00000   0.00000
   D29        0.00000  -0.00000   0.00000  -0.00000   0.00000   0.00000
   D30        3.14159  -0.00000   0.00000  -0.00000   0.00000   3.14159
   D31        3.14159  -0.00000   0.00000  -0.00000   0.00000   3.14159
   D32        0.00000   0.00000   0.00000   0.00000   0.00000   0.00000
   D33        0.00000   0.00000   0.00000   0.00000   0.00000   0.00000
   D34        3.14159   0.00000   0.00000   0.00000   0.00000   3.14159
   D35        3.14159   0.00000   0.00000   0.00000   0.00000   3.14159
   D36        0.00000  -0.00000   0.00000  -0.00000   0.00000   0.00000
   D37        0.00000   0.00000   0.00000   0.00000   0.00000   0.00000
   D38        3.14159  -0.00000   0.00000  -0.00000   0.00000   3.14159
   D39        3.14159   0.00000   0.00000   0.00000   0.00000   3.14159
   D40        0.00000   0.00000   0.00000   0.00000   0.00000   0.00000
         Item               Value     Threshold  Converged?
 Maximum Force            0.046847     0.000450     NO 
 RMS     Force            0.009141     0.000300     NO 
 Maximum Displacement     0.081338     0.001800     NO 
 RMS     Displacement     0.023691     0.001200     NO 
 Predicted change in Energy=-7.708972D-03
 GradGradGradGradGradGradGradGradGradGradGradGradGradGradGradGradGradGrad

                          Input orientation:                          
 ---------------------------------------------------------------------
 Center     Atomic      Atomic             Coordinates (Angstroms)
 Number     Number       Type             X           Y           Z
 ---------------------------------------------------------------------
      1          6           0        2.399768   -0.001496    0.000000
      2          1           0        3.474773   -0.113347    0.000000
      3          6           0        1.592793    1.145459    0.000000
      4          1           0        1.961049    2.161846    0.000000
      5          6           0        0.252217    0.750939    0.000000
      6          6           0       -0.991210    1.447305    0.000000
      7          6           0       -2.175285    0.690576    0.000000
      8          6           0       -2.140636   -0.691897    0.000000
      9          6           0       -0.900300   -1.411935    0.000000
     10          6           0        0.259133   -0.663797    0.000000
     11          1           0       -1.019761    2.532074    0.000000
     12          1           0       -3.136306    1.193061    0.000000
     13          1           0       -3.075319   -1.242491    0.000000
     14          1           0       -0.874334   -2.496796    0.000000
     15          7           0        1.580173   -1.075517    0.000000
     16          1           0        1.891593   -2.036656    0.000000
 ---------------------------------------------------------------------
                    Distance matrix (angstroms):
                    1          2          3          4          5
     1  C    0.000000
     2  H    1.080808   0.000000
     3  C    1.402396   2.264164   0.000000
     4  H    2.207379   2.732739   1.081044   0.000000
     5  C    2.275551   3.336444   1.397423   2.216025   0.000000
     6  C    3.687513   4.730818   2.601573   3.037500   1.425144
     7  C    4.627102   5.706965   3.795436   4.390205   2.428253
     8  C    4.592594   5.645134   4.161054   4.996766   2.794194
     9  C    3.588842   4.563726   3.571523   4.578125   2.450779
    10  C    2.240750   3.262413   2.247678   3.298603   1.414753
    11  H    4.255838   5.215274   2.957726   3.003714   2.188692
    12  H    5.663486   6.738921   4.729338   5.188600   3.417244
    13  H    5.613969   6.646704   5.243432   6.079022   3.878951
    14  H    4.116584   4.959391   4.399175   5.453654   3.437572
    15  N    1.351020   2.124919   2.221012   3.259691   2.258187
    16  H    2.097646   2.491100   3.196113   4.199076   3.233920
                    6          7          8          9         10
     6  C    0.000000
     7  C    1.405230   0.000000
     8  C    2.428449   1.382907   0.000000
     9  C    2.860684   2.458890   1.434186   0.000000
    10  C    2.453591   2.785806   2.399933   1.379853   0.000000
    11  H    1.085145   2.174017   3.413261   3.945818   3.442261
    12  H    2.160110   1.084459   2.131765   3.433034   3.870003
    13  H    3.402721   2.132325   1.084797   2.181609   3.384295
    14  H    3.945832   3.442647   2.204809   1.085172   2.155141
    15  N    3.602311   4.150006   3.740533   2.503183   1.383713
    16  H    4.522005   4.896661   4.250558   2.860933   2.132995
                   11         12         13         14         15
    11  H    0.000000
    12  H    2.504539   0.000000
    13  H    4.297983   2.436315   0.000000
    14  H    5.030973   4.327998   2.533302   0.000000
    15  N    4.446838   5.233700   4.658486   2.836307   0.000000
    16  H    5.417497   5.975854   5.030001   2.803939   1.010332
                   16
    16  H    0.000000
 Stoichiometry    C8H7N
 Framework group  CS[SG(C8H7N)]
 Deg. of freedom    29
 Full point group                 CS      NOp   2
 Largest Abelian subgroup         CS      NOp   2
 Largest concise Abelian subgroup C1      NOp   1
                         Standard orientation:                         
 ---------------------------------------------------------------------
 Center     Atomic      Atomic             Coordinates (Angstroms)
 Number     Number       Type             X           Y           Z
 ---------------------------------------------------------------------
      1          6           0       -2.235210    0.870602    0.000000
      2          1           0       -3.196827    1.363997    0.000000
      3          6           0       -1.898133   -0.490682    0.000000
      4          1           0       -2.609327   -1.304843    0.000000
      5          6           0       -0.505658   -0.608176    0.000000
      6          6           0        0.401378   -1.707413    0.000000
      7          6           0        1.779076   -1.430612   -0.000000
      8          6           0        2.247203   -0.129347   -0.000000
      9          6           0        1.351617    0.990838   -0.000000
     10          6           0       -0.000000    0.713124   -0.000000
     11          1           0        0.035328   -2.728955    0.000000
     12          1           0        2.493037   -2.246891   -0.000000
     13          1           0        3.317805    0.045573   -0.000000
     14          1           0        1.720109    2.011530   -0.000000
     15          7           0       -1.082422    1.575113    0.000000
     16          1           0       -1.024811    2.583801   -0.000000
 ---------------------------------------------------------------------
 Rotational constants (GHZ):           3.9158286           1.6282613           1.1500521
 Standard basis: 6-31+G(d) (6D, 7F)
 There are   140 symmetry adapted cartesian basis functions of A'  symmetry.
 There are    45 symmetry adapted cartesian basis functions of A"  symmetry.
 There are   140 symmetry adapted basis functions of A'  symmetry.
 There are    45 symmetry adapted basis functions of A"  symmetry.
   185 basis functions,   316 primitive gaussians,   185 cartesian basis functions
    31 alpha electrons       31 beta electrons
       nuclear repulsion energy       400.3927931084 Hartrees.
 NAtoms=   16 NActive=   16 NUniq=   16 SFac= 1.00D+00 NAtFMM=   60 NAOKFM=F Big=F
 Integral buffers will be    131072 words long.
 Raffenetti 1 integral format.
 Two-electron integral symmetry is turned on.
 One-electron integrals computed using PRISM.
 NBasis=   185 RedAO= T EigKep=  1.19D-06  NBF=   140    45
 NBsUse=   185 1.00D-06 EigRej= -1.00D+00 NBFU=   140    45
 Initial guess from the checkpoint file:  "/scratch/gfoley1/17401704/Gau-26788.chk"
 B after Tr=     0.000000   -0.000000   -0.000000
         Rot=    0.999957   -0.000000    0.000000    0.009326 Ang=   1.07 deg.
 Initial guess orbital symmetries:
       Occupied  (A') (A') (A') (A') (A') (A') (A') (A') (A') (A')
                 (A') (A') (A') (A') (A') (A') (A') (A') (A') (A')
                 (A') (A") (A') (A') (A') (A') (A") (A') (A") (A")
                 (A")
       Virtual   (A') (A") (A') (A') (A') (A') (A") (A") (A') (A')
                 (A') (A") (A") (A") (A') (A') (A') (A") (A') (A")
                 (A') (A") (A') (A") (A') (A") (A') (A') (A') (A')
                 (A') (A') (A") (A') (A') (A') (A') (A') (A") (A')
                 (A') (A') (A') (A') (A') (A') (A') (A') (A') (A')
                 (A') (A') (A') (A') (A') (A') (A') (A") (A') (A")
                 (A') (A") (A") (A') (A') (A") (A') (A") (A") (A')
                 (A') (A") (A') (A') (A') (A') (A') (A') (A") (A')
                 (A') (A') (A') (A') (A') (A') (A') (A') (A') (A')
                 (A') (A') (A") (A') (A") (A") (A') (A') (A") (A')
                 (A") (A") (A") (A") (A') (A') (A') (A') (A') (A')
                 (A") (A') (A') (A') (A') (A") (A') (A') (A') (A')
                 (A") (A') (A") (A") (A") (A') (A') (A") (A") (A')
                 (A') (A") (A') (A') (A") (A') (A') (A') (A') (A')
                 (A') (A') (A') (A') (A') (A') (A') (A') (A') (A')
                 (A') (A') (A') (A')
 ExpMin= 4.38D-02 ExpMax= 4.17D+03 ExpMxC= 6.27D+02 IAcc=3 IRadAn=         5 AccDes= 0.00D+00
 Harris functional with IExCor=10402 and IRadAn=       5 diagonalized for initial guess.
 HarFok:  IExCor=10402 AccDes= 0.00D+00 IRadAn=         5 IDoV= 1 UseB2=F ITyADJ=14
 ICtDFT=  3500011 ScaDFX=  1.000000  1.000000  1.000000  1.000000
 FoFCou: FMM=F IPFlag=           0 FMFlag=      100000 FMFlg1=           0
         NFxFlg=           0 DoJE=T BraDBF=F KetDBF=T FulRan=T
         wScrn=  0.000000 ICntrl=       500 IOpCl=  0 I1Cent=   200000004 NGrid=           0
         NMat0=    1 NMatS0=      1 NMatT0=    0 NMatD0=    1 NMtDS0=    0 NMtDT0=    0
 Petite list used in FoFCou.
 Keep R1 ints in memory in symmetry-blocked form, NReq=454694034.
 Requested convergence on RMS density matrix=1.00D-08 within 600 cycles.
 Requested convergence on MAX density matrix=1.00D-06.
 Requested convergence on             energy=1.00D-06.
 No special actions if energy rises.
 SCF Done:  E(RLC-B+HF-LYP) =  -362.727329604     A.U. after   15 cycles
            NFock= 15  Conv=0.80D-08     -V/T= 2.0092
 DoSCS=F DFT=T ScalE2(SS,OS)=  1.000000  1.000000
 ExpMin= 4.38D-02 ExpMax= 4.17D+03 ExpMxC= 6.27D+02 IAcc=3 IRadAn=         5 AccDes= 0.00D+00
 HarFok:  IExCor=  205 AccDes= 0.00D+00 IRadAn=         5 IDoV=-2 UseB2=F ITyADJ=14
 ICtDFT= 12500011 ScaDFX=  1.000000  1.000000  1.000000  1.000000
 Range of M.O.s used for correlation:    10   185
 NBasis=   185 NAE=    31 NBE=    31 NFC=     9 NFV=     0
 NROrb=    176 NOA=    22 NOB=    22 NVA=   154 NVB=   154

 **** Warning!!: The largest alpha MO coefficient is  0.20958993D+03

 Keep R1, R2, and R3 ints in memory in symmetry-blocked form, NReq=454694374.
 Orbital symmetries:
       Occupied  (A') (A') (A') (A') (A') (A') (A') (A') (A') (A')
                 (A') (A') (A') (A') (A') (A') (A') (A') (A') (A')
                 (A") (A') (A') (A') (A') (A') (A") (A') (A") (A")
                 (A")
       Virtual   (A') (A") (A') (A') (A') (A') (A") (A") (A') (A')
                 (A') (A") (A") (A") (A') (A') (A') (A") (A') (A")
                 (A') (A") (A') (A") (A') (A') (A") (A') (A') (A')
                 (A') (A') (A") (A') (A') (A') (A') (A') (A") (A')
                 (A') (A') (A') (A') (A') (A') (A') (A') (A') (A')
                 (A') (A') (A') (A') (A') (A') (A') (A") (A') (A")
                 (A') (A") (A") (A') (A') (A") (A') (A") (A") (A')
                 (A') (A") (A') (A') (A') (A') (A') (A') (A") (A')
                 (A') (A') (A') (A') (A') (A') (A') (A') (A') (A')
                 (A') (A') (A") (A') (A") (A") (A') (A') (A") (A')
                 (A") (A") (A") (A") (A') (A') (A') (A') (A') (A')
                 (A") (A') (A') (A') (A') (A") (A') (A') (A') (A')
                 (A") (A') (A") (A") (A") (A') (A') (A") (A") (A')
                 (A') (A") (A') (A') (A") (A') (A') (A') (A') (A')
                 (A') (A') (A') (A') (A') (A') (A') (A') (A') (A')
                 (A') (A') (A') (A')
 Generating guess from densities on rwf.
 Convergence on wavefunction:    0.000001000000000
 Iteration     1 Dimension     6 NMult     0 NNew      6
 CISAX will form     6 AO SS matrices at one time.
 New state      1 was old state      2
 New state      2 was old state      1
 Iteration     2 Dimension    12 NMult     6 NNew      6
 Iteration     3 Dimension    18 NMult    12 NNew      6
 Iteration     4 Dimension    24 NMult    18 NNew      6
 Iteration     5 Dimension    30 NMult    24 NNew      6
 Iteration     6 Dimension    36 NMult    30 NNew      6
 Iteration     7 Dimension    42 NMult    36 NNew      6
 Iteration     8 Dimension    48 NMult    42 NNew      6
 Iteration     9 Dimension    54 NMult    48 NNew      6
 Iteration    10 Dimension    60 NMult    54 NNew      6
 Iteration    11 Dimension    66 NMult    60 NNew      6
 Iteration    12 Dimension    70 NMult    66 NNew      4
 Iteration    13 Dimension    72 NMult    70 NNew      2
 Iteration    14 Dimension    74 NMult    72 NNew      2
 Iteration    15 Dimension    76 NMult    74 NNew      2
 Iteration    16 Dimension    78 NMult    76 NNew      2
 ***********************************************************************
 Excited states from <AA,BB:AA,BB> singles matrix:
 ***********************************************************************
 
 Ground to excited state transition densities written to RWF  633
 Ground to excited state transition electric dipole moments (Au):
       state          X           Y           Z        Dip. S.      Osc.
         1         0.3149      0.2062      0.0000      0.1417      0.0179
         2         0.7269     -1.1168     -0.0000      1.7757      0.2132
         3         0.0000      0.0000     -0.1968      0.0387      0.0052
 Ground to excited state transition velocity dipole moments (Au):
       state          X           Y           Z        Dip. S.      Osc.
         1        -0.0585     -0.0424     -0.0000      0.0052      0.0184
         2        -0.1146      0.2034      0.0000      0.0545      0.2018
         3        -0.0000     -0.0000      0.0302      0.0009      0.0030
 Ground to excited state transition magnetic dipole moments (Au):
       state          X           Y           Z
         1         0.0000     -0.0000      0.0201
         2        -0.0000     -0.0000      0.0852
         3        -0.0747      0.2010      0.0000
 Ground to excited state transition velocity quadrupole moments (Au):
       state          XX          YY          ZZ          XY          XZ          YZ
         1         0.0021     -0.0787      0.0240     -0.0178      0.0000      0.0000
         2         0.1981     -0.1438      0.0150     -0.1351      0.0000     -0.0000
         3         0.0000     -0.0000     -0.0000     -0.0000     -0.1385     -0.0081
 <0|del|b> * <b|rxdel|0> + <0|del|b> * <b|delr+rdel|0>
 Rotatory Strengths (R) in cgs (10**-40 erg-esu-cm/Gauss)
       state          XX          YY          ZZ    R(velocity)    E-M Angle
         1         0.0000     -0.0000     -0.0000     -0.0000       90.00
         2        -0.0000      0.0000     -0.0000      0.0000       90.00
         3        -0.0000      0.0000      0.0000      0.0000       90.00
 1/2[<0|r|b>*<b|rxdel|0> + (<0|rxdel|b>*<b|r|0>)*]
 Rotatory Strengths (R) in cgs (10**-40 erg-esu-cm/Gauss)
       state          XX          YY          ZZ     R(length)
         1        -0.0000      0.0000     -0.0000     -0.0000
         2         0.0000     -0.0000      0.0000      0.0000
         3         0.0000     -0.0000      0.0000      0.0000
  1/2[<0|del|b>*<b|r|0> + (<0|r|b>*<b|del|0>)*] (Au)
       state          X           Y           Z        Dip. S.   Osc.(frdel)
         1        -0.0184     -0.0087     -0.0000      0.0272      0.0181
         2        -0.0833     -0.2272     -0.0000      0.3105      0.2070
         3        -0.0000     -0.0000     -0.0059      0.0059      0.0040

 Excitation energies and oscillator strengths:
 
 Excited State   1:      Singlet-A'     5.1463 eV  240.92 nm  f=0.0179  <S**2>=0.000
      30 -> 33         0.54975
      31 -> 38        -0.36439
      31 -> 43         0.10776
 
 Excited State   2:      Singlet-A'     4.9011 eV  252.97 nm  f=0.2132  <S**2>=0.000
      30 -> 38         0.15012
      31 -> 33         0.67114
 This state for optimization and/or second-order correction.
 Total Energy, E(TD-HF/TD-DFT) =  -362.547216159    
 Copying the excited state density for this state as the 1-particle RhoCI density.
 
 Excited State   3:      Singlet-A"     5.5211 eV  224.56 nm  f=0.0052  <S**2>=0.000
      29 -> 32         0.10575
      31 -> 32         0.66135
      31 -> 40         0.12303
 SavETr:  write IOETrn=   770 NScale= 10 NData=  16 NLR=1 NState=    3 LETran=      64.
          IDoAtm=1111111111111111
          Differentiating once with respect to electric field.
                with respect to dipole field.
          Differentiating once with respect to nuclear coordinates.
 Keep R1 ints in memory in symmetry-blocked form, NReq=454696144.
          There are     1 degrees of freedom in the 1st order CPHF.  IDoFFX=0 NUNeed=     1.
 LinEq1:  Iter=  0 NonCon=     1 RMS=4.02D-03 Max=6.79D-02 NDo=     1
 AX will form     1 AO Fock derivatives at one time.
 LinEq1:  Iter=  1 NonCon=     1 RMS=1.94D-03 Max=5.58D-02 NDo=     1
 LinEq1:  Iter=  2 NonCon=     1 RMS=6.19D-04 Max=1.08D-02 NDo=     1
 LinEq1:  Iter=  3 NonCon=     1 RMS=3.79D-04 Max=1.33D-02 NDo=     1
 LinEq1:  Iter=  4 NonCon=     1 RMS=1.49D-04 Max=4.10D-03 NDo=     1
 LinEq1:  Iter=  5 NonCon=     1 RMS=6.42D-05 Max=1.72D-03 NDo=     1
 LinEq1:  Iter=  6 NonCon=     1 RMS=2.90D-05 Max=7.57D-04 NDo=     1
 LinEq1:  Iter=  7 NonCon=     1 RMS=1.32D-05 Max=2.60D-04 NDo=     1
 LinEq1:  Iter=  8 NonCon=     1 RMS=5.60D-06 Max=1.46D-04 NDo=     1
 LinEq1:  Iter=  9 NonCon=     1 RMS=1.90D-06 Max=3.33D-05 NDo=     1
 LinEq1:  Iter= 10 NonCon=     1 RMS=9.46D-07 Max=2.07D-05 NDo=     1
 LinEq1:  Iter= 11 NonCon=     1 RMS=3.02D-07 Max=7.42D-06 NDo=     1
 LinEq1:  Iter= 12 NonCon=     1 RMS=1.31D-07 Max=2.51D-06 NDo=     1
 LinEq1:  Iter= 13 NonCon=     1 RMS=4.88D-08 Max=1.13D-06 NDo=     1
 LinEq1:  Iter= 14 NonCon=     1 RMS=1.34D-08 Max=2.60D-07 NDo=     1
 LinEq1:  Iter= 15 NonCon=     1 RMS=6.13D-09 Max=9.72D-08 NDo=     1
 LinEq1:  Iter= 16 NonCon=     1 RMS=1.56D-09 Max=2.20D-08 NDo=     1
 LinEq1:  Iter= 17 NonCon=     1 RMS=3.76D-10 Max=7.14D-09 NDo=     1
 LinEq1:  Iter= 18 NonCon=     1 RMS=1.82D-10 Max=2.38D-09 NDo=     1
 LinEq1:  Iter= 19 NonCon=     0 RMS=4.58D-11 Max=7.30D-10 NDo=     1
 Linear equations converged to 1.000D-10 1.000D-09 after    19 iterations.
 End of Minotr F.D. properties file   721 does not exist.
 End of Minotr F.D. properties file   722 does not exist.
 End of Minotr F.D. properties file   788 does not exist.
 Calling FoFJK, ICntrl=  10005127 FMM=F ISym2X=1 I1Cent= 0 IOpClX= 0 NMat=1 NMatS=1 NMatT=0.
 ***** Axes restored to original set *****
 -------------------------------------------------------------------
 Center     Atomic                   Forces (Hartrees/Bohr)
 Number     Number              X              Y              Z
 -------------------------------------------------------------------
      1        6           0.003824287   -0.016914071   -0.000000000
      2        1          -0.000486461    0.001266831    0.000000000
      3        6          -0.015558070    0.010172774    0.000000000
      4        1           0.001282710    0.000209455   -0.000000000
      5        6           0.015310983   -0.004164368    0.000000000
      6        6          -0.003419381    0.006749541    0.000000000
      7        6           0.001980052   -0.011548934    0.000000000
      8        6          -0.008363553    0.015330461   -0.000000000
      9        6           0.014955688   -0.007183563   -0.000000000
     10        6          -0.015362784   -0.001726726   -0.000000000
     11        1           0.000566679   -0.000694936    0.000000000
     12        1           0.000291925    0.000708410   -0.000000000
     13        1           0.000825120   -0.001433267    0.000000000
     14        1          -0.001513133    0.000468089   -0.000000000
     15        7           0.006616979    0.009403779   -0.000000000
     16        1          -0.000951041   -0.000643474   -0.000000000
 -------------------------------------------------------------------
 Cartesian Forces:  Max     0.016914071 RMS     0.006543937

 GradGradGradGradGradGradGradGradGradGradGradGradGradGradGradGradGradGrad
 Berny optimization.
 Using GEDIIS/GDIIS optimizer.
 FormGI is forming the generalized inverse of G from B-inverse, IUseBI=4.
 Internal  Forces:  Max     0.010387127 RMS     0.002498592
 Search for a local minimum.
 Step number   2 out of a maximum of   94
 All quantities printed in internal units (Hartrees-Bohrs-Radians)
 Mixed Optimization -- RFO/linear search
 Update second derivatives using D2CorX and points    1    2
 DE= -9.20D-03 DEPred=-7.71D-03 R= 1.19D+00
 TightC=F SS=  1.41D+00  RLast= 1.82D-01 DXNew= 5.0454D-01 5.4503D-01
 Trust test= 1.19D+00 RLast= 1.82D-01 DXMaxT set to 5.05D-01
 ITU=  1  0
 Use linear search instead of GDIIS.
     Eigenvalues ---    0.01851   0.01928   0.01980   0.02008   0.02066
     Eigenvalues ---    0.02108   0.02144   0.02150   0.02168   0.02208
     Eigenvalues ---    0.02232   0.02245   0.02336   0.15899   0.16000
     Eigenvalues ---    0.16000   0.16000   0.16000   0.16000   0.16014
     Eigenvalues ---    0.20951   0.22010   0.22756   0.24459   0.24702
     Eigenvalues ---    0.35301   0.35734   0.35812   0.35824   0.35984
     Eigenvalues ---    0.36447   0.36570   0.37471   0.40561   0.43021
     Eigenvalues ---    0.44135   0.46312   0.46747   0.47214   0.47537
     Eigenvalues ---    0.49073   0.50229
 RFO step:  Lambda=-1.11784320D-03 EMin= 1.85097482D-02
 Quartic linear search produced a step of  0.24843.
 Iteration  1 RMS(Cart)=  0.00709215 RMS(Int)=  0.00004849
 Iteration  2 RMS(Cart)=  0.00007751 RMS(Int)=  0.00002322
 Iteration  3 RMS(Cart)=  0.00000000 RMS(Int)=  0.00002322
 ClnCor:  largest displacement from symmetrization is 5.01D-11 for atom     4.
 Variable       Old X    -DE/DX   Delta X   Delta X   Delta X     New X
                                 (Linear)    (Quad)   (Total)
    R1        2.04243  -0.00061   0.00203  -0.00377  -0.00173   2.04070
    R2        2.65014   0.01039   0.01765   0.01177   0.02938   2.67952
    R3        2.55306  -0.00689  -0.01316  -0.00701  -0.02016   2.53290
    R4        2.04288   0.00063   0.00215   0.00040   0.00255   2.04543
    R5        2.64075  -0.00782  -0.01701  -0.00983  -0.02688   2.61386
    R6        2.69313   0.00320   0.01119  -0.00002   0.01119   2.70432
    R7        2.67350   0.00031  -0.00159   0.00182   0.00028   2.67378
    R8        2.65550   0.00107   0.01051  -0.00564   0.00486   2.66036
    R9        2.05063  -0.00071   0.00141  -0.00363  -0.00222   2.04841
   R10        2.61332  -0.00767  -0.01073  -0.01302  -0.02378   2.58953
   R11        2.04933   0.00007   0.00137  -0.00089   0.00049   2.04982
   R12        2.71022   0.00838   0.02341   0.00303   0.02642   2.73664
   R13        2.04997   0.00002   0.00156  -0.00122   0.00033   2.05031
   R14        2.60754  -0.00597  -0.00649  -0.01068  -0.01716   2.59039
   R15        2.05068  -0.00050   0.00140  -0.00291  -0.00151   2.04917
   R16        2.61484   0.00266   0.00299   0.00366   0.00671   2.62154
   R17        1.90925   0.00032   0.00346  -0.00190   0.00157   1.91082
    A1        2.28759  -0.00057   0.00481  -0.01102  -0.00620   2.28139
    A2        2.11896   0.00190   0.00403   0.00889   0.01292   2.13189
    A3        1.87663  -0.00134  -0.00884   0.00213  -0.00672   1.86991
    A4        2.18086  -0.00015  -0.00348  -0.00144  -0.00488   2.17598
    A5        1.89771  -0.00201   0.00697  -0.01510  -0.00819   1.88951
    A6        2.20461   0.00217  -0.00350   0.01654   0.01308   2.21769
    A7        2.34486  -0.00253   0.00003  -0.01301  -0.01300   2.33187
    A8        1.85212   0.00390  -0.00329   0.02203   0.01870   1.87082
    A9        2.08620  -0.00137   0.00326  -0.00903  -0.00570   2.08050
   A10        2.06241  -0.00224  -0.00400  -0.00890  -0.01289   2.04952
   A11        2.10763   0.00056   0.00156   0.00053   0.00208   2.10971
   A12        2.11315   0.00168   0.00244   0.00837   0.01081   2.12396
   A13        2.11440   0.00239   0.00005   0.01299   0.01301   2.12741
   A14        2.09115  -0.00198   0.00043  -0.01300  -0.01255   2.07860
   A15        2.07763  -0.00042  -0.00049   0.00001  -0.00046   2.07717
   A16        2.12183   0.00075   0.00166   0.00221   0.00383   2.12566
   A17        2.07808   0.00132  -0.00136   0.01255   0.01121   2.08929
   A18        2.08328  -0.00207  -0.00030  -0.01476  -0.01504   2.06824
   A19        2.04258  -0.00345  -0.00214  -0.01739  -0.01953   2.02305
   A20        2.12070   0.00019   0.00207  -0.00421  -0.00214   2.11855
   A21        2.11990   0.00326   0.00007   0.02160   0.02167   2.14158
   A22        2.13895   0.00392   0.00116   0.02012   0.02129   2.16023
   A23        1.87781  -0.00312   0.00183  -0.01940  -0.01752   1.86028
   A24        2.26643  -0.00080  -0.00299  -0.00071  -0.00376   2.26267
   A25        1.92051   0.00257   0.00332   0.01034   0.01373   1.93425
   A26        2.17642  -0.00023  -0.00232   0.00363   0.00128   2.17770
   A27        2.18626  -0.00234  -0.00101  -0.01397  -0.01501   2.17124
    D1        0.00000   0.00000   0.00000  -0.00000   0.00000   0.00000
    D2        3.14159   0.00000   0.00000   0.00000   0.00000   3.14159
    D3        3.14159  -0.00000   0.00000   0.00000   0.00000   3.14159
    D4       -0.00000  -0.00000   0.00000   0.00000   0.00000   0.00000
    D5        3.14159   0.00000   0.00000   0.00000   0.00000   3.14159
    D6       -0.00000   0.00000   0.00000  -0.00000   0.00000   0.00000
    D7        0.00000   0.00000   0.00000  -0.00000   0.00000   0.00000
    D8        3.14159   0.00000   0.00000  -0.00000   0.00000   3.14159
    D9        3.14159  -0.00000   0.00000  -0.00000   0.00000   3.14159
   D10        0.00000  -0.00000   0.00000  -0.00000   0.00000   0.00000
   D11       -0.00000  -0.00000   0.00000  -0.00000   0.00000   0.00000
   D12        3.14159  -0.00000   0.00000  -0.00000   0.00000   3.14159
   D13        3.14159  -0.00000   0.00000  -0.00000   0.00000   3.14159
   D14       -0.00000   0.00000   0.00000  -0.00000   0.00000   0.00000
   D15        0.00000  -0.00000   0.00000  -0.00000   0.00000   0.00000
   D16        3.14159   0.00000   0.00000  -0.00000   0.00000   3.14159
   D17        3.14159   0.00000   0.00000   0.00000   0.00000   3.14159
   D18        0.00000   0.00000   0.00000   0.00000  -0.00000   0.00000
   D19       -0.00000   0.00000   0.00000   0.00000   0.00000   0.00000
   D20        3.14159   0.00000   0.00000   0.00000   0.00000   3.14159
   D21        0.00000  -0.00000   0.00000   0.00000  -0.00000   0.00000
   D22        3.14159   0.00000   0.00000  -0.00000   0.00000   3.14159
   D23        3.14159  -0.00000   0.00000   0.00000   0.00000   3.14159
   D24       -0.00000  -0.00000   0.00000  -0.00000   0.00000   0.00000
   D25       -0.00000   0.00000   0.00000   0.00000   0.00000   0.00000
   D26        3.14159   0.00000   0.00000   0.00000   0.00000   3.14159
   D27        3.14159  -0.00000   0.00000   0.00000   0.00000   3.14159
   D28        0.00000  -0.00000   0.00000   0.00000   0.00000   0.00000
   D29        0.00000  -0.00000   0.00000   0.00000   0.00000   0.00000
   D30        3.14159  -0.00000   0.00000  -0.00000   0.00000   3.14159
   D31        3.14159   0.00000   0.00000   0.00000   0.00000   3.14159
   D32        0.00000  -0.00000   0.00000  -0.00000  -0.00000   0.00000
   D33       -0.00000   0.00000   0.00000  -0.00000   0.00000   0.00000
   D34        3.14159  -0.00000   0.00000  -0.00000   0.00000   3.14159
   D35        3.14159   0.00000   0.00000  -0.00000   0.00000   3.14159
   D36       -0.00000   0.00000   0.00000   0.00000   0.00000   0.00000
   D37       -0.00000  -0.00000   0.00000  -0.00000   0.00000   0.00000
   D38        3.14159  -0.00000   0.00000   0.00000   0.00000   3.14159
   D39        3.14159  -0.00000   0.00000  -0.00000   0.00000   3.14159
   D40       -0.00000  -0.00000   0.00000  -0.00000   0.00000   0.00000
         Item               Value     Threshold  Converged?
 Maximum Force            0.010387     0.000450     NO 
 RMS     Force            0.002499     0.000300     NO 
 Maximum Displacement     0.021958     0.001800     NO 
 RMS     Displacement     0.007104     0.001200     NO 
 Predicted change in Energy=-1.005393D-03
 GradGradGradGradGradGradGradGradGradGradGradGradGradGradGradGradGradGrad

                          Input orientation:                          
 ---------------------------------------------------------------------
 Center     Atomic      Atomic             Coordinates (Angstroms)
 Number     Number       Type             X           Y           Z
 ---------------------------------------------------------------------
      1          6           0        2.397753   -0.008351    0.000000
      2          1           0        3.472577   -0.112830    0.000000
      3          6           0        1.581174    1.150855   -0.000000
      4          1           0        1.954275    2.166913   -0.000000
      5          6           0        0.257718    0.748739   -0.000000
      6          6           0       -0.987901    1.453280   -0.000000
      7          6           0       -2.167536    0.684929   -0.000000
      8          6           0       -2.139165   -0.685099    0.000000
      9          6           0       -0.892728   -1.422382    0.000000
     10          6           0        0.250570   -0.666146    0.000000
     11          1           0       -1.014089    2.536933   -0.000000
     12          1           0       -3.126819    1.191274   -0.000000
     13          1           0       -3.070204   -1.242179    0.000000
     14          1           0       -0.877977   -2.506656    0.000000
     15          7           0        1.578090   -1.068869    0.000000
[...]
 ! D9    D(1,3,5,6)            180.0            -DE/DX =    0.0                 !
 ! D10   D(1,3,5,10)             0.0            -DE/DX =    0.0                 !
 ! D11   D(4,3,5,6)              0.0            -DE/DX =    0.0                 !
 ! D12   D(4,3,5,10)           180.0            -DE/DX =    0.0                 !
 ! D13   D(3,5,6,7)            180.0            -DE/DX =    0.0                 !
 ! D14   D(3,5,6,11)             0.0            -DE/DX =    0.0                 !
 ! D15   D(10,5,6,7)             0.0            -DE/DX =    0.0                 !
 ! D16   D(10,5,6,11)          180.0            -DE/DX =    0.0                 !
 ! D17   D(3,5,10,9)           180.0            -DE/DX =    0.0                 !
 ! D18   D(3,5,10,15)            0.0            -DE/DX =    0.0                 !
 ! D19   D(6,5,10,9)             0.0            -DE/DX =    0.0                 !
 ! D20   D(6,5,10,15)          180.0            -DE/DX =    0.0                 !
 ! D21   D(5,6,7,8)              0.0            -DE/DX =    0.0                 !
 ! D22   D(5,6,7,12)           180.0            -DE/DX =    0.0                 !
 ! D23   D(11,6,7,8)           180.0            -DE/DX =    0.0                 !
 ! D24   D(11,6,7,12)            0.0            -DE/DX =    0.0                 !
 ! D25   D(6,7,8,9)              0.0            -DE/DX =    0.0                 !
 ! D26   D(6,7,8,13)           180.0            -DE/DX =    0.0                 !
 ! D27   D(12,7,8,9)           180.0            -DE/DX =    0.0                 !
 ! D28   D(12,7,8,13)            0.0            -DE/DX =    0.0                 !
 ! D29   D(7,8,9,10)             0.0            -DE/DX =    0.0                 !
 ! D30   D(7,8,9,14)           180.0            -DE/DX =    0.0                 !
 ! D31   D(13,8,9,10)          180.0            -DE/DX =    0.0                 !
 ! D32   D(13,8,9,14)            0.0            -DE/DX =    0.0                 !
 ! D33   D(8,9,10,5)             0.0            -DE/DX =    0.0                 !
 ! D34   D(8,9,10,15)          180.0            -DE/DX =    0.0                 !
 ! D35   D(14,9,10,5)          180.0            -DE/DX =    0.0                 !
 ! D36   D(14,9,10,15)           0.0            -DE/DX =    0.0                 !
 ! D37   D(5,10,15,1)            0.0            -DE/DX =    0.0                 !
 ! D38   D(5,10,15,16)         180.0            -DE/DX =    0.0                 !
 ! D39   D(9,10,15,1)          180.0            -DE/DX =    0.0                 !
 ! D40   D(9,10,15,16)           0.0            -DE/DX =    0.0                 !
 --------------------------------------------------------------------------------
 GradGradGradGradGradGradGradGradGradGradGradGradGradGradGradGradGradGrad

                          Input orientation:                          
 ---------------------------------------------------------------------
 Center     Atomic      Atomic             Coordinates (Angstroms)
 Number     Number       Type             X           Y           Z
 ---------------------------------------------------------------------
      1          6           0        2.400318   -0.008728    0.000000
      2          1           0        3.475429   -0.109486    0.000000
      3          6           0        1.582223    1.152636   -0.000000
      4          1           0        1.958664    2.166614   -0.000000
      5          6           0        0.256359    0.748891   -0.000000
      6          6           0       -0.989080    1.453224   -0.000000
      7          6           0       -2.167641    0.685360   -0.000000
      8          6           0       -2.141495   -0.686015    0.000000
      9          6           0       -0.892562   -1.424218    0.000000
     10          6           0        0.248731   -0.666176    0.000000
     11          1           0       -1.015685    2.536620   -0.000000
     12          1           0       -3.126060    1.194418   -0.000000
     13          1           0       -3.070856   -1.245659    0.000000
     14          1           0       -0.881831   -2.507811    0.000000
     15          7           0        1.580051   -1.068613    0.000000
     16          1           0        1.881781   -2.033731    0.000000
 ---------------------------------------------------------------------
                    Distance matrix (angstroms):
                    1          2          3          4          5
     1  C    0.000000
     2  H    1.079822   0.000000
     3  C    1.420579   2.275342   0.000000
     4  H    2.219723   2.735180   1.081601   0.000000
     5  C    2.273884   3.331549   1.385974   2.215351   0.000000
     6  C    3.691249   4.730106   2.588812   3.032840   1.430805
     7  C    4.620390   5.698773   3.778865   4.384120   2.424832
     8  C    4.592035   5.646434   4.152916   4.994878   2.794398
     9  C    3.584225   4.561564   3.572777   4.585146   2.458134
    10  C    2.249793   3.274368   2.255278   3.308863   1.415088
    11  H    4.260032   5.212675   2.943559   2.997275   2.194099
    12  H    5.655830   6.729028   4.708468   5.176832   3.411635
    13  H    5.609255   6.644150   5.234783   6.077802   3.879251
    14  H    4.125278   4.973699   4.412531   5.469796   3.449868
    15  N    1.340222   2.124237   2.221250   3.257306   2.248440
    16  H    2.090340   2.498486   3.200418   4.201049   3.222575
                    6          7          8          9         10
     6  C    0.000000
     7  C    1.406635   0.000000
     8  C    2.429899   1.371625   0.000000
     9  C    2.879060   2.464983   1.450784   0.000000
    10  C    2.454391   2.768664   2.390308   1.370101   0.000000
    11  H    1.083722   2.180405   3.413624   3.962751   3.443349
    12  H    2.152595   1.085222   2.122592   3.441767   3.853702
    13  H    3.408484   2.131814   1.084856   2.185600   3.369785
    14  H    3.962487   3.442332   2.214880   1.083647   2.160969
    15  N    3.600014   4.137828   3.741161   2.498054   1.390816
    16  H    4.516714   4.877630   4.243005   2.840509   2.130038
                   11         12         13         14         15
    11  H    0.000000
    12  H    2.501038   0.000000
    13  H    4.304574   2.440701   0.000000
    14  H    5.046207   4.329326   2.526828   0.000000
    15  N    4.442471   5.221953   4.654276   2.851693   0.000000
    16  H    5.411416   5.958139   5.014945   2.803980   1.011185
                   16
    16  H    0.000000
 Stoichiometry    C8H7N
 Framework group  CS[SG(C8H7N)]
 Deg. of freedom    29
 Full point group                 CS      NOp   2
 Largest Abelian subgroup         CS      NOp   2
 Largest concise Abelian subgroup C1      NOp   1
                         Standard orientation:                         
 ---------------------------------------------------------------------
 Center     Atomic      Atomic             Coordinates (Angstroms)
 Number     Number       Type             X           Y           Z
 ---------------------------------------------------------------------
      1          6           0       -2.245871    0.844280    0.000000
      2          1           0       -3.218640    1.313042    0.000000
      3          6           0       -1.883296   -0.529250    0.000000
      4          1           0       -2.589210   -1.348729    0.000000
      5          6           0       -0.499817   -0.612374    0.000000
      6          6           0        0.422484   -1.706250   -0.000000
      7          6           0        1.794647   -1.396750   -0.000000
      8          6           0        2.247591   -0.102071   -0.000000
      9          6           0        1.333807    1.024772   -0.000000
     10          6           0       -0.000000    0.711506    0.000000
     11          1           0        0.070233   -2.731127   -0.000000
     12          1           0        2.515872   -2.207640   -0.000000
     13          1           0        3.313651    0.098996   -0.000000
     14          1           0        1.701008    2.044308   -0.000000
     15          7           0       -1.107917    1.552273    0.000000
     16          1           0       -1.054757    2.562060    0.000000
 ---------------------------------------------------------------------
 Rotational constants (GHZ):           3.8995823           1.6341680           1.1515830

 **********************************************************************

            Population analysis using the CI Density.

 **********************************************************************

 Orbital symmetries:
       Occupied  (A') (A') (A') (A') (A') (A') (A') (A') (A') (A')
                 (A') (A') (A') (A') (A') (A') (A') (A') (A') (A')
                 (A') (A") (A') (A') (A') (A') (A") (A') (A") (A")
                 (A")
       Virtual   (A') (A") (A') (A') (A') (A') (A") (A') (A") (A')
                 (A') (A") (A") (A") (A') (A') (A') (A") (A') (A")
                 (A') (A") (A') (A") (A') (A') (A") (A') (A') (A')
                 (A') (A') (A") (A') (A') (A') (A') (A') (A") (A')
                 (A') (A') (A') (A') (A') (A') (A') (A') (A') (A')
                 (A') (A') (A') (A') (A') (A') (A') (A') (A") (A")
                 (A') (A") (A") (A') (A') (A") (A') (A") (A") (A')
                 (A') (A") (A') (A') (A') (A') (A') (A') (A") (A')
                 (A') (A') (A') (A') (A') (A') (A') (A') (A') (A')
                 (A') (A') (A") (A') (A") (A") (A') (A') (A") (A')
                 (A") (A") (A") (A") (A') (A') (A') (A') (A') (A')
                 (A") (A') (A') (A') (A') (A") (A') (A') (A') (A")
                 (A') (A') (A") (A") (A') (A") (A') (A") (A") (A')
                 (A') (A") (A') (A') (A") (A') (A') (A') (A') (A')
                 (A') (A') (A') (A') (A') (A') (A') (A') (A') (A')
                 (A') (A') (A') (A')
 The electronic state is 1-A'.
 Alpha  occ. eigenvalues --  -14.31046 -10.20230 -10.19238 -10.16848 -10.16219
 Alpha  occ. eigenvalues --  -10.15998 -10.15795 -10.15393 -10.14499  -1.16240
 Alpha  occ. eigenvalues --   -1.01379  -0.95056  -0.90918  -0.87123  -0.78476
 Alpha  occ. eigenvalues --   -0.75045  -0.73038  -0.68789  -0.62501  -0.61344
 Alpha  occ. eigenvalues --   -0.57764  -0.57643  -0.56852  -0.53710  -0.52520
 Alpha  occ. eigenvalues --   -0.47630  -0.47115  -0.46858  -0.39786  -0.33774
 Alpha  occ. eigenvalues --   -0.29128
 Alpha virt. eigenvalues --    0.04456   0.04892   0.06348   0.06873   0.08087
 Alpha virt. eigenvalues --    0.08450   0.10166   0.10651   0.10665   0.10923
 Alpha virt. eigenvalues --    0.11654   0.11658   0.13717   0.14653   0.14861
 Alpha virt. eigenvalues --    0.15016   0.16588   0.17957   0.19237   0.19322
 Alpha virt. eigenvalues --    0.20426   0.21202   0.21680   0.22746   0.23000
 Alpha virt. eigenvalues --    0.24222   0.24424   0.24850   0.26071   0.26447
 Alpha virt. eigenvalues --    0.27384   0.27686   0.28258   0.29060   0.29739
 Alpha virt. eigenvalues --    0.30435   0.30805   0.32001   0.32244   0.32898
 Alpha virt. eigenvalues --    0.34465   0.34729   0.37055   0.37849   0.39305
 Alpha virt. eigenvalues --    0.40960   0.41097   0.42344   0.44756   0.46063
 Alpha virt. eigenvalues --    0.48116   0.50166   0.54565   0.57038   0.63542
 Alpha virt. eigenvalues --    0.70212   0.73846   0.78190   0.78301   0.80915
 Alpha virt. eigenvalues --    0.83087   0.83414   0.84550   0.84808   0.86146
 Alpha virt. eigenvalues --    0.86978   0.88464   0.88993   0.90863   0.91052
 Alpha virt. eigenvalues --    0.93230   0.96971   1.00334   1.00981   1.02744
 Alpha virt. eigenvalues --    1.06223   1.06474   1.07492   1.07847   1.10640
 Alpha virt. eigenvalues --    1.12070   1.14748   1.16648   1.17774   1.21077
 Alpha virt. eigenvalues --    1.23651   1.25079   1.29902   1.30601   1.33832
 Alpha virt. eigenvalues --    1.34980   1.37658   1.38526   1.45115   1.46828
 Alpha virt. eigenvalues --    1.49591   1.49646   1.54717   1.55661   1.57623
 Alpha virt. eigenvalues --    1.61852   1.62347   1.64922   1.65326   1.67059
 Alpha virt. eigenvalues --    1.72229   1.77823   1.92819   1.96491   2.04135
 Alpha virt. eigenvalues --    2.05566   2.05865   2.09443   2.14858   2.15485
 Alpha virt. eigenvalues --    2.16197   2.19068   2.22598   2.28758   2.31027
 Alpha virt. eigenvalues --    2.31557   2.34739   2.38411   2.40575   2.43447
 Alpha virt. eigenvalues --    2.43518   2.46682   2.53167   2.57184   2.61112
 Alpha virt. eigenvalues --    2.68263   2.72520   2.76419   2.80413   2.81524
 Alpha virt. eigenvalues --    2.82388   2.87656   2.95222   2.98448   3.00286
 Alpha virt. eigenvalues --    3.10372   3.12722   3.25870   3.39698   3.57523
 Alpha virt. eigenvalues --    4.27700   4.37183   4.40133   4.43357   4.48401
 Alpha virt. eigenvalues --    4.53002   4.60303   4.63892   4.90738
          Condensed to atoms (all electrons):
               1          2          3          4          5          6
     1  C    6.731203   0.388893  -2.386376  -0.084635   2.094234   0.845945
     2  H    0.388893   0.457493  -0.052793  -0.000504  -0.020202  -0.017581
     3  C   -2.386376  -0.052793  13.168265   0.444827  -6.034551  -3.031873
     4  H   -0.084635  -0.000504   0.444827   0.474300  -0.119551  -0.058999
     5  C    2.094234  -0.020202  -6.034551  -0.119551  15.674645  -0.360720
     6  C    0.845945  -0.017581  -3.031873  -0.058999  -0.360720  12.299087
     7  C   -0.084812   0.000660   0.214935  -0.000170  -0.162108  -0.074235
     8  C    0.037645   0.000090  -0.315745  -0.000053  -0.365727   0.477161
     9  C   -1.211580   0.015400   3.537220   0.012516  -4.116819  -2.495620
    10  C   -0.456244   0.052898   0.892761   0.102224  -2.681148  -1.230155
    11  H    0.005776  -0.000001  -0.081048   0.001415   0.041380   0.327482
    12  H    0.000433  -0.000000  -0.002842  -0.000002   0.033706  -0.039490
    13  H    0.001490  -0.000000  -0.002459   0.000000  -0.007036   0.032769
    14  H    0.010268   0.000003  -0.011112   0.000002   0.022401  -0.019422
    15  N    0.441126  -0.051105  -0.492817   0.007632   0.652800   0.055005
    16  H   -0.011422  -0.002422  -0.019550  -0.000077   0.198160   0.030859
               7          8          9         10         11         12
     1  C   -0.084812   0.037645  -1.211580  -0.456244   0.005776   0.000433
     2  H    0.000660   0.000090   0.015400   0.052898  -0.000001  -0.000000
     3  C    0.214935  -0.315745   3.537220   0.892761  -0.081048  -0.002842
     4  H   -0.000170  -0.000053   0.012516   0.102224   0.001415  -0.000002
     5  C   -0.162108  -0.365727  -4.116819  -2.681148   0.041380   0.033706
     6  C   -0.074235   0.477161  -2.495620  -1.230155   0.327482  -0.039490
     7  C    5.439397   0.470956   0.330969  -0.448737  -0.037305   0.335453
     8  C    0.470956   5.848884  -0.548439   0.452786   0.026807  -0.027077
     9  C    0.330969  -0.548439  14.515166  -3.358153  -0.052399   0.023147
    10  C   -0.448737   0.452786  -3.358153  13.694314   0.067035  -0.015900
    11  H   -0.037305   0.026807  -0.052399   0.067035   0.510880  -0.003404
    12  H    0.335453  -0.027077   0.023147  -0.015900  -0.003404   0.516384
    13  H   -0.032259   0.341630  -0.058266   0.032618  -0.000134  -0.004479
    14  H    0.027242  -0.006973   0.332308  -0.054763   0.000013  -0.000124
    15  N   -0.006696   0.012793  -0.457297  -0.192990  -0.000710   0.000187
    16  H   -0.004577  -0.004778  -0.155625  -0.082838   0.000003  -0.000000
              13         14         15         16
     1  C    0.001490   0.010268   0.441126  -0.011422
     2  H   -0.000000   0.000003  -0.051105  -0.002422
     3  C   -0.002459  -0.011112  -0.492817  -0.019550
     4  H    0.000000   0.000002   0.007632  -0.000077
     5  C   -0.007036   0.022401   0.652800   0.198160
     6  C    0.032769  -0.019422   0.055005   0.030859
     7  C   -0.032259   0.027242  -0.006696  -0.004577
     8  C    0.341630  -0.006973   0.012793  -0.004778
     9  C   -0.058266   0.332308  -0.457297  -0.155625
    10  C    0.032618  -0.054763  -0.192990  -0.082838
    11  H   -0.000134   0.000013  -0.000710   0.000003
    12  H   -0.004479  -0.000124   0.000187  -0.000000
    13  H    0.512395  -0.003128  -0.000371  -0.000001
    14  H   -0.003128   0.512146  -0.001571   0.001713
    15  N   -0.000371  -0.001571   7.200242   0.284809
    16  H   -0.000001   0.001713   0.284809   0.328044
 Mulliken charges:
               1
     1  C   -0.321945
     2  H    0.229174
     3  C    0.173160
     4  H    0.221076
     5  C    1.150538
     6  C   -0.740215
     7  C    0.031288
     8  C   -0.399958
     9  C   -0.312527
    10  C   -0.773707
    11  H    0.194211
    12  H    0.184008
    13  H    0.187231
    14  H    0.190997
    15  N   -0.451035
    16  H    0.437704
 Sum of Mulliken charges =  -0.00000
 Mulliken charges with hydrogens summed into heavy atoms:
               1
     1  C   -0.092771
     3  C    0.394236
     5  C    1.150538
     6  C   -0.546004
     7  C    0.215296
     8  C   -0.212727
     9  C   -0.121530
    10  C   -0.773707
    15  N   -0.013330
 Electronic spatial extent (au):  <R**2>=           1012.5055
 Charge=             -0.0000 electrons
 Dipole moment (field-independent basis, Debye):
    X=             -2.6819    Y=              2.8182    Z=             -0.0000  Tot=              3.8904
 Quadrupole moment (field-independent basis, Debye-Ang):
   XX=            -47.4017   YY=            -44.6487   ZZ=            -60.9464
   XY=             -2.2043   XZ=              0.0000   YZ=              0.0000
 Traceless Quadrupole moment (field-independent basis, Debye-Ang):
   XX=              3.5972   YY=              6.3502   ZZ=             -9.9474
   XY=             -2.2043   XZ=              0.0000   YZ=              0.0000
 Octapole moment (field-independent basis, Debye-Ang**2):
  XXX=            -16.2810  YYY=             25.7889  ZZZ=             -0.0000  XYY=            -11.5490
  XXY=              5.4151  XXZ=             -0.0000  XZZ=             -2.7332  YZZ=              3.2859
  YYZ=             -0.0000  XYZ=              0.0000
 Hexadecapole moment (field-independent basis, Debye-Ang**3):
 XXXX=           -807.8067 YYYY=           -430.3551 ZZZZ=            -90.1401 XXXY=             70.3931
 XXXZ=              0.0000 YYYX=             58.4054 YYYZ=              0.0000 ZZZX=              0.0000
 ZZZY=             -0.0000 XXYY=           -202.8809 XXZZ=           -191.5269 YYZZ=           -117.1345
 XXYZ=             -0.0000 YYXZ=              0.0000 ZZXY=             32.2475
 N-N= 4.004580585578D+02 E-N=-1.642159310279D+03  KE= 3.595477737958D+02
 Symmetry A'   KE= 3.478947969696D+02
 Symmetry A"   KE= 1.165297682620D+01
 1\1\GINC-COMET-10-33\FOpt\RLC-BLYP TD-FC\6-31+G(d)\C8H7N1\GFOLEY1\26-J
 un-2018\0\\# opt td=(root=2) LC-BLYP/6-31+g(d) density=current scf=max
 cycle=600\\Title Card Required\\0,1\C,2.4003180112,-0.0087277069,0.\H,
 3.4754289914,-0.1094857995,0.\C,1.5822227971,1.1526359382,0.\H,1.95866
 42769,2.1666143891,0.\C,0.256359162,0.7488913716,0.\C,-0.9890796472,1.
 4532243311,0.\C,-2.1676407948,0.6853598495,0.\C,-2.1414950498,-0.68601
 54516,0.\C,-0.89256229,-1.4242175124,0.\C,0.2487306181,-0.6661762891,0
 .\H,-1.0156851904,2.5366199266,0.\H,-3.1260600998,1.1944177572,0.\H,-3
 .0708557262,-1.245658966,0.\H,-0.8818306443,-2.507811345,0.\N,1.580051
 2158,-1.0686130882,0.\H,1.8817813698,-2.0337314048,0.\\Version=ES64L-G
 16RevB.01\State=1-A'\HF=-362.7224071\RMSD=6.122e-09\RMSF=6.078e-05\Dip
 ole=-1.0551324,1.1087813,0.\Quadrupole=2.6744478,4.7212263,-7.3956741,
 -1.6388766,0.,0.\PG=CS [SG(C8H7N1)]\\@


 TIME GOES, YOU SAY?  AH NO!
 ALAS, TIME STAYS, WE GO.
    -- A. DOBSON (1840-1921)
 Job cpu time:       0 days  1 hours 33 minutes 49.2 seconds.
 Elapsed time:       0 days  0 hours 23 minutes 39.6 seconds.
 File lengths (MBytes):  RWF=    211 Int=      0 D2E=      0 Chk=      8 Scr=      1
 Normal termination of Gaussian 16 at Tue Jun 26 08:37:34 2018.
