 Entering Gaussian System, Link 0=/opt/gaussian/16.C.01/g16/g16
 Initial command:
 /opt/gaussian/16.C.01/g16/l1.exe "/scratch/scaparas/34365178/Gau-26819.inp" -scrdir="/scratch/scaparas/34365178/"
 Entering Link 1 = /opt/gaussian/16.C.01/g16/l1.exe PID=     26828.
  
 Copyright (c) 1988-2019, Gaussian, Inc.  All Rights Reserved.
  
 This is part of the Gaussian(R) 16 program.  It is based on
 the Gaussian(R) 09 system (copyright 2009, Gaussian, Inc.),
 the Gaussian(R) 03 system (copyright 2003, Gaussian, Inc.),
 the Gaussian(R) 98 system (copyright 1998, Gaussian, Inc.),
 the Gaussian(R) 94 system (copyright 1995, Gaussian, Inc.),
 the Gaussian 92(TM) system (copyright 1992, Gaussian, Inc.),
 the Gaussian 90(TM) system (copyright 1990, Gaussian, Inc.),
 the Gaussian 88(TM) system (copyright 1988, Gaussian, Inc.),
 the Gaussian 86(TM) system (copyright 1986, Carnegie Mellon
 University), and the Gaussian 82(TM) system (copyright 1983,
 Carnegie Mellon University). Gaussian is a federally registered
 trademark of Gaussian, Inc.
  
 This software contains proprietary and confidential information,
 including trade secrets, belonging to Gaussian, Inc.
  
 This software is provided under written license and may be
 used, copied, transmitted, or stored only in accord with that
 written license.
  
 The following legend is applicable only to US Government
 contracts under FAR:
  
                    RESTRICTED RIGHTS LEGEND
  
 Use, reproduction and disclosure by the US Government is
 subject to restrictions as set forth in subparagraphs (a)
 and (c) of the Commercial Computer Software - Restricted
 Rights clause in FAR 52.227-19.
  
 Gaussian, Inc.
 340 Quinnipiac St., Bldg. 40, Wallingford CT 06492
  
  
 ---------------------------------------------------------------
 Warning -- This program may not be used in any manner that
 competes with the business of Gaussian, Inc. or will provide
 assistance to any competitor of Gaussian, Inc.  The licensee
 of this program is prohibited from giving any competitor of
 Gaussian, Inc. access to this program.  By using this program,
 the user acknowledges that Gaussian, Inc. is engaged in the
 business of creating and licensing software in the field of
 computational chemistry and represents and warrants to the
 licensee that it is not a competitor of Gaussian, Inc. and that
 it will not use this program in any manner prohibited above.
 ---------------------------------------------------------------
  

 Cite this work as:
 Gaussian 16, Revision C.01,
 M. J. Frisch, G. W. Trucks, H. B. Schlegel, G. E. Scuseria, 
 M. A. Robb, J. R. Cheeseman, G. Scalmani, V. Barone, 
 G. A. Petersson, H. Nakatsuji, X. Li, M. Caricato, A. V. Marenich, 
 J. Bloino, B. G. Janesko, R. Gomperts, B. Mennucci, H. P. Hratchian, 
 J. V. Ortiz, A. F. Izmaylov, J. L. Sonnenberg, D. Williams-Young, 
 F. Ding, F. Lipparini, F. Egidi, J. Goings, B. Peng, A. Petrone, 
 T. Henderson, D. Ranasinghe, V. G. Zakrzewski, J. Gao, N. Rega, 
 G. Zheng, W. Liang, M. Hada, M. Ehara, K. Toyota, R. Fukuda, 
 J. Hasegawa, M. Ishida, T. Nakajima, Y. Honda, O. Kitao, H. Nakai, 
 T. Vreven, K. Throssell, J. A. Montgomery, Jr., J. E. Peralta, 
 F. Ogliaro, M. J. Bearpark, J. J. Heyd, E. N. Brothers, K. N. Kudin, 
 V. N. Staroverov, T. A. Keith, R. Kobayashi, J. Normand, 
 K. Raghavachari, A. P. Rendell, J. C. Burant, S. S. Iyengar, 
 J. Tomasi, M. Cossi, J. M. Millam, M. Klene, C. Adamo, R. Cammi, 
 J. W. Ochterski, R. L. Martin, K. Morokuma, O. Farkas, 
 J. B. Foresman, and D. J. Fox, Gaussian, Inc., Wallingford CT, 2019.
 
 ******************************************
 Gaussian 16:  ES64L-G16RevC.01  3-Jul-2019
                29-Jun-2020 
 ******************************************
 %nprocshared=2
 Will use up to    2 processors via shared memory.
 %Chk=ImpLC-BLYP.chk
 -------------------------------------------------------------
 # td=(nstates=6, root=1) LC-BLYP/6-31G(d) Opt density=current
 -------------------------------------------------------------
 1/18=20,19=15,26=3,38=1/1,3;
 2/9=110,12=2,17=6,18=5,40=1/2;
 3/5=1,6=6,7=1,11=9,25=1,30=1,71=1,74=1000402/1,2,3,8;
 4//1;
 5/5=2,38=5/2;
 8/6=1,10=2,107=1,108=6/1;
 9/8=1,15=2,41=6,42=1,70=2/14;
 10/5=4,28=1/2;
 6/7=2,8=2,9=2,10=2,22=-1/1;
 7/12=6,13=5,14=1/1,2,3,16;
 1/18=20,19=15,26=3/3(2);
 2/9=110/2;
 99//99;
 2/9=110/2;
 3/5=1,6=6,7=1,11=9,25=1,30=1,71=1,74=1000402/1,2,3,8;
 4/5=5,16=3,69=1/1;
 5/5=2,38=5/2;
 8/6=1,10=2,107=1,108=6/1;
 9/8=1,15=2,41=6,42=1,49=4,70=2/14;
 10/5=4,28=1/2;
 7/12=6,13=5,14=1/1,2,3,16;
 1/18=20,19=15,26=3/3(-8);
 2/9=110/2;
 6/7=2,8=2,9=2,10=2,22=-1/1;
 99/9=10/99;
 ----------
 ImpLC-BLYP
 ----------
 Symbolic Z-matrix:
 Charge =  0 Multiplicity = 1
 C                    -2.15936   0.69162   0.00011 
 C                    -2.13588  -0.71874  -0.00002 
 C                    -0.93512  -1.41882  -0.00005 
 C                     0.24791  -0.67197  -0.00001 
 C                     0.24999   0.75191  -0.00006 
 C                    -0.98269   1.42884  -0.00006 
 N                     1.56678  -1.08097  -0.00025 
 C                     1.62599   1.16698  -0.0001 
 C                     2.39038   0.03047   0.00027 
 H                     1.88117  -2.03854   0.00076 
 H                     1.99815   2.18234  -0.00037 
 H                     3.46533  -0.08657   0.0004 
 H                    -3.07324  -1.26832   0.00023 
 H                    -0.91789  -2.50582  -0.00015 
 H                    -3.11663   1.20635   0.00023 
 H                    -1.01169   2.51556   0.00019 
 

 GradGradGradGradGradGradGradGradGradGradGradGradGradGradGradGradGradGrad
 Berny optimization.
 Initialization pass.
                           ----------------------------
                           !    Initial Parameters    !
                           ! (Angstroms and Degrees)  !
 --------------------------                            --------------------------
 ! Name  Definition              Value          Derivative Info.                !
 --------------------------------------------------------------------------------
 ! R1    R(1,2)                  1.4106         estimate D2E/DX2                !
 ! R2    R(1,6)                  1.3885         estimate D2E/DX2                !
 ! R3    R(1,15)                 1.0869         estimate D2E/DX2                !
 ! R4    R(2,3)                  1.3899         estimate D2E/DX2                !
 ! R5    R(2,13)                 1.0866         estimate D2E/DX2                !
 ! R6    R(3,4)                  1.3991         estimate D2E/DX2                !
 ! R7    R(3,14)                 1.0871         estimate D2E/DX2                !
 ! R8    R(4,5)                  1.4239         estimate D2E/DX2                !
 ! R9    R(4,7)                  1.3808         estimate D2E/DX2                !
 ! R10   R(5,6)                  1.4063         estimate D2E/DX2                !
 ! R11   R(5,8)                  1.4372         estimate D2E/DX2                !
 ! R12   R(6,16)                 1.0871         estimate D2E/DX2                !
 ! R13   R(7,9)                  1.3833         estimate D2E/DX2                !
 ! R14   R(7,10)                 1.0079         estimate D2E/DX2                !
 ! R15   R(8,9)                  1.3697         estimate D2E/DX2                !
 ! R16   R(8,11)                 1.0814         estimate D2E/DX2                !
 ! R17   R(9,12)                 1.0813         estimate D2E/DX2                !
 ! A1    A(2,1,6)              121.1146         estimate D2E/DX2                !
 ! A2    A(2,1,15)             119.221          estimate D2E/DX2                !
 ! A3    A(6,1,15)             119.6644         estimate D2E/DX2                !
 ! A4    A(1,2,3)              121.1973         estimate D2E/DX2                !
 ! A5    A(1,2,13)             119.4296         estimate D2E/DX2                !
 ! A6    A(3,2,13)             119.3731         estimate D2E/DX2                !
 ! A7    A(2,3,4)              117.4922         estimate D2E/DX2                !
 ! A8    A(2,3,14)             121.1516         estimate D2E/DX2                !
 ! A9    A(4,3,14)             121.3562         estimate D2E/DX2                !
 ! A10   A(3,4,5)              122.348          estimate D2E/DX2                !
 ! A11   A(3,4,7)              130.5063         estimate D2E/DX2                !
 ! A12   A(5,4,7)              107.1457         estimate D2E/DX2                !
 ! A13   A(4,5,6)              118.6898         estimate D2E/DX2                !
 ! A14   A(4,5,8)              106.8696         estimate D2E/DX2                !
 ! A15   A(6,5,8)              134.4406         estimate D2E/DX2                !
 ! A16   A(1,6,5)              119.1581         estimate D2E/DX2                !
 ! A17   A(1,6,16)             120.5398         estimate D2E/DX2                !
 ! A18   A(5,6,16)             120.3021         estimate D2E/DX2                !
 ! A19   A(4,7,9)              109.3098         estimate D2E/DX2                !
 ! A20   A(4,7,10)             125.4054         estimate D2E/DX2                !
 ! A21   A(9,7,10)             125.2847         estimate D2E/DX2                !
 ! A22   A(5,8,9)              107.1379         estimate D2E/DX2                !
 ! A23   A(5,8,11)             126.9153         estimate D2E/DX2                !
 ! A24   A(9,8,11)             125.9467         estimate D2E/DX2                !
 ! A25   A(7,9,8)              109.5369         estimate D2E/DX2                !
 ! A26   A(7,9,12)             120.3254         estimate D2E/DX2                !
 ! A27   A(8,9,12)             130.1377         estimate D2E/DX2                !
 ! D1    D(6,1,2,3)              0.0131         estimate D2E/DX2                !
 ! D2    D(6,1,2,13)           179.9933         estimate D2E/DX2                !
 ! D3    D(15,1,2,3)          -179.994          estimate D2E/DX2                !
 ! D4    D(15,1,2,13)           -0.0138         estimate D2E/DX2                !
 ! D5    D(2,1,6,5)             -0.0143         estimate D2E/DX2                !
 ! D6    D(2,1,6,16)          -179.991          estimate D2E/DX2                !
 ! D7    D(15,1,6,5)           179.9928         estimate D2E/DX2                !
 ! D8    D(15,1,6,16)            0.0162         estimate D2E/DX2                !
 ! D9    D(1,2,3,4)             -0.0029         estimate D2E/DX2                !
 ! D10   D(1,2,3,14)           180.0            estimate D2E/DX2                !
 ! D11   D(13,2,3,4)          -179.9831         estimate D2E/DX2                !
 ! D12   D(13,2,3,14)            0.0198         estimate D2E/DX2                !
 ! D13   D(2,3,4,5)             -0.0057         estimate D2E/DX2                !
 ! D14   D(2,3,4,7)           -179.9877         estimate D2E/DX2                !
 ! D15   D(14,3,4,5)           179.9914         estimate D2E/DX2                !
 ! D16   D(14,3,4,7)             0.0093         estimate D2E/DX2                !
 ! D17   D(3,4,5,6)              0.0043         estimate D2E/DX2                !
 ! D18   D(3,4,5,8)           -179.9957         estimate D2E/DX2                !
 ! D19   D(7,4,5,6)            179.9901         estimate D2E/DX2                !
 ! D20   D(7,4,5,8)             -0.01           estimate D2E/DX2                !
 ! D21   D(3,4,7,9)           -179.9844         estimate D2E/DX2                !
 ! D22   D(3,4,7,10)            -0.0882         estimate D2E/DX2                !
 ! D23   D(5,4,7,9)              0.0315         estimate D2E/DX2                !
 ! D24   D(5,4,7,10)           179.9277         estimate D2E/DX2                !
 ! D25   D(4,5,6,1)              0.0057         estimate D2E/DX2                !
 ! D26   D(4,5,6,16)           179.9824         estimate D2E/DX2                !
 ! D27   D(8,5,6,1)           -179.9942         estimate D2E/DX2                !
 ! D28   D(8,5,6,16)            -0.0175         estimate D2E/DX2                !
 ! D29   D(4,5,8,9)             -0.0151         estimate D2E/DX2                !
 ! D30   D(4,5,8,11)           179.9849         estimate D2E/DX2                !
 ! D31   D(6,5,8,9)            179.9849         estimate D2E/DX2                !
 ! D32   D(6,5,8,11)            -0.0151         estimate D2E/DX2                !
 ! D33   D(4,7,9,8)             -0.0422         estimate D2E/DX2                !
 ! D34   D(4,7,9,12)           179.9865         estimate D2E/DX2                !
 ! D35   D(10,7,9,8)          -179.9385         estimate D2E/DX2                !
 ! D36   D(10,7,9,12)            0.0902         estimate D2E/DX2                !
 ! D37   D(5,8,9,7)              0.0348         estimate D2E/DX2                !
 ! D38   D(5,8,9,12)          -179.9976         estimate D2E/DX2                !
 ! D39   D(11,8,9,7)          -179.9652         estimate D2E/DX2                !
 ! D40   D(11,8,9,12)            0.0024         estimate D2E/DX2                !
 --------------------------------------------------------------------------------
 Trust Radius=3.00D-01 FncErr=1.00D-07 GrdErr=1.00D-06 EigMax=2.50D+02 EigMin=1.00D-04
 Number of steps in this run=     94 maximum allowed number of steps=    100.
 GradGradGradGradGradGradGradGradGradGradGradGradGradGradGradGradGradGrad

                          Input orientation:                          
 ---------------------------------------------------------------------
 Center     Atomic      Atomic             Coordinates (Angstroms)
 Number     Number       Type             X           Y           Z
 ---------------------------------------------------------------------
      1          6           0       -2.159360    0.691620    0.000110
      2          6           0       -2.135880   -0.718740   -0.000020
      3          6           0       -0.935120   -1.418820   -0.000050
      4          6           0        0.247910   -0.671970   -0.000010
      5          6           0        0.249990    0.751910   -0.000060
      6          6           0       -0.982690    1.428840   -0.000060
      7          7           0        1.566780   -1.080970   -0.000250
      8          6           0        1.625990    1.166980   -0.000100
      9          6           0        2.390380    0.030470    0.000270
     10          1           0        1.881170   -2.038540    0.000760
     11          1           0        1.998150    2.182340   -0.000370
     12          1           0        3.465330   -0.086570    0.000400
     13          1           0       -3.073240   -1.268320    0.000230
     14          1           0       -0.917890   -2.505820   -0.000150
     15          1           0       -3.116630    1.206350    0.000230
     16          1           0       -1.011690    2.515560    0.000190
 ---------------------------------------------------------------------
                    Distance matrix (angstroms):
                    1          2          3          4          5
     1  C    0.000000
     2  C    1.410555   0.000000
     3  C    2.439820   1.389941   0.000000
     4  C    2.766645   2.384249   1.399051   0.000000
     5  C    2.410104   2.802711   2.473167   1.423882   0.000000
     6  C    1.388541   2.437611   2.848057   2.434703   1.406319
     7  N    4.126281   3.720336   2.524608   1.380833   2.256853
     8  C    3.815081   4.208041   3.639457   2.298008   1.437240
     9  C    4.597527   4.587848   3.627588   2.254684   2.258704
    10  H    4.876439   4.228305   2.883668   2.129566   3.232238
    11  H    4.416688   5.050393   4.644613   3.348197   2.258804
    12  H    5.678267   5.636771   4.597701   3.270242   3.322869
    13  H    2.162531   1.086592   2.143410   3.374266   3.889111
    14  H    3.429996   2.162673   1.087137   2.173038   3.460744
    15  H    1.086882   2.160519   3.413283   3.853338   3.397153
    16  H    2.154972   3.424106   3.935125   3.427381   2.168478
                    6          7          8          9         10
     6  C    0.000000
     7  N    3.577561   0.000000
     8  C    2.621790   2.248730   0.000000
     9  C    3.651444   1.383335   1.369652   0.000000
    10  H    4.497157   1.007860   3.215661   2.130750   0.000000
    11  H    3.074601   3.291697   1.081415   2.187325   4.222501
    12  H    4.699080   2.143204   2.225884   1.081303   2.513911
    13  H    3.412488   4.643801   5.292773   5.615870   5.013922
    14  H    3.935194   2.864225   4.467749   4.168623   2.837796
    15  H    2.145507   5.212117   4.742783   5.631150   5.958802
    16  H    1.087107   4.425329   2.962435   4.213046   5.395226
                   11         12         13         14         15
    11  H    0.000000
    12  H    2.701957   0.000000
    13  H    6.134008   6.644504   0.000000
    14  H    5.521063   5.006535   2.485345   0.000000
    15  H    5.207066   6.707745   2.475050   4.314471   0.000000
    16  H    3.028229   5.178300   4.309030   5.022256   2.478871
                   16
    16  H    0.000000
 Stoichiometry    C8H7N
 Framework group  C1[X(C8H7N)]
 Deg. of freedom    42
 Full point group                 C1      NOp   1
 Largest Abelian subgroup         C1      NOp   1
 Largest concise Abelian subgroup C1      NOp   1
                         Standard orientation:                         
 ---------------------------------------------------------------------
 Center     Atomic      Atomic             Coordinates (Angstroms)
 Number     Number       Type             X           Y           Z
 ---------------------------------------------------------------------
      1          6           0       -2.159361    0.691618    0.000110
      2          6           0       -2.135879   -0.718742   -0.000020
      3          6           0       -0.935118   -1.418820   -0.000050
      4          6           0        0.247911   -0.671969   -0.000010
      5          6           0        0.249989    0.751911   -0.000060
      6          6           0       -0.982691    1.428840   -0.000060
      7          7           0        1.566782   -1.080967   -0.000250
      8          6           0        1.625989    1.166983   -0.000100
      9          6           0        2.390380    0.030474    0.000270
     10          1           0        1.881173   -2.038537    0.000760
     11          1           0        1.998148    2.182343   -0.000370
     12          1           0        3.465330   -0.086565    0.000400
     13          1           0       -3.073238   -1.268323    0.000230
     14          1           0       -0.917887   -2.505820   -0.000150
     15          1           0       -3.116631    1.206347    0.000230
     16          1           0       -1.011693    2.515560    0.000190
 ---------------------------------------------------------------------
 Rotational constants (GHZ):           3.8785006           1.6312482           1.1482914
 Standard basis: 6-31G(d) (6D, 7F)
 There are   149 symmetry adapted cartesian basis functions of A   symmetry.
 There are   149 symmetry adapted basis functions of A   symmetry.
   149 basis functions,   280 primitive gaussians,   149 cartesian basis functions
    31 alpha electrons       31 beta electrons
       nuclear repulsion energy       399.8542490966 Hartrees.
 NAtoms=   16 NActive=   16 NUniq=   16 SFac= 1.00D+00 NAtFMM=   60 NAOKFM=F Big=F
 Integral buffers will be    131072 words long.
 Raffenetti 1 integral format.
 Two-electron integral symmetry is turned on.
 One-electron integrals computed using PRISM.
 NBasis=   149 RedAO= T EigKep=  4.06D-04  NBF=   149
 NBsUse=   149 1.00D-06 EigRej= -1.00D+00 NBFU=   149
 ExpMin= 1.61D-01 ExpMax= 4.17D+03 ExpMxC= 6.27D+02 IAcc=3 IRadAn=         5 AccDes= 0.00D+00
 Harris functional with IExCor=10402 and IRadAn=       5 diagonalized for initial guess.
 HarFok:  IExCor=10402 AccDes= 0.00D+00 IRadAn=         5 IDoV= 1 UseB2=F ITyADJ=14
 ICtDFT=  3500011 ScaDFX=  1.000000  1.000000  1.000000  1.000000
 FoFCou: FMM=F IPFlag=           0 FMFlag=      100000 FMFlg1=           0
         NFxFlg=           0 DoJE=T BraDBF=F KetDBF=T FulRan=T
         wScrn=  0.000000 ICntrl=       500 IOpCl=  0 I1Cent=   200000004 NGrid=           0
         NMat0=    1 NMatS0=      1 NMatT0=    0 NMatD0=    1 NMtDS0=    0 NMtDT0=    0
 Petite list used in FoFCou.
 Requested convergence on RMS density matrix=1.00D-08 within 128 cycles.
 Requested convergence on MAX density matrix=1.00D-06.
 Requested convergence on             energy=1.00D-06.
 No special actions if energy rises.
 Integral accuracy reduced to 1.0D-05 until final iterations.
 Initial convergence to 1.0D-05 achieved.  Increase integral accuracy.
 SCF Done:  E(RLC-B+HF-LYP) =  -362.719258811     A.U. after   15 cycles
            NFock= 15  Conv=0.58D-08     -V/T= 2.0094
 DoSCS=F DFT=T ScalE2(SS,OS)=  1.000000  1.000000
 ExpMin= 1.61D-01 ExpMax= 4.17D+03 ExpMxC= 6.27D+02 IAcc=3 IRadAn=         5 AccDes= 0.00D+00
 HarFok:  IExCor=  205 AccDes= 0.00D+00 IRadAn=         5 IDoV=-2 UseB2=F ITyADJ=14
 ICtDFT= 12500011 ScaDFX=  1.000000  1.000000  1.000000  1.000000
 Range of M.O.s used for correlation:    10   149
 NBasis=   149 NAE=    31 NBE=    31 NFC=     9 NFV=     0
 NROrb=    140 NOA=    22 NOB=    22 NVA=   118 NVB=   118

 **** Warning!!: The largest alpha MO coefficient is  0.10918885D+02

 Orbital symmetries:
       Occupied  (A) (A) (A) (A) (A) (A) (A) (A) (A) (A) (A) (A)
                 (A) (A) (A) (A) (A) (A) (A) (A) (A) (A) (A) (A)
                 (A) (A) (A) (A) (A) (A) (A)
       Virtual   (A) (A) (A) (A) (A) (A) (A) (A) (A) (A) (A) (A)
                 (A) (A) (A) (A) (A) (A) (A) (A) (A) (A) (A) (A)
                 (A) (A) (A) (A) (A) (A) (A) (A) (A) (A) (A) (A)
                 (A) (A) (A) (A) (A) (A) (A) (A) (A) (A) (A) (A)
                 (A) (A) (A) (A) (A) (A) (A) (A) (A) (A) (A) (A)
                 (A) (A) (A) (A) (A) (A) (A) (A) (A) (A) (A) (A)
                 (A) (A) (A) (A) (A) (A) (A) (A) (A) (A) (A) (A)
                 (A) (A) (A) (A) (A) (A) (A) (A) (A) (A) (A) (A)
                 (A) (A) (A) (A) (A) (A) (A) (A) (A) (A) (A) (A)
                 (A) (A) (A) (A) (A) (A) (A) (A) (A) (A)
    24 initial guesses have been made.
 Convergence on wavefunction:    0.000001000000000
 Iteration     1 Dimension    24 NMult     0 NNew     24
 CISAX will form    24 AO SS matrices at one time.
 New state      1 was old state      2
 New state      2 was old state      1
 New state      5 was old state      6
 New state      6 was old state      9
 Iteration     2 Dimension    36 NMult    24 NNew     12
 New state      5 was old state      6
 New state      6 was old state      5
 Iteration     3 Dimension    48 NMult    36 NNew     12
 Iteration     4 Dimension    60 NMult    48 NNew     12
 Iteration     5 Dimension    72 NMult    60 NNew     12
 Iteration     6 Dimension    84 NMult    72 NNew     12
 Iteration     7 Dimension    96 NMult    84 NNew     12
 Iteration     8 Dimension   108 NMult    96 NNew     12
 Iteration     9 Dimension   116 NMult   108 NNew      8
 Iteration    10 Dimension   122 NMult   116 NNew      6
 Iteration    11 Dimension   126 NMult   122 NNew      4
 Iteration    12 Dimension   128 NMult   126 NNew      2
 Iteration    13 Dimension   130 NMult   128 NNew      2
 ***********************************************************************
 Excited states from <AA,BB:AA,BB> singles matrix:
 ***********************************************************************
 
 Ground to excited state transition densities written to RWF  633
 Ground to excited state transition electric dipole moments (Au):
       state          X           Y           Z        Dip. S.      Osc.
         1        -0.4127     -0.3473     -0.0001      0.2909      0.0377
         2        -0.7691      0.6238     -0.0002      0.9808      0.1321
         3        -1.8995     -0.7477     -0.0000      4.1670      0.7045
         4         1.0997     -0.9709     -0.0001      2.1520      0.3747
         5         0.7110     -0.1335     -0.0000      0.5234      0.0973
         6        -0.0018     -0.0006      0.0428      0.0018      0.0004
 Ground to excited state transition velocity dipole moments (Au):
       state          X           Y           Z        Dip. S.      Osc.
         1         0.0787      0.0719      0.0000      0.0114      0.0390
         2         0.1460     -0.1347      0.0000      0.0395      0.1302
         3         0.4732      0.1934      0.0000      0.2613      0.6869
         4        -0.2793      0.2591      0.0000      0.1452      0.3705
         5        -0.1985      0.0314      0.0000      0.0404      0.0965
         6         0.0005      0.0002     -0.0337      0.0011      0.0026
 Ground to excited state transition magnetic dipole moments (Au):
       state          X           Y           Z
         1        -0.0001     -0.0002     -0.1105
         2         0.0002      0.0001     -0.0368
         3        -0.0001     -0.0002     -0.7386
         4        -0.0002     -0.0000     -0.0520
         5         0.0002     -0.0000     -1.3054
         6         0.2558      0.0807      0.0001
 Ground to excited state transition velocity quadrupole moments (Au):
       state          XX          YY          ZZ          XY          XZ          YZ
         1         0.0063     -0.1145      0.0078      0.0118      0.0001     -0.0001
         2         0.2778     -0.1987     -0.0060     -0.1202      0.0000      0.0001
         3        -0.0579     -0.0583     -0.0194     -0.5211      0.0001     -0.0001
         4         0.5055     -0.0391      0.0413     -0.2579     -0.0001      0.0000
         5         1.0543     -0.3564     -0.0170     -0.9484      0.0001      0.0001
         6         0.0004     -0.0006     -0.0000      0.0005     -0.1179      0.1829
 <0|del|b> * <b|rxdel|0> + <0|del|b> * <b|delr+rdel|0>
 Rotatory Strengths (R) in cgs (10**-40 erg-esu-cm/Gauss)
       state          XX          YY          ZZ    R(velocity)    E-M Angle
         1        -0.0425     -0.0359     -0.0201     -0.0328       90.00
         2        -0.0219      0.0686      0.0033      0.0166       90.00
         3        -0.1232     -0.1255      0.0185     -0.0767       90.00
         4        -0.0016      0.0517      0.0373      0.0291       90.00
         5        -0.0204     -0.0696     -0.0260     -0.0386       90.00
         6         0.0128      0.2925      0.0389      0.1147       89.10
 1/2[<0|r|b>*<b|rxdel|0> + (<0|rxdel|b>*<b|r|0>)*]
 Rotatory Strengths (R) in cgs (10**-40 erg-esu-cm/Gauss)
       state          XX          YY          ZZ     R(length)
         1        -0.0424     -0.0424     -0.0096     -0.0315
         2         0.0941     -0.0323     -0.0051      0.0189
         3        -0.0911     -0.1030     -0.0047     -0.0663
         4         0.1205     -0.0254     -0.0038      0.0305
         5        -0.0978     -0.0032     -0.0242     -0.0418
         6         0.3292      0.0336     -0.0026      0.1201
  1/2[<0|del|b>*<b|r|0> + (<0|r|b>*<b|del|0>)*] (Au)
       state          X           Y           Z        Dip. S.   Osc.(frdel)
         1        -0.0325     -0.0250     -0.0000      0.0574      0.0383
         2        -0.1123     -0.0840     -0.0000      0.1963      0.1309
         3        -0.8988     -0.1446     -0.0000      1.0434      0.6956
         4        -0.3071     -0.2516     -0.0000      0.5587      0.3725
         5        -0.1411     -0.0042     -0.0000      0.1453      0.0969
         6        -0.0000     -0.0000     -0.0014      0.0014      0.0010

 Excitation energies and oscillator strengths:
 
 Excited State   1:      Singlet-A      5.2903 eV  234.36 nm  f=0.0377  <S**2>=0.000
      29 -> 33         0.10836
      30 -> 32         0.58876
      31 -> 33        -0.35951
 This state for optimization and/or second-order correction.
 Total Energy, E(TD-HF/TD-DFT) =  -362.524842386    
 Copying the excited state density for this state as the 1-particle RhoCI density.
 
 Excited State   2:      Singlet-A      5.4977 eV  225.52 nm  f=0.1321  <S**2>=0.000
      30 -> 33         0.25826
      31 -> 32         0.64666
 
 Excited State   3:      Singlet-A      6.9009 eV  179.66 nm  f=0.7045  <S**2>=0.000
      30 -> 32         0.36392
      31 -> 33         0.58974
      31 -> 35        -0.10155
 
 Excited State   4:      Singlet-A      7.1076 eV  174.44 nm  f=0.3747  <S**2>=0.000
      29 -> 32        -0.15315
      30 -> 33         0.63179
      31 -> 32        -0.25463
 
 Excited State   5:      Singlet-A      7.5893 eV  163.37 nm  f=0.0973  <S**2>=0.000
      29 -> 32         0.56284
      30 -> 33         0.11456
      31 -> 35        -0.37027
 
 Excited State   6:      Singlet-A      7.9511 eV  155.93 nm  f=0.0004  <S**2>=0.000
      29 -> 34         0.20206
      30 -> 34        -0.16590
      31 -> 34         0.63047
 SavETr:  write IOETrn=   770 NScale= 10 NData=  16 NLR=1 NState=    6 LETran=     118.
          IDoAtm=1111111111111111
          Differentiating once with respect to electric field.
                with respect to dipole field.
          Differentiating once with respect to nuclear coordinates.
          There are     1 degrees of freedom in the 1st order CPHF.  IDoFFX=0 NUNeed=     1.
 LinEq1:  Iter=  0 NonCon=     1 RMS=3.51D-03 Max=6.37D-02 NDo=     1
 AX will form     1 AO Fock derivatives at one time.
 LinEq1:  Iter=  1 NonCon=     1 RMS=1.56D-03 Max=4.77D-02 NDo=     1
 LinEq1:  Iter=  2 NonCon=     1 RMS=5.83D-04 Max=1.20D-02 NDo=     1
 LinEq1:  Iter=  3 NonCon=     1 RMS=3.47D-04 Max=8.58D-03 NDo=     1
 LinEq1:  Iter=  4 NonCon=     1 RMS=1.19D-04 Max=2.57D-03 NDo=     1
 LinEq1:  Iter=  5 NonCon=     1 RMS=4.94D-05 Max=1.35D-03 NDo=     1
 LinEq1:  Iter=  6 NonCon=     1 RMS=2.27D-05 Max=5.21D-04 NDo=     1
 LinEq1:  Iter=  7 NonCon=     1 RMS=6.31D-06 Max=9.92D-05 NDo=     1
 LinEq1:  Iter=  8 NonCon=     1 RMS=3.46D-06 Max=7.49D-05 NDo=     1
 LinEq1:  Iter=  9 NonCon=     1 RMS=9.74D-07 Max=2.49D-05 NDo=     1
 LinEq1:  Iter= 10 NonCon=     1 RMS=4.08D-07 Max=8.19D-06 NDo=     1
 LinEq1:  Iter= 11 NonCon=     1 RMS=1.91D-07 Max=4.48D-06 NDo=     1
 LinEq1:  Iter= 12 NonCon=     1 RMS=7.16D-08 Max=1.68D-06 NDo=     1
 LinEq1:  Iter= 13 NonCon=     1 RMS=2.83D-08 Max=5.75D-07 NDo=     1
 LinEq1:  Iter= 14 NonCon=     1 RMS=9.64D-09 Max=1.55D-07 NDo=     1
 LinEq1:  Iter= 15 NonCon=     1 RMS=3.71D-09 Max=7.98D-08 NDo=     1
 LinEq1:  Iter= 16 NonCon=     1 RMS=9.20D-10 Max=1.30D-08 NDo=     1
 LinEq1:  Iter= 17 NonCon=     1 RMS=2.68D-10 Max=4.36D-09 NDo=     1
 LinEq1:  Iter= 18 NonCon=     1 RMS=1.09D-10 Max=1.16D-09 NDo=     1
 LinEq1:  Iter= 19 NonCon=     0 RMS=2.82D-11 Max=5.64D-10 NDo=     1
 Linear equations converged to 1.000D-10 1.000D-09 after    19 iterations.
 End of Minotr F.D. properties file   721 does not exist.
 End of Minotr F.D. properties file   722 does not exist.
 End of Minotr F.D. properties file   788 does not exist.

 **********************************************************************

            Population analysis using the CI Density.

 **********************************************************************

 Orbital symmetries:
       Occupied  (A) (A) (A) (A) (A) (A) (A) (A) (A) (A) (A) (A)
                 (A) (A) (A) (A) (A) (A) (A) (A) (A) (A) (A) (A)
                 (A) (A) (A) (A) (A) (A) (A)
       Virtual   (A) (A) (A) (A) (A) (A) (A) (A) (A) (A) (A) (A)
                 (A) (A) (A) (A) (A) (A) (A) (A) (A) (A) (A) (A)
                 (A) (A) (A) (A) (A) (A) (A) (A) (A) (A) (A) (A)
                 (A) (A) (A) (A) (A) (A) (A) (A) (A) (A) (A) (A)
                 (A) (A) (A) (A) (A) (A) (A) (A) (A) (A) (A) (A)
                 (A) (A) (A) (A) (A) (A) (A) (A) (A) (A) (A) (A)
                 (A) (A) (A) (A) (A) (A) (A) (A) (A) (A) (A) (A)
                 (A) (A) (A) (A) (A) (A) (A) (A) (A) (A) (A) (A)
                 (A) (A) (A) (A) (A) (A) (A) (A) (A) (A) (A) (A)
                 (A) (A) (A) (A) (A) (A) (A) (A) (A) (A)
 The electronic state is 1-A.
 Alpha  occ. eigenvalues --  -14.29503 -10.18790 -10.18383 -10.15401 -10.14967
 Alpha  occ. eigenvalues --  -10.14965 -10.14749 -10.14334 -10.13878  -1.14034
 Alpha  occ. eigenvalues --   -1.00211  -0.94006  -0.88949  -0.87071  -0.76874
 Alpha  occ. eigenvalues --   -0.73580  -0.72271  -0.67706  -0.61320  -0.60282
 Alpha  occ. eigenvalues --   -0.56242  -0.56060  -0.55617  -0.53557  -0.51326
 Alpha  occ. eigenvalues --   -0.47335  -0.46075  -0.45057  -0.39041  -0.31521
 Alpha  occ. eigenvalues --   -0.29816
 Alpha virt. eigenvalues --    0.08370   0.12690   0.17964   0.18349   0.20947
 Alpha virt. eigenvalues --    0.23793   0.25131   0.27174   0.28540   0.29560
 Alpha virt. eigenvalues --    0.31498   0.33906   0.37237   0.38791   0.41844
 Alpha virt. eigenvalues --    0.45270   0.46900   0.50755   0.56019   0.63000
 Alpha virt. eigenvalues --    0.64506   0.64720   0.65311   0.68014   0.69349
 Alpha virt. eigenvalues --    0.70386   0.71371   0.71999   0.73959   0.74478
 Alpha virt. eigenvalues --    0.74947   0.75953   0.76262   0.77635   0.78186
 Alpha virt. eigenvalues --    0.82046   0.83763   0.90545   0.94223   0.94282
 Alpha virt. eigenvalues --    0.95397   0.97440   0.98468   0.98635   1.00200
 Alpha virt. eigenvalues --    1.02312   1.04265   1.07099   1.10446   1.10982
 Alpha virt. eigenvalues --    1.11488   1.18734   1.20305   1.25948   1.27080
 Alpha virt. eigenvalues --    1.34285   1.38981   1.39708   1.43760   1.48029
 Alpha virt. eigenvalues --    1.50021   1.51310   1.57456   1.57563   1.62016
 Alpha virt. eigenvalues --    1.62601   1.63076   1.65976   1.66591   1.69641
 Alpha virt. eigenvalues --    1.74603   1.90332   1.95654   1.97730   2.04246
 Alpha virt. eigenvalues --    2.04753   2.06401   2.10231   2.11752   2.15856
 Alpha virt. eigenvalues --    2.16005   2.20723   2.25367   2.28367   2.29664
 Alpha virt. eigenvalues --    2.32778   2.37739   2.40605   2.41672   2.42272
 Alpha virt. eigenvalues --    2.43138   2.53865   2.53934   2.56512   2.63629
 Alpha virt. eigenvalues --    2.72182   2.73996   2.77111   2.81996   2.82984
 Alpha virt. eigenvalues --    2.87042   2.92143   2.94766   2.98967   3.04922
 Alpha virt. eigenvalues --    3.11127   3.23282   3.37445   3.58861   4.12505
 Alpha virt. eigenvalues --    4.22782   4.24222   4.28879   4.33711   4.45704
 Alpha virt. eigenvalues --    4.53473   4.58942   4.89488
          Condensed to atoms (all electrons):
               1          2          3          4          5          6
     1  C    4.986960   0.490657  -0.033471  -0.030529  -0.004500   0.427835
     2  C    0.490657   5.000573   0.446531  -0.000760  -0.020877  -0.041244
     3  C   -0.033471   0.446531   5.173416   0.459636  -0.072888  -0.041523
     4  C   -0.030529  -0.000760   0.459636   4.799715   0.426531  -0.051339
     5  C   -0.004500  -0.020877  -0.072888   0.426531   4.765139   0.465025
     6  C    0.427835  -0.041244  -0.041523  -0.051339   0.465025   5.219025
     7  N   -0.000387   0.005432  -0.090543   0.283179  -0.036203   0.010703
     8  C    0.008044  -0.000341   0.013690  -0.025090   0.440083  -0.102641
     9  C   -0.000451  -0.000167   0.004599  -0.102820  -0.015825   0.011386
    10  H   -0.000003  -0.000034  -0.003764  -0.025765   0.006031  -0.000094
    11  H   -0.000011   0.000007  -0.000130   0.006240  -0.030962  -0.004734
    12  H    0.000004   0.000001  -0.000098   0.005380   0.001424  -0.000144
    13  H   -0.037867   0.368115  -0.035844   0.002469   0.000881   0.003841
    14  H    0.003917  -0.037725   0.359955  -0.036342   0.004261   0.000415
    15  H    0.368357  -0.036846   0.003852   0.000804   0.002150  -0.037015
    16  H   -0.044238   0.003955   0.000407   0.004669  -0.035392   0.366114
               7          8          9         10         11         12
     1  C   -0.000387   0.008044  -0.000451  -0.000003  -0.000011   0.000004
     2  C    0.005432  -0.000341  -0.000167  -0.000034   0.000007   0.000001
     3  C   -0.090543   0.013690   0.004599  -0.003764  -0.000130  -0.000098
     4  C    0.283179  -0.025090  -0.102820  -0.025765   0.006240   0.005380
     5  C   -0.036203   0.440083  -0.015825   0.006031  -0.030962   0.001424
     6  C    0.010703  -0.102641   0.011386  -0.000094  -0.004734  -0.000144
     7  N    6.959662  -0.071803   0.308671   0.330336   0.003640  -0.046559
     8  C   -0.071803   5.068569   0.545429   0.004134   0.371688  -0.026971
     9  C    0.308671   0.545429   4.935008  -0.030062  -0.045754   0.374847
    10  H    0.330336   0.004134  -0.030062   0.376902  -0.000082  -0.002009
    11  H    0.003640   0.371688  -0.045754  -0.000082   0.549765  -0.000899
    12  H   -0.046559  -0.026971   0.374847  -0.002009  -0.000899   0.532424
    13  H   -0.000097   0.000006   0.000002  -0.000001  -0.000000  -0.000000
    14  H   -0.005843  -0.000265   0.000037   0.002248   0.000002   0.000002
    15  H    0.000002  -0.000135   0.000004  -0.000000  -0.000001  -0.000000
    16  H   -0.000112  -0.005657  -0.000008   0.000003   0.001909  -0.000001
              13         14         15         16
     1  C   -0.037867   0.003917   0.368357  -0.044238
     2  C    0.368115  -0.037725  -0.036846   0.003955
     3  C   -0.035844   0.359955   0.003852   0.000407
     4  C    0.002469  -0.036342   0.000804   0.004669
     5  C    0.000881   0.004261   0.002150  -0.035392
     6  C    0.003841   0.000415  -0.037015   0.366114
     7  N   -0.000097  -0.005843   0.000002  -0.000112
     8  C    0.000006  -0.000265  -0.000135  -0.005657
     9  C    0.000002   0.000037   0.000004  -0.000008
    10  H   -0.000001   0.002248  -0.000000   0.000003
    11  H   -0.000000   0.000002  -0.000001   0.001909
    12  H   -0.000000   0.000002  -0.000000  -0.000001
    13  H    0.576225  -0.004831  -0.004741  -0.000146
    14  H   -0.004831   0.589761  -0.000140   0.000014
    15  H   -0.004741  -0.000140   0.566445  -0.004676
    16  H   -0.000146   0.000014  -0.004676   0.580108
 Mulliken charges:
               1
     1  C   -0.134317
     2  C   -0.177277
     3  C   -0.183824
     4  C    0.284019
     5  C    0.105122
     6  C   -0.225610
     7  N   -0.650079
     8  C   -0.218740
     9  C    0.015105
    10  H    0.342160
    11  H    0.149322
    12  H    0.162600
    13  H    0.131989
    14  H    0.124536
    15  H    0.141941
    16  H    0.133052
 Sum of Mulliken charges =  -0.00000
 Mulliken charges with hydrogens summed into heavy atoms:
               1
     1  C    0.007625
     2  C   -0.045288
     3  C   -0.059288
     4  C    0.284019
     5  C    0.105122
     6  C   -0.092558
     7  N   -0.307919
     8  C   -0.069418
     9  C    0.177705
 Electronic spatial extent (au):  <R**2>=           1009.1393
 Charge=             -0.0000 electrons
 Dipole moment (field-independent basis, Debye):
    X=              1.7585    Y=             -1.3487    Z=              0.0020  Tot=              2.2161
 Quadrupole moment (field-independent basis, Debye-Ang):
   XX=            -44.0671   YY=            -44.2902   ZZ=            -56.7393
   XY=             -3.8077   XZ=              0.0025   YZ=             -0.0038
 Traceless Quadrupole moment (field-independent basis, Debye-Ang):
   XX=              4.2984   YY=              4.0754   ZZ=             -8.3738
   XY=             -3.8077   XZ=              0.0025   YZ=             -0.0038
 Octapole moment (field-independent basis, Debye-Ang**2):
  XXX=             14.4428  YYY=            -10.0277  ZZZ=              0.0010  XYY=              9.7873
  XXY=             -6.6965  XXZ=              0.0112  XZZ=              2.0339  YZZ=             -1.4691
  YYZ=              0.0066  XYZ=             -0.0089
 Hexadecapole moment (field-independent basis, Debye-Ang**3):
 XXXX=           -798.8832 YYYY=           -365.5872 ZZZZ=            -58.4575 XXXY=            -25.6275
 XXXZ=              0.0102 YYYX=            -20.0417 YYYZ=             -0.0139 ZZZX=              0.0002
 ZZZY=             -0.0024 XXYY=           -189.8085 XXZZ=           -178.3497 YYZZ=            -88.1043
 XXYZ=             -0.0165 YYXZ=              0.0080 ZZXY=             -3.7386
 N-N= 3.998542490966D+02 E-N=-1.642006678930D+03  KE= 3.596065612210D+02
 Calling FoFJK, ICntrl=  10005127 FMM=F ISym2X=0 I1Cent= 0 IOpClX= 0 NMat=1 NMatS=1 NMatT=0.
 ***** Axes restored to original set *****
 -------------------------------------------------------------------
 Center     Atomic                   Forces (Hartrees/Bohr)
 Number     Number              X              Y              Z
 -------------------------------------------------------------------
      1        6          -0.013182505   -0.014971285   -0.000014686
      2        6          -0.017149437    0.006148085    0.000022849
      3        6           0.011993390   -0.016381136   -0.000001459
      4        6           0.017284004   -0.025207781   -0.000030358
      5        6           0.004905928    0.024432154   -0.000020688
      6        6           0.022844487    0.017469441    0.000017225
      7        7          -0.030324056    0.005918236    0.000058365
      8        6          -0.002786919   -0.014641181    0.000028595
      9        6           0.005043606    0.016908356   -0.000048939
     10        1          -0.000905360   -0.000055260   -0.000005776
     11        1          -0.000698566   -0.000915857    0.000012252
     12        1          -0.001345141    0.000514094   -0.000003612
     13        1           0.001736169    0.001656170   -0.000009067
     14        1           0.000403719    0.002654759    0.000001697
     15        1           0.001739348   -0.000968117    0.000001908
     16        1           0.000441331   -0.002560679   -0.000008307
 -------------------------------------------------------------------
 Cartesian Forces:  Max     0.030324056 RMS     0.010247126

 GradGradGradGradGradGradGradGradGradGradGradGradGradGradGradGradGradGrad
 Berny optimization.
 FormGI is forming the generalized inverse of G from B-inverse, IUseBI=4.
 Internal  Forces:  Max     0.024572451 RMS     0.005234843
 Search for a local minimum.
 Step number   1 out of a maximum of   94
 All quantities printed in internal units (Hartrees-Bohrs-Radians)
 Mixed Optimization -- RFO/linear search
 Second derivative matrix not updated -- first step.
 ITU=  0
     Eigenvalues ---    0.01790   0.01867   0.01928   0.01947   0.02010
     Eigenvalues ---    0.02041   0.02076   0.02089   0.02098   0.02135
     Eigenvalues ---    0.02159   0.02173   0.02275   0.16000   0.16000
     Eigenvalues ---    0.16000   0.16000   0.16000   0.16000   0.16000
     Eigenvalues ---    0.22000   0.22188   0.22662   0.24010   0.24651
     Eigenvalues ---    0.35146   0.35149   0.35175   0.35209   0.35824
     Eigenvalues ---    0.35837   0.36510   0.37931   0.41898   0.42676
     Eigenvalues ---    0.44901   0.45975   0.46333   0.46561   0.46716
     Eigenvalues ---    0.47115   0.50040
 RFO step:  Lambda=-5.38068430D-03 EMin= 1.79046333D-02
 Linear search not attempted -- first point.
 Iteration  1 RMS(Cart)=  0.01609065 RMS(Int)=  0.00009138
 Iteration  2 RMS(Cart)=  0.00012748 RMS(Int)=  0.00003407
 Iteration  3 RMS(Cart)=  0.00000001 RMS(Int)=  0.00003407
 Variable       Old X    -DE/DX   Delta X   Delta X   Delta X     New X
                                 (Linear)    (Quad)   (Total)
    R1        2.66556   0.00069   0.00000   0.00167   0.00164   2.66720
    R2        2.62396   0.02188   0.00000   0.04537   0.04538   2.66934
    R3        2.05391  -0.00199   0.00000  -0.00557  -0.00557   2.04834
    R4        2.62661   0.01423   0.00000   0.02998   0.02994   2.65654
    R5        2.05336  -0.00234   0.00000  -0.00653  -0.00653   2.04683
    R6        2.64382   0.00199   0.00000   0.00442   0.00442   2.64824
    R7        2.05439  -0.00265   0.00000  -0.00742  -0.00742   2.04697
    R8        2.69075   0.01846   0.00000   0.04438   0.04435   2.73510
    R9        2.60940  -0.02457   0.00000  -0.04982  -0.04980   2.55960
   R10        2.65756  -0.00780   0.00000  -0.01754  -0.01750   2.64006
   R11        2.71599  -0.00981   0.00000  -0.02342  -0.02347   2.69252
   R12        2.05433  -0.00257   0.00000  -0.00721  -0.00721   2.04713
   R13        2.61412   0.01034   0.00000   0.02015   0.02022   2.63434
   R14        1.90458  -0.00023   0.00000  -0.00049  -0.00049   1.90409
   R15        2.58827  -0.01250   0.00000  -0.02468  -0.02464   2.56362
   R16        2.04358  -0.00110   0.00000  -0.00303  -0.00303   2.04055
   R17        2.04337  -0.00139   0.00000  -0.00383  -0.00383   2.03954
    A1        2.11385   0.00559   0.00000   0.02556   0.02552   2.13937
    A2        2.08080  -0.00282   0.00000  -0.01296  -0.01294   2.06786
    A3        2.08854  -0.00276   0.00000  -0.01260  -0.01258   2.07596
    A4        2.11529  -0.00176   0.00000  -0.00628  -0.00636   2.10893
    A5        2.08444   0.00032   0.00000  -0.00028  -0.00024   2.08420
    A6        2.08345   0.00145   0.00000   0.00656   0.00660   2.09005
    A7        2.05063  -0.00464   0.00000  -0.01904  -0.01910   2.03152
    A8        2.11449   0.00278   0.00000   0.01229   0.01232   2.12681
    A9        2.11807   0.00186   0.00000   0.00675   0.00678   2.12485
   A10        2.13538   0.00560   0.00000   0.02215   0.02218   2.15756
   A11        2.27776  -0.00074   0.00000  -0.00368  -0.00367   2.27409
   A12        1.87005  -0.00486   0.00000  -0.01846  -0.01851   1.85154
   A13        2.07153  -0.00013   0.00000  -0.00176  -0.00164   2.06989
   A14        1.86523  -0.00034   0.00000   0.00111   0.00097   1.86620
   A15        2.34643   0.00047   0.00000   0.00065   0.00067   2.34710
   A16        2.07970  -0.00464   0.00000  -0.02063  -0.02059   2.05911
   A17        2.10382   0.00271   0.00000   0.01263   0.01261   2.11643
   A18        2.09967   0.00194   0.00000   0.00800   0.00798   2.10765
   A19        1.90782   0.00515   0.00000   0.02030   0.02038   1.92820
   A20        2.18874  -0.00341   0.00000  -0.01520  -0.01524   2.17349
   A21        2.18663  -0.00174   0.00000  -0.00510  -0.00514   2.18149
   A22        1.86991   0.00180   0.00000   0.00799   0.00797   1.87788
   A23        2.21509  -0.00125   0.00000  -0.00610  -0.00609   2.20900
   A24        2.19819  -0.00055   0.00000  -0.00189  -0.00188   2.19630
   A25        1.91178  -0.00175   0.00000  -0.01092  -0.01082   1.90096
   A26        2.10007   0.00125   0.00000   0.00772   0.00767   2.10774
   A27        2.27133   0.00050   0.00000   0.00320   0.00315   2.27449
    D1        0.00023  -0.00000   0.00000  -0.00019  -0.00019   0.00004
    D2        3.14148   0.00000   0.00000   0.00004   0.00004   3.14151
    D3       -3.14149  -0.00000   0.00000  -0.00005  -0.00005  -3.14154
    D4       -0.00024   0.00000   0.00000   0.00017   0.00017  -0.00007
    D5       -0.00025   0.00001   0.00000   0.00022   0.00022  -0.00003
    D6       -3.14143  -0.00000   0.00000  -0.00000  -0.00000  -3.14144
    D7        3.14147   0.00000   0.00000   0.00009   0.00009   3.14156
    D8        0.00028  -0.00000   0.00000  -0.00013  -0.00013   0.00015
    D9       -0.00005   0.00000   0.00000   0.00003   0.00003  -0.00002
   D10        3.14159   0.00000   0.00000   0.00005   0.00005  -3.14155
   D11       -3.14130  -0.00000   0.00000  -0.00019  -0.00019  -3.14149
   D12        0.00035  -0.00000   0.00000  -0.00017  -0.00018   0.00017
   D13       -0.00010   0.00000   0.00000   0.00009   0.00009  -0.00001
   D14       -3.14138  -0.00000   0.00000  -0.00009  -0.00010  -3.14147
   D15        3.14144   0.00000   0.00000   0.00007   0.00007   3.14151
   D16        0.00016  -0.00000   0.00000  -0.00011  -0.00011   0.00005
   D17        0.00008  -0.00000   0.00000  -0.00005  -0.00005   0.00003
   D18       -3.14152  -0.00000   0.00000  -0.00015  -0.00015   3.14152
   D19        3.14142   0.00000   0.00000   0.00010   0.00010   3.14152
   D20       -0.00017  -0.00000   0.00000  -0.00000  -0.00000  -0.00018
   D21       -3.14132  -0.00001   0.00000  -0.00033  -0.00033   3.14154
   D22       -0.00154   0.00001   0.00000   0.00028   0.00028  -0.00126
   D23        0.00055  -0.00001   0.00000  -0.00049  -0.00049   0.00006
   D24        3.14033   0.00000   0.00000   0.00012   0.00012   3.14045
   D25        0.00010  -0.00000   0.00000  -0.00011  -0.00011  -0.00001
   D26        3.14129   0.00000   0.00000   0.00012   0.00012   3.14140
   D27       -3.14149   0.00000   0.00000   0.00002   0.00003  -3.14147
   D28       -0.00031   0.00001   0.00000   0.00025   0.00025  -0.00006
   D29       -0.00026   0.00001   0.00000   0.00049   0.00049   0.00023
   D30        3.14133   0.00000   0.00000   0.00020   0.00020   3.14153
   D31        3.14133   0.00001   0.00000   0.00037   0.00037  -3.14149
   D32       -0.00026   0.00000   0.00000   0.00008   0.00008  -0.00018
   D33       -0.00074   0.00002   0.00000   0.00082   0.00082   0.00009
   D34        3.14136   0.00001   0.00000   0.00031   0.00031  -3.14151
   D35       -3.14052   0.00001   0.00000   0.00023   0.00022  -3.14029
   D36        0.00157  -0.00001   0.00000  -0.00028  -0.00028   0.00129
   D37        0.00061  -0.00002   0.00000  -0.00081  -0.00080  -0.00020
   D38       -3.14155  -0.00001   0.00000  -0.00023  -0.00023   3.14140
   D39       -3.14099  -0.00002   0.00000  -0.00052  -0.00051  -3.14150
   D40        0.00004  -0.00000   0.00000   0.00006   0.00006   0.00010
         Item               Value     Threshold  Converged?
 Maximum Force            0.024572     0.000450     NO 
 RMS     Force            0.005235     0.000300     NO 
 Maximum Displacement     0.057671     0.001800     NO 
 RMS     Displacement     0.016137     0.001200     NO 
 Predicted change in Energy=-2.727382D-03
 GradGradGradGradGradGradGradGradGradGradGradGradGradGradGradGradGradGrad

                          Input orientation:                          
 ---------------------------------------------------------------------
 Center     Atomic      Atomic             Coordinates (Angstroms)
 Number     Number       Type             X           Y           Z
 ---------------------------------------------------------------------
      1          6           0       -2.148047    0.681312    0.000004
      2          6           0       -2.141369   -0.730095    0.000005
      3          6           0       -0.930873   -1.444885    0.000039
      4          6           0        0.243888   -0.680801    0.000046
      5          6           0        0.258494    0.766478    0.000003
      6          6           0       -0.961341    1.447494   -0.000013
      7          7           0        1.541486   -1.069200   -0.000046
      8          6           0        1.625712    1.167503    0.000123
      9          6           0        2.383179    0.042054   -0.000066
     10          1           0        1.850652   -2.028197    0.000908
     11          1           0        1.998908    2.180777    0.000074
     12          1           0        3.455779   -0.077811   -0.000209
     13          1           0       -3.082335   -1.266532    0.000096
     14          1           0       -0.906376   -2.527818   -0.000001
     15          1           0       -3.103244    1.193667    0.000026
     16          1           0       -0.991313    2.530373    0.000132
 ---------------------------------------------------------------------
                    Distance matrix (angstroms):
                    1          2          3          4          5
     1  C    0.000000
     2  C    1.411423   0.000000
     3  C    2.449944   1.405783   0.000000
     4  C    2.752581   2.385767   1.401388   0.000000
     5  C    2.408047   2.828264   2.510920   1.447353   0.000000
     6  C    1.412553   2.476764   2.892540   2.445857   1.397061
     7  N    4.083742   3.698435   2.500740   1.354480   2.239595
     8  C    3.804949   4.218030   3.655229   2.307740   1.424818
     9  C    4.576097   4.589962   3.632345   2.258115   2.244789
    10  H    4.830220   4.197773   2.842030   2.096942   3.216392
    11  H    4.409719   5.061133   4.661442   3.356891   2.242606
    12  H    5.655010   5.635029   4.594737   3.268002   3.306880
    13  H    2.160322   1.083135   2.158842   3.377402   3.910789
    14  H    3.440968   2.181058   1.083210   2.175909   3.494182
    15  H    1.083933   2.150829   3.417770   3.836265   3.388772
    16  H    2.181069   3.457352   3.975718   3.440547   2.161792
                    6          7          8          9         10
     6  C    0.000000
     7  N    3.549351   0.000000
     8  C    2.602160   2.238289   0.000000
     9  C    3.627820   1.394035   1.356611   0.000000
    10  H    4.470764   1.007601   3.203607   2.137644   0.000000
    11  H    3.049717   3.282009   1.079814   2.172971   4.211584
    12  H    4.673062   2.155776   2.213584   1.079277   2.525953
    13  H    3.444496   4.628030   5.300022   5.619986   4.991442
    14  H    3.975692   2.849490   4.479605   4.174375   2.801932
    15  H    2.156891   5.166632   4.729029   5.605984   5.909441
    16  H    1.083294   4.401364   2.950633   4.192724   5.371902
                   11         12         13         14         15
    11  H    0.000000
    12  H    2.687693   0.000000
    13  H    6.140274   6.645298   0.000000
    14  H    5.532769   5.003092   2.515082   0.000000
    15  H    5.196762   6.681126   2.460289   4.321537   0.000000
    16  H    3.010588   5.155507   4.334612   5.058904   2.499407
                   16
    16  H    0.000000
 Stoichiometry    C8H7N
 Framework group  C1[X(C8H7N)]
 Deg. of freedom    42
 Full point group                 C1      NOp   1
 Largest Abelian subgroup         C1      NOp   1
 Largest concise Abelian subgroup C1      NOp   1
                         Standard orientation:                         
 ---------------------------------------------------------------------
 Center     Atomic      Atomic             Coordinates (Angstroms)
 Number     Number       Type             X           Y           Z
 ---------------------------------------------------------------------
      1          6           0       -2.138518    0.709960   -0.000021
      2          6           0       -2.150860   -0.701408   -0.000020
      3          6           0       -0.950106   -1.432445    0.000014
      4          6           0        0.234845   -0.684260    0.000021
      5          6           0        0.268952    0.762691   -0.000022
      6          6           0       -0.941596    1.460082   -0.000038
      7          7           0        1.527092   -1.090109   -0.000071
      8          6           0        1.641449    1.145256    0.000098
      9          6           0        2.383683    0.009702   -0.000091
     10          1           0        1.823306   -2.053185    0.000883
     11          1           0        2.028265    2.153409    0.000049
     12          1           0        3.454570   -0.124606   -0.000234
     13          1           0       -3.098969   -1.225118    0.000071
     14          1           0       -0.940203   -2.515609   -0.000026
     15          1           0       -3.086725    1.235141    0.000001
     16          1           0       -0.956974    2.543267    0.000107
 ---------------------------------------------------------------------
 Rotational constants (GHZ):           3.8280136           1.6452221           1.1506781
 Standard basis: 6-31G(d) (6D, 7F)
 There are   149 symmetry adapted cartesian basis functions of A   symmetry.
 There are   149 symmetry adapted basis functions of A   symmetry.
   149 basis functions,   280 primitive gaussians,   149 cartesian basis functions
    31 alpha electrons       31 beta electrons
       nuclear repulsion energy       399.8299106178 Hartrees.
 NAtoms=   16 NActive=   16 NUniq=   16 SFac= 1.00D+00 NAtFMM=   60 NAOKFM=F Big=F
 Integral buffers will be    131072 words long.
 Raffenetti 1 integral format.
 Two-electron integral symmetry is turned on.
 One-electron integrals computed using PRISM.
 NBasis=   149 RedAO= T EigKep=  4.31D-04  NBF=   149
 NBsUse=   149 1.00D-06 EigRej= -1.00D+00 NBFU=   149
 Initial guess from the checkpoint file:  "ImpLC-BLYP.chk"
 B after Tr=    -0.000000   -0.000000   -0.000000
         Rot=    0.999979    0.000005    0.000000    0.006470 Ang=   0.74 deg.
 ExpMin= 1.61D-01 ExpMax= 4.17D+03 ExpMxC= 6.27D+02 IAcc=3 IRadAn=         5 AccDes= 0.00D+00
 Harris functional with IExCor=10402 and IRadAn=       5 diagonalized for initial guess.
 HarFok:  IExCor=10402 AccDes= 0.00D+00 IRadAn=         5 IDoV= 1 UseB2=F ITyADJ=14
 ICtDFT=  3500011 ScaDFX=  1.000000  1.000000  1.000000  1.000000
 FoFCou: FMM=F IPFlag=           0 FMFlag=      100000 FMFlg1=           0
         NFxFlg=           0 DoJE=T BraDBF=F KetDBF=T FulRan=T
         wScrn=  0.000000 ICntrl=       500 IOpCl=  0 I1Cent=   200000004 NGrid=           0
         NMat0=    1 NMatS0=      1 NMatT0=    0 NMatD0=    1 NMtDS0=    0 NMtDT0=    0
 Petite list used in FoFCou.
 Requested convergence on RMS density matrix=1.00D-08 within 128 cycles.
 Requested convergence on MAX density matrix=1.00D-06.
 Requested convergence on             energy=1.00D-06.
 No special actions if energy rises.
 Integral accuracy reduced to 1.0D-05 until final iterations.
 Initial convergence to 1.0D-05 achieved.  Increase integral accuracy.
 SCF Done:  E(RLC-B+HF-LYP) =  -362.716026056     A.U. after   14 cycles
            NFock= 14  Conv=0.43D-08     -V/T= 2.0093
 DoSCS=F DFT=T ScalE2(SS,OS)=  1.000000  1.000000
 ExpMin= 1.61D-01 ExpMax= 4.17D+03 ExpMxC= 6.27D+02 IAcc=3 IRadAn=         5 AccDes= 0.00D+00
 HarFok:  IExCor=  205 AccDes= 0.00D+00 IRadAn=         5 IDoV=-2 UseB2=F ITyADJ=14
 ICtDFT= 12500011 ScaDFX=  1.000000  1.000000  1.000000  1.000000
 Range of M.O.s used for correlation:    10   149
 NBasis=   149 NAE=    31 NBE=    31 NFC=     9 NFV=     0
 NROrb=    140 NOA=    22 NOB=    22 NVA=   118 NVB=   118

 **** Warning!!: The largest alpha MO coefficient is  0.10911641D+02

 Orbital symmetries:
       Occupied  (A) (A) (A) (A) (A) (A) (A) (A) (A) (A) (A) (A)
                 (A) (A) (A) (A) (A) (A) (A) (A) (A) (A) (A) (A)
                 (A) (A) (A) (A) (A) (A) (A)
       Virtual   (A) (A) (A) (A) (A) (A) (A) (A) (A) (A) (A) (A)
                 (A) (A) (A) (A) (A) (A) (A) (A) (A) (A) (A) (A)
                 (A) (A) (A) (A) (A) (A) (A) (A) (A) (A) (A) (A)
                 (A) (A) (A) (A) (A) (A) (A) (A) (A) (A) (A) (A)
                 (A) (A) (A) (A) (A) (A) (A) (A) (A) (A) (A) (A)
                 (A) (A) (A) (A) (A) (A) (A) (A) (A) (A) (A) (A)
                 (A) (A) (A) (A) (A) (A) (A) (A) (A) (A) (A) (A)
                 (A) (A) (A) (A) (A) (A) (A) (A) (A) (A) (A) (A)
                 (A) (A) (A) (A) (A) (A) (A) (A) (A) (A) (A) (A)
                 (A) (A) (A) (A) (A) (A) (A) (A) (A) (A)
 Generating guess from densities on rwf.
 Convergence on wavefunction:    0.000001000000000
 Iteration     1 Dimension    12 NMult     0 NNew     12
 CISAX will form    12 AO SS matrices at one time.
 Iteration     2 Dimension    24 NMult    12 NNew     12
 Iteration     3 Dimension    36 NMult    24 NNew     12
 Iteration     4 Dimension    48 NMult    36 NNew     12
 Iteration     5 Dimension    60 NMult    48 NNew     12
 Iteration     6 Dimension    72 NMult    60 NNew     12
 Iteration     7 Dimension    84 NMult    72 NNew     12
 Iteration     8 Dimension    92 NMult    84 NNew      8
 Iteration     9 Dimension   100 NMult    92 NNew      8
 Iteration    10 Dimension   108 NMult   100 NNew      8
 Iteration    11 Dimension   112 NMult   108 NNew      4
 Iteration    12 Dimension   116 NMult   112 NNew      4
 Iteration    13 Dimension   120 NMult   116 NNew      4
 Iteration    14 Dimension   122 NMult   120 NNew      2
 Iteration    15 Dimension   124 NMult   122 NNew      2
 Iteration    16 Dimension   126 NMult   124 NNew      2
 Iteration    17 Dimension   128 NMult   126 NNew      2
 ***********************************************************************
 Excited states from <AA,BB:AA,BB> singles matrix:
 ***********************************************************************
 
 Ground to excited state transition densities written to RWF  633
 Ground to excited state transition electric dipole moments (Au):
       state          X           Y           Z        Dip. S.      Osc.
         1        -0.4745     -0.4447     -0.0000      0.4229      0.0530
         2        -0.6767      0.6159      0.0000      0.8372      0.1118
         3        -2.1837     -0.4405      0.0001      4.9624      0.8375
         4         0.6597     -1.1808      0.0000      1.8295      0.3134
         5         0.5403     -0.1826      0.0001      0.3253      0.0608
         6        -0.0012     -0.0011      0.0458      0.0021      0.0004
 Ground to excited state transition velocity dipole moments (Au):
       state          X           Y           Z        Dip. S.      Osc.
         1         0.0883      0.0897      0.0000      0.0158      0.0561
         2         0.1264     -0.1310     -0.0000      0.0331      0.1103
         3         0.5421      0.1120     -0.0000      0.3064      0.8068
         4        -0.1651      0.3092     -0.0000      0.1228      0.3187
         5        -0.1520      0.0438     -0.0000      0.0250      0.0595
         6         0.0003      0.0003     -0.0373      0.0014      0.0032
 Ground to excited state transition magnetic dipole moments (Au):
       state          X           Y           Z
         1        -0.0001     -0.0001     -0.1748
         2         0.0000      0.0002     -0.0981
         3        -0.0000     -0.0000     -0.5784
         4        -0.0002     -0.0001     -0.3198
         5        -0.0000      0.0001     -1.2265
         6         0.2469      0.1433     -0.0007
 Ground to excited state transition velocity quadrupole moments (Au):
       state          XX          YY          ZZ          XY          XZ          YZ
         1         0.0020     -0.1124      0.0100     -0.0154      0.0000     -0.0000
         2         0.2786     -0.2017     -0.0028     -0.0994     -0.0001     -0.0000
         3        -0.2519     -0.0357     -0.0281     -0.4039      0.0000     -0.0001
         4         0.4702     -0.0307      0.0316     -0.4370      0.0000      0.0000
         5         0.8739     -0.2943     -0.0239     -0.9708     -0.0000     -0.0002
         6         0.0007     -0.0004     -0.0001     -0.0002     -0.1329      0.1856
 <0|del|b> * <b|rxdel|0> + <0|del|b> * <b|delr+rdel|0>
 Rotatory Strengths (R) in cgs (10**-40 erg-esu-cm/Gauss)
       state          XX          YY          ZZ    R(velocity)    E-M Angle
         1        -0.0228     -0.0280     -0.0263     -0.0257       90.00
         2        -0.0524     -0.0019     -0.0107     -0.0217       90.00
         3        -0.0040     -0.1134      0.0339     -0.0278       90.00
         4        -0.0365      0.0351      0.0052      0.0013       90.00
         5         0.0676      0.0408     -0.0253      0.0277       90.00
         6         0.1358      0.1878      0.0272      0.1169       89.22
 1/2[<0|r|b>*<b|rxdel|0> + (<0|rxdel|b>*<b|r|0>)*]
 Rotatory Strengths (R) in cgs (10**-40 erg-esu-cm/Gauss)
       state          XX          YY          ZZ     R(length)
         1        -0.0413     -0.0276     -0.0040     -0.0243
         2         0.0030     -0.0695      0.0026     -0.0213
         3        -0.0767     -0.0103      0.0212     -0.0219
         4         0.0824     -0.0783      0.0051      0.0031
         5         0.0040      0.0126      0.1246      0.0471
         6         0.2094      0.1117      0.0225      0.1145
  1/2[<0|del|b>*<b|r|0> + (<0|r|b>*<b|del|0>)*] (Au)
       state          X           Y           Z        Dip. S.   Osc.(frdel)
         1        -0.0419     -0.0399     -0.0000      0.0818      0.0545
         2        -0.0855     -0.0807     -0.0000      0.1662      0.1108
         3        -1.1837     -0.0493     -0.0000      1.2330      0.8220
         4        -0.1089     -0.3651     -0.0000      0.4740      0.3160
         5        -0.0821     -0.0080     -0.0000      0.0901      0.0601
         6        -0.0000     -0.0000     -0.0017      0.0017      0.0011

 Excitation energies and oscillator strengths:
 
 Excited State   1:      Singlet-A      5.1192 eV  242.19 nm  f=0.0530  <S**2>=0.000
      30 -> 32        -0.57472
      31 -> 32        -0.21461
      31 -> 33        -0.31705
 This state for optimization and/or second-order correction.
 Total Energy, E(TD-HF/TD-DFT) =  -362.527897698    
 Copying the excited state density for this state as the 1-particle RhoCI density.
 
 Excited State   2:      Singlet-A      5.4504 eV  227.48 nm  f=0.1118  <S**2>=0.000
      30 -> 32        -0.18878
      30 -> 33        -0.25803
      31 -> 32         0.60866
      31 -> 33        -0.13167
 
 Excited State   3:      Singlet-A      6.8888 eV  179.98 nm  f=0.8375  <S**2>=0.000
      30 -> 32        -0.34480
      31 -> 33         0.60273
 
 Excited State   4:      Singlet-A      6.9920 eV  177.32 nm  f=0.3134  <S**2>=0.000
      30 -> 33        -0.63494
      31 -> 32        -0.27150
 
 Excited State   5:      Singlet-A      7.6297 eV  162.50 nm  f=0.0608  <S**2>=0.000
      29 -> 32         0.58852
      31 -> 35        -0.34725
 
 Excited State   6:      Singlet-A      7.9722 eV  155.52 nm  f=0.0004  <S**2>=0.000
      27 -> 34         0.12051
      29 -> 34         0.18354
      30 -> 34         0.17030
      31 -> 34         0.63277
 SavETr:  write IOETrn=   770 NScale= 10 NData=  16 NLR=1 NState=    6 LETran=     118.
          IDoAtm=1111111111111111
          Differentiating once with respect to electric field.
                with respect to dipole field.
          Differentiating once with respect to nuclear coordinates.
          There are     1 degrees of freedom in the 1st order CPHF.  IDoFFX=0 NUNeed=     1.
 LinEq1:  Iter=  0 NonCon=     1 RMS=4.01D-03 Max=7.67D-02 NDo=     1
 AX will form     1 AO Fock derivatives at one time.
 LinEq1:  Iter=  1 NonCon=     1 RMS=1.50D-03 Max=4.58D-02 NDo=     1
 LinEq1:  Iter=  2 NonCon=     1 RMS=6.28D-04 Max=1.52D-02 NDo=     1
 LinEq1:  Iter=  3 NonCon=     1 RMS=3.47D-04 Max=1.01D-02 NDo=     1
 LinEq1:  Iter=  4 NonCon=     1 RMS=1.17D-04 Max=2.11D-03 NDo=     1
 LinEq1:  Iter=  5 NonCon=     1 RMS=4.97D-05 Max=1.43D-03 NDo=     1
 LinEq1:  Iter=  6 NonCon=     1 RMS=2.28D-05 Max=5.96D-04 NDo=     1
 LinEq1:  Iter=  7 NonCon=     1 RMS=6.77D-06 Max=1.23D-04 NDo=     1
 LinEq1:  Iter=  8 NonCon=     1 RMS=3.93D-06 Max=9.88D-05 NDo=     1
 LinEq1:  Iter=  9 NonCon=     1 RMS=1.14D-06 Max=2.65D-05 NDo=     1
 LinEq1:  Iter= 10 NonCon=     1 RMS=4.22D-07 Max=7.45D-06 NDo=     1
 LinEq1:  Iter= 11 NonCon=     1 RMS=2.20D-07 Max=3.91D-06 NDo=     1
 LinEq1:  Iter= 12 NonCon=     1 RMS=6.33D-08 Max=1.26D-06 NDo=     1
 LinEq1:  Iter= 13 NonCon=     1 RMS=2.83D-08 Max=6.28D-07 NDo=     1
 LinEq1:  Iter= 14 NonCon=     1 RMS=9.02D-09 Max=1.14D-07 NDo=     1
 LinEq1:  Iter= 15 NonCon=     1 RMS=2.57D-09 Max=5.06D-08 NDo=     1
 LinEq1:  Iter= 16 NonCon=     1 RMS=9.26D-10 Max=1.70D-08 NDo=     1
 LinEq1:  Iter= 17 NonCon=     1 RMS=2.95D-10 Max=4.69D-09 NDo=     1
 LinEq1:  Iter= 18 NonCon=     1 RMS=1.06D-10 Max=1.09D-09 NDo=     1
 LinEq1:  Iter= 19 NonCon=     0 RMS=2.87D-11 Max=6.05D-10 NDo=     1
 Linear equations converged to 1.000D-10 1.000D-09 after    19 iterations.
 End of Minotr F.D. properties file   721 does not exist.
 End of Minotr F.D. properties file   722 does not exist.
 End of Minotr F.D. properties file   788 does not exist.
 Calling FoFJK, ICntrl=  10005127 FMM=F ISym2X=0 I1Cent= 0 IOpClX= 0 NMat=1 NMatS=1 NMatT=0.
 ***** Axes restored to original set *****
 -------------------------------------------------------------------
 Center     Atomic                   Forces (Hartrees/Bohr)
 Number     Number              X              Y              Z
 -------------------------------------------------------------------
      1        6           0.001492643   -0.005605565   -0.000002086
      2        6          -0.001206558    0.003762052    0.000007977
      3        6          -0.000397773   -0.001738957    0.000003867
      4        6           0.007484912   -0.002013629   -0.000012711
      5        6          -0.001754138    0.002751965    0.000011386
      6        6           0.000640550    0.002133338    0.000005724
      7        7          -0.011818498    0.000403684    0.000010468
      8        6          -0.001377245   -0.004641972   -0.000028051
      9        6           0.008511133    0.005115965    0.000023925
     10        1           0.000467370   -0.000747704   -0.000015597
     11        1          -0.000261556    0.000465329   -0.000000127
     12        1          -0.000373290   -0.000762233    0.000002754
     13        1          -0.000058668    0.000476280   -0.000003992
     14        1           0.000196688    0.000230798   -0.000000421
     15        1          -0.000320658    0.000548819    0.000000672
     16        1          -0.001224913   -0.000378171   -0.000003788
 -------------------------------------------------------------------
 Cartesian Forces:  Max     0.011818498 RMS     0.002865686

 GradGradGradGradGradGradGradGradGradGradGradGradGradGradGradGradGradGrad
 Berny optimization.
 Using GEDIIS/GDIIS optimizer.
 FormGI is forming the generalized inverse of G from B-inverse, IUseBI=4.
 Internal  Forces:  Max     0.006279920 RMS     0.001268122
 Search for a local minimum.
 Step number   2 out of a maximum of   94
 All quantities printed in internal units (Hartrees-Bohrs-Radians)
 Mixed Optimization -- RFO/linear search
 Update second derivatives using D2CorX and points    1    2
 DE= -3.06D-03 DEPred=-2.73D-03 R= 1.12D+00
 TightC=F SS=  1.41D+00  RLast= 1.17D-01 DXNew= 5.0454D-01 3.4976D-01
 Trust test= 1.12D+00 RLast= 1.17D-01 DXMaxT set to 3.50D-01
 ITU=  1  0
 Use linear search instead of GDIIS.
     Eigenvalues ---    0.01789   0.01868   0.01928   0.01946   0.02011
     Eigenvalues ---    0.02041   0.02077   0.02086   0.02098   0.02135
     Eigenvalues ---    0.02160   0.02173   0.02275   0.15812   0.16000
     Eigenvalues ---    0.16000   0.16000   0.16000   0.16000   0.16061
     Eigenvalues ---    0.19457   0.22050   0.22875   0.24405   0.24563
     Eigenvalues ---    0.35059   0.35147   0.35193   0.35231   0.35804
     Eigenvalues ---    0.35839   0.36249   0.38183   0.40388   0.42086
     Eigenvalues ---    0.44639   0.45193   0.46170   0.46350   0.46573
     Eigenvalues ---    0.49132   0.51673
 RFO step:  Lambda=-4.10568132D-04 EMin= 1.78919524D-02
 Quartic linear search produced a step of  0.15215.
 Iteration  1 RMS(Cart)=  0.00641631 RMS(Int)=  0.00003625
 Iteration  2 RMS(Cart)=  0.00004079 RMS(Int)=  0.00001279
 Iteration  3 RMS(Cart)=  0.00000000 RMS(Int)=  0.00001279
 Variable       Old X    -DE/DX   Delta X   Delta X   Delta X     New X
                                 (Linear)    (Quad)   (Total)
    R1        2.66720  -0.00378   0.00025  -0.01037  -0.01013   2.65708
    R2        2.66934   0.00038   0.00690  -0.00286   0.00405   2.67339
    R3        2.04834   0.00054  -0.00085   0.00222   0.00137   2.04971
    R4        2.65654   0.00064   0.00455  -0.00092   0.00362   2.66017
    R5        2.04683  -0.00018  -0.00099  -0.00008  -0.00108   2.04575
    R6        2.64824   0.00113   0.00067   0.00272   0.00338   2.65162
    R7        2.04697  -0.00023  -0.00113  -0.00015  -0.00128   2.04569
    R8        2.73510   0.00104   0.00675  -0.00106   0.00566   2.74076
    R9        2.55960  -0.00628  -0.00758  -0.01134  -0.01893   2.54066
   R10        2.64006   0.00042  -0.00266   0.00257  -0.00009   2.63998
   R11        2.69252   0.00044  -0.00357   0.00328  -0.00029   2.69222
   R12        2.04713  -0.00034  -0.00110  -0.00055  -0.00165   2.04548
   R13        2.63434   0.00514   0.00308   0.01094   0.01404   2.64838
   R14        1.90409   0.00085  -0.00007   0.00216   0.00209   1.90618
   R15        2.56362  -0.00013  -0.00375   0.00234  -0.00138   2.56224
   R16        2.04055   0.00035  -0.00046   0.00135   0.00089   2.04145
   R17        2.03954  -0.00029  -0.00058  -0.00061  -0.00120   2.03834
    A1        2.13937   0.00189   0.00388   0.00640   0.01029   2.14965
    A2        2.06786  -0.00061  -0.00197  -0.00074  -0.00271   2.06515
    A3        2.07596  -0.00129  -0.00191  -0.00566  -0.00757   2.06839
    A4        2.10893  -0.00003  -0.00097  -0.00079  -0.00177   2.10715
    A5        2.08420  -0.00044  -0.00004  -0.00257  -0.00260   2.08160
    A6        2.09005   0.00047   0.00100   0.00336   0.00437   2.09443
    A7        2.03152  -0.00047  -0.00291  -0.00096  -0.00389   2.02764
    A8        2.12681   0.00044   0.00187   0.00173   0.00362   2.13043
    A9        2.12485   0.00003   0.00103  -0.00077   0.00027   2.12512
   A10        2.15756  -0.00013   0.00337  -0.00059   0.00280   2.16035
   A11        2.27409  -0.00098  -0.00056  -0.00353  -0.00406   2.27003
   A12        1.85154   0.00111  -0.00282   0.00412   0.00126   1.85280
   A13        2.06989  -0.00026  -0.00025  -0.00003  -0.00026   2.06963
   A14        1.86620  -0.00142   0.00015  -0.00784  -0.00773   1.85847
   A15        2.34710   0.00168   0.00010   0.00787   0.00799   2.35509
   A16        2.05911  -0.00100  -0.00313  -0.00404  -0.00716   2.05195
   A17        2.11643  -0.00076   0.00192  -0.00725  -0.00534   2.11109
   A18        2.10765   0.00176   0.00121   0.01129   0.01250   2.12015
   A19        1.92820   0.00191   0.00310   0.00790   0.01101   1.93921
   A20        2.17349  -0.00075  -0.00232  -0.00205  -0.00437   2.16912
   A21        2.18149  -0.00116  -0.00078  -0.00585  -0.00663   2.17486
   A22        1.87788   0.00196   0.00121   0.01139   0.01263   1.89051
   A23        2.20900  -0.00140  -0.00093  -0.00850  -0.00944   2.19956
   A24        2.19630  -0.00057  -0.00029  -0.00290  -0.00320   2.19311
   A25        1.90096  -0.00356  -0.00165  -0.01557  -0.01717   1.88379
   A26        2.10774   0.00097   0.00117   0.00175   0.00289   2.11063
   A27        2.27449   0.00259   0.00048   0.01383   0.01428   2.28877
    D1        0.00004  -0.00000  -0.00003  -0.00002  -0.00005  -0.00001
    D2        3.14151   0.00000   0.00001   0.00010   0.00010  -3.14157
    D3       -3.14154  -0.00000  -0.00001  -0.00007  -0.00008   3.14157
    D4       -0.00007   0.00000   0.00003   0.00005   0.00008   0.00000
    D5       -0.00003  -0.00000   0.00003  -0.00004  -0.00000  -0.00003
    D6       -3.14144  -0.00000  -0.00000  -0.00012  -0.00012  -3.14156
    D7        3.14156   0.00000   0.00001   0.00001   0.00003   3.14158
    D8        0.00015  -0.00000  -0.00002  -0.00007  -0.00009   0.00006
    D9       -0.00002   0.00000   0.00000   0.00005   0.00005   0.00003
   D10       -3.14155   0.00000   0.00001   0.00004   0.00004  -3.14150
   D11       -3.14149  -0.00000  -0.00003  -0.00007  -0.00010  -3.14159
   D12        0.00017  -0.00000  -0.00003  -0.00008  -0.00011   0.00006
   D13       -0.00001  -0.00000   0.00001  -0.00003  -0.00001  -0.00003
   D14       -3.14147  -0.00000  -0.00001  -0.00010  -0.00012  -3.14159
   D15        3.14151  -0.00000   0.00001  -0.00001  -0.00000   3.14151
   D16        0.00005  -0.00000  -0.00002  -0.00009  -0.00011  -0.00005
   D17        0.00003  -0.00000  -0.00001  -0.00003  -0.00004  -0.00001
   D18        3.14152   0.00000  -0.00002   0.00012   0.00009  -3.14157
   D19        3.14152   0.00000   0.00001   0.00003   0.00005   3.14156
   D20       -0.00018   0.00000  -0.00000   0.00018   0.00018   0.00000
   D21        3.14154   0.00001  -0.00005   0.00032   0.00027  -3.14137
   D22       -0.00126   0.00001   0.00004   0.00035   0.00039  -0.00087
   D23        0.00006   0.00000  -0.00007   0.00026   0.00018   0.00024
   D24        3.14045   0.00001   0.00002   0.00028   0.00030   3.14075
   D25       -0.00001   0.00000  -0.00002   0.00006   0.00004   0.00004
   D26        3.14140   0.00000   0.00002   0.00014   0.00016   3.14156
   D27       -3.14147  -0.00000   0.00000  -0.00014  -0.00013   3.14159
   D28       -0.00006  -0.00000   0.00004  -0.00006  -0.00002  -0.00007
   D29        0.00023  -0.00001   0.00007  -0.00055  -0.00048  -0.00025
   D30        3.14153  -0.00000   0.00003  -0.00011  -0.00009   3.14144
   D31       -3.14149  -0.00001   0.00006  -0.00037  -0.00032   3.14138
   D32       -0.00018   0.00000   0.00001   0.00006   0.00007  -0.00011
   D33        0.00009  -0.00001   0.00012  -0.00062  -0.00050  -0.00041
   D34       -3.14151  -0.00000   0.00005  -0.00017  -0.00012   3.14155
   D35       -3.14029  -0.00001   0.00003  -0.00065  -0.00061  -3.14091
   D36        0.00129  -0.00000  -0.00004  -0.00020  -0.00024   0.00105
   D37       -0.00020   0.00001  -0.00012   0.00071   0.00059   0.00039
   D38        3.14140   0.00000  -0.00003   0.00020   0.00017   3.14157
   D39       -3.14150   0.00000  -0.00008   0.00028   0.00020  -3.14130
   D40        0.00010  -0.00000   0.00001  -0.00023  -0.00022  -0.00012
         Item               Value     Threshold  Converged?
 Maximum Force            0.006280     0.000450     NO 
 RMS     Force            0.001268     0.000300     NO 
 Maximum Displacement     0.027847     0.001800     NO 
 RMS     Displacement     0.006410     0.001200     NO 
 Predicted change in Energy=-2.611856D-04
 GradGradGradGradGradGradGradGradGradGradGradGradGradGradGradGradGradGrad

                          Input orientation:                          
 ---------------------------------------------------------------------
 Center     Atomic      Atomic             Coordinates (Angstroms)
 Number     Number       Type             X           Y           Z
 ---------------------------------------------------------------------
      1          6           0       -2.143876    0.675440    0.000092
      2          6           0       -2.140344   -0.730620    0.000090
      3          6           0       -0.928517   -1.446927    0.000016
      4          6           0        0.245107   -0.677826   -0.000013
      5          6           0        0.258811    0.772456   -0.000002
      6          6           0       -0.961599    1.452347    0.000027
      7          7           0        1.532867   -1.064149   -0.000082
      8          6           0        1.628688    1.163741   -0.000070
      9          6           0        2.391974    0.043114    0.000202
     10          1           0        1.837575   -2.025731    0.000599
     11          1           0        1.999662    2.178333   -0.000212
     12          1           0        3.462857   -0.086040    0.000231
     13          1           0       -3.083387   -1.262236    0.000120
     14          1           0       -0.900605   -2.529100   -0.000069
     15          1           0       -3.099965    1.187665    0.000125
     16          1           0       -1.006049    2.533854    0.000065
 ---------------------------------------------------------------------
                    Distance matrix (angstroms):
                    1          2          3          4          5
     1  C    0.000000
     2  C    1.406064   0.000000
     3  C    2.445718   1.407701   0.000000
     4  C    2.745645   2.386035   1.403178   0.000000
     5  C    2.404644   2.831110   2.517024   1.450347   0.000000
     6  C    1.414695   2.480884   2.899462   2.448219   1.397015
     7  N    4.067506   3.688323   2.490970   1.344460   2.235249
     8  C    3.804034   4.218318   3.654434   2.303403   1.424664
     9  C    4.579713   4.597888   3.639489   2.264684   2.254402
    10  H    4.811265   4.183438   2.826000   2.086337   3.212841
    11  H    4.407675   5.059809   4.660123   3.352031   2.237645
    12  H    5.658207   5.640155   4.597410   3.271716   3.317066
    13  H    2.153432   1.082564   2.162771   3.379409   3.912833
    14  H    3.437266   2.184373   1.082533   2.177125   3.499217
    15  H    1.084657   2.144922   3.414127   3.830086   3.384342
    16  H    2.179072   3.455925   3.981537   3.446779   2.168500
[...]
 ! A27   A(8,9,12)             131.5702         -DE/DX =    0.0                 !
 ! D1    D(6,1,2,3)              0.0004         -DE/DX =    0.0                 !
 ! D2    D(6,1,2,13)           180.0024         -DE/DX =    0.0                 !
 ! D3    D(15,1,2,3)          -180.0018         -DE/DX =    0.0                 !
 ! D4    D(15,1,2,13)            0.0002         -DE/DX =    0.0                 !
 ! D5    D(2,1,6,5)             -0.0027         -DE/DX =    0.0                 !
 ! D6    D(2,1,6,16)          -180.0015         -DE/DX =    0.0                 !
 ! D7    D(15,1,6,5)          -180.0006         -DE/DX =    0.0                 !
 ! D8    D(15,1,6,16)            0.0007         -DE/DX =    0.0                 !
 ! D9    D(1,2,3,4)              0.0017         -DE/DX =    0.0                 !
 ! D10   D(1,2,3,14)          -179.9968         -DE/DX =    0.0                 !
 ! D11   D(13,2,3,4)           179.9997         -DE/DX =    0.0                 !
 ! D12   D(13,2,3,14)            0.0012         -DE/DX =    0.0                 !
 ! D13   D(2,3,4,5)             -0.0014         -DE/DX =    0.0                 !
 ! D14   D(2,3,4,7)           -180.0046         -DE/DX =    0.0                 !
 ! D15   D(14,3,4,5)           179.997          -DE/DX =    0.0                 !
 ! D16   D(14,3,4,7)            -0.0062         -DE/DX =    0.0                 !
 ! D17   D(3,4,5,6)             -0.0009         -DE/DX =    0.0                 !
 ! D18   D(3,4,5,8)            180.0036         -DE/DX =    0.0                 !
 ! D19   D(7,4,5,6)           -179.9983         -DE/DX =    0.0                 !
 ! D20   D(7,4,5,8)              0.0062         -DE/DX =    0.0                 !
 ! D21   D(3,4,7,9)            180.016          -DE/DX =    0.0                 !
 ! D22   D(3,4,7,10)            -0.0215         -DE/DX =    0.0                 !
 ! D23   D(5,4,7,9)              0.0133         -DE/DX =    0.0                 !
 ! D24   D(5,4,7,10)           179.9757         -DE/DX =    0.0                 !
 ! D25   D(4,5,6,1)              0.0029         -DE/DX =    0.0                 !
 ! D26   D(4,5,6,16)           180.0016         -DE/DX =    0.0                 !
 ! D27   D(8,5,6,1)           -180.0033         -DE/DX =    0.0                 !
 ! D28   D(8,5,6,16)            -0.0045         -DE/DX =    0.0                 !
 ! D29   D(4,5,8,9)             -0.0238         -DE/DX =    0.0                 !
 ! D30   D(4,5,8,11)          -180.009          -DE/DX =    0.0                 !
 ! D31   D(6,5,8,9)           -180.0182         -DE/DX =    0.0                 !
 ! D32   D(6,5,8,11)            -0.0034         -DE/DX =    0.0                 !
 ! D33   D(4,7,9,8)             -0.0288         -DE/DX =    0.0                 !
 ! D34   D(4,7,9,12)          -180.0038         -DE/DX =    0.0                 !
 ! D35   D(10,7,9,8)          -179.9911         -DE/DX =    0.0                 !
 ! D36   D(10,7,9,12)            0.0339         -DE/DX =    0.0                 !
 ! D37   D(5,8,9,7)              0.0317         -DE/DX =    0.0                 !
 ! D38   D(5,8,9,12)           180.0029         -DE/DX =    0.0                 !
 ! D39   D(11,8,9,7)           180.0169         -DE/DX =    0.0                 !
 ! D40   D(11,8,9,12)           -0.0118         -DE/DX =    0.0                 !
 --------------------------------------------------------------------------------
 GradGradGradGradGradGradGradGradGradGradGradGradGradGradGradGradGradGrad

                          Input orientation:                          
 ---------------------------------------------------------------------
 Center     Atomic      Atomic             Coordinates (Angstroms)
 Number     Number       Type             X           Y           Z
 ---------------------------------------------------------------------
      1          6           0       -2.142856    0.673042    0.000115
      2          6           0       -2.140951   -0.731054    0.000107
      3          6           0       -0.928990   -1.445130    0.000022
      4          6           0        0.245347   -0.674911   -0.000016
      5          6           0        0.259758    0.773685   -0.000003
      6          6           0       -0.961704    1.451178    0.000032
      7          7           0        1.530583   -1.064444   -0.000013
      8          6           0        1.630949    1.164932   -0.000139
      9          6           0        2.394957    0.044724    0.000306
     10          1           0        1.833904   -2.026783    0.000333
     11          1           0        1.999724    2.180786   -0.000303
     12          1           0        3.464437   -0.091810    0.000413
     13          1           0       -3.084147   -1.262907    0.000135
     14          1           0       -0.897749   -2.527585   -0.000038
     15          1           0       -3.098041    1.188035    0.000153
     16          1           0       -1.012021    2.532562    0.000018
 ---------------------------------------------------------------------
                    Distance matrix (angstroms):
                    1          2          3          4          5
     1  C    0.000000
     2  C    1.404097   0.000000
     3  C    2.441336   1.406681   0.000000
     4  C    2.742351   2.386958   1.404387   0.000000
     5  C    2.404721   2.833310   2.517193   1.448668   0.000000
     6  C    1.414431   2.480476   2.896492   2.444836   1.396769
     7  N    4.063621   3.686640   2.488860   1.342971   2.234663
     8  C    3.805727   4.221610   3.655914   2.303240   1.425917
     9  C    4.581106   4.601770   3.642566   2.266870   2.256204
    10  H    4.806628   4.180716   2.823456   2.085922   3.212563
    11  H    4.408431   5.062016   4.660969   3.351544   2.237726
    12  H    5.659217   5.641720   4.597138   3.271475   3.319495
    13  H    2.152655   1.082814   2.162846   3.381015   3.915278
    14  H    3.434283   2.184736   1.082906   2.176940   3.498314
    15  H    1.085171   2.144511   3.411501   3.827376   3.383267
    16  H    2.176374   3.453357   3.978558   3.445120   2.170499
                    6          7          8          9         10
     6  C    0.000000
     7  N    3.541165   0.000000
     8  C    2.608406   2.231634   0.000000
     9  C    3.639407   1.406199   1.355941   0.000000
    10  H    4.462245   1.009009   3.198162   2.146142   0.000000
    11  H    3.049981   3.278965   1.080720   2.172319   4.210836
    12  H    4.687380   2.164672   2.222854   1.078160   2.530368
    13  H    3.445434   4.618996   5.303445   5.632981   4.977020
    14  H    3.979276   2.835062   4.475376   4.178359   2.777180
    15  H    2.152482   5.147604   4.729046   5.610720   5.887201
    16  H    1.082554   4.404916   2.975852   4.218629   5.374655
                   11         12         13         14         15
    11  H    0.000000
    12  H    2.703715   0.000000
    13  H    6.140421   6.652474   0.000000
    14  H    5.528482   4.996165   2.525815   0.000000
    15  H    5.193531   6.686114   2.450982   4.318230   0.000000
    16  H    3.032219   5.189027   4.324267   5.061436   2.481780
                   16
    16  H    0.000000
 Stoichiometry    C8H7N
 Framework group  C1[X(C8H7N)]
 Deg. of freedom    42
 Full point group                 C1      NOp   1
 Largest Abelian subgroup         C1      NOp   1
 Largest concise Abelian subgroup C1      NOp   1
                         Standard orientation:                         
 ---------------------------------------------------------------------
 Center     Atomic      Atomic             Coordinates (Angstroms)
 Number     Number       Type             X           Y           Z
 ---------------------------------------------------------------------
      1          6           0       -2.132879    0.705695    0.000064
      2          6           0       -2.153261   -0.698254    0.000056
      3          6           0       -0.952787   -1.431477   -0.000029
      4          6           0        0.233627   -0.679995   -0.000067
      5          6           0        0.271030    0.768190   -0.000054
      6          6           0       -0.939524    1.464985   -0.000019
      7          7           0        1.512519   -1.089879   -0.000064
      8          6           0        1.648258    1.137623   -0.000190
      9          6           0        2.394389    0.005429    0.000255
     10          1           0        1.800526   -2.056912    0.000282
     11          1           0        2.033111    2.147496   -0.000354
     12          1           0        3.461567   -0.148063    0.000362
     13          1           0       -3.104780   -1.215069    0.000084
     14          1           0       -0.938732   -2.514291   -0.000089
     15          1           0       -3.079769    1.235785    0.000102
     16          1           0       -0.972671    2.547031   -0.000033
 ---------------------------------------------------------------------
 Rotational constants (GHZ):           3.8334281           1.6445567           1.1508411

 **********************************************************************

            Population analysis using the CI Density.

 **********************************************************************

 Orbital symmetries:
       Occupied  (A) (A) (A) (A) (A) (A) (A) (A) (A) (A) (A) (A)
                 (A) (A) (A) (A) (A) (A) (A) (A) (A) (A) (A) (A)
                 (A) (A) (A) (A) (A) (A) (A)
       Virtual   (A) (A) (A) (A) (A) (A) (A) (A) (A) (A) (A) (A)
                 (A) (A) (A) (A) (A) (A) (A) (A) (A) (A) (A) (A)
                 (A) (A) (A) (A) (A) (A) (A) (A) (A) (A) (A) (A)
                 (A) (A) (A) (A) (A) (A) (A) (A) (A) (A) (A) (A)
                 (A) (A) (A) (A) (A) (A) (A) (A) (A) (A) (A) (A)
                 (A) (A) (A) (A) (A) (A) (A) (A) (A) (A) (A) (A)
                 (A) (A) (A) (A) (A) (A) (A) (A) (A) (A) (A) (A)
                 (A) (A) (A) (A) (A) (A) (A) (A) (A) (A) (A) (A)
                 (A) (A) (A) (A) (A) (A) (A) (A) (A) (A) (A) (A)
                 (A) (A) (A) (A) (A) (A) (A) (A) (A) (A)
 The electronic state is 1-A.
 Alpha  occ. eigenvalues --  -14.29369 -10.18816 -10.18444 -10.15384 -10.15156
 Alpha  occ. eigenvalues --  -10.15103 -10.14749 -10.14224 -10.13962  -1.14439
 Alpha  occ. eigenvalues --   -0.99643  -0.94520  -0.88333  -0.87348  -0.77162
 Alpha  occ. eigenvalues --   -0.73528  -0.72213  -0.67483  -0.61941  -0.60045
 Alpha  occ. eigenvalues --   -0.56264  -0.56025  -0.55559  -0.53668  -0.51617
 Alpha  occ. eigenvalues --   -0.46956  -0.45628  -0.45245  -0.39573  -0.30890
 Alpha  occ. eigenvalues --   -0.29915
 Alpha virt. eigenvalues --    0.07924   0.12838   0.18002   0.18542   0.21279
 Alpha virt. eigenvalues --    0.23676   0.25039   0.27165   0.28541   0.29566
 Alpha virt. eigenvalues --    0.31175   0.33071   0.37628   0.39331   0.41473
 Alpha virt. eigenvalues --    0.44931   0.46993   0.50760   0.56540   0.62970
 Alpha virt. eigenvalues --    0.64383   0.64498   0.65080   0.67944   0.68401
 Alpha virt. eigenvalues --    0.69611   0.71448   0.72163   0.73737   0.74492
 Alpha virt. eigenvalues --    0.75141   0.75983   0.76366   0.77590   0.77678
 Alpha virt. eigenvalues --    0.81896   0.83867   0.90564   0.94162   0.94174
 Alpha virt. eigenvalues --    0.95377   0.97444   0.98813   0.99158   1.00796
 Alpha virt. eigenvalues --    1.01750   1.04610   1.07328   1.10073   1.10632
 Alpha virt. eigenvalues --    1.11771   1.18227   1.20190   1.26090   1.27566
 Alpha virt. eigenvalues --    1.33833   1.39003   1.39176   1.44206   1.48530
 Alpha virt. eigenvalues --    1.49906   1.51582   1.56276   1.56644   1.62371
 Alpha virt. eigenvalues --    1.62540   1.63051   1.65955   1.66318   1.70565
 Alpha virt. eigenvalues --    1.74383   1.91129   1.94034   1.98760   2.03868
 Alpha virt. eigenvalues --    2.05152   2.06589   2.10397   2.12467   2.15903
 Alpha virt. eigenvalues --    2.16433   2.18772   2.26477   2.27624   2.29139
 Alpha virt. eigenvalues --    2.30664   2.37199   2.39658   2.40184   2.43203
 Alpha virt. eigenvalues --    2.43305   2.53921   2.54335   2.57676   2.64457
 Alpha virt. eigenvalues --    2.73126   2.73150   2.76785   2.81036   2.81704
 Alpha virt. eigenvalues --    2.86236   2.91790   2.95171   2.98317   3.06666
 Alpha virt. eigenvalues --    3.11033   3.24285   3.37932   3.56932   4.12179
 Alpha virt. eigenvalues --    4.22209   4.24333   4.28974   4.34583   4.45859
 Alpha virt. eigenvalues --    4.53873   4.59129   4.88896
          Condensed to atoms (all electrons):
               1          2          3          4          5          6
     1  C    4.973471   0.502403  -0.032541  -0.031579  -0.000460   0.422483
     2  C    0.502403   4.997197   0.437459  -0.000462  -0.019659  -0.044233
     3  C   -0.032541   0.437459   5.184828   0.461918  -0.071912  -0.037148
     4  C   -0.031579  -0.000462   0.461918   4.773083   0.423160  -0.051169
     5  C   -0.000460  -0.019659  -0.071912   0.423160   4.771829   0.456255
     6  C    0.422483  -0.044233  -0.037148  -0.051169   0.456255   5.245151
     7  N   -0.000375   0.005653  -0.095334   0.297640  -0.034643   0.011326
     8  C    0.008146  -0.000283   0.012998  -0.022376   0.442739  -0.109975
     9  C   -0.000481  -0.000152   0.004719  -0.105970  -0.016432   0.012622
    10  H    0.000001  -0.000033  -0.004107  -0.027519   0.006509  -0.000127
    11  H    0.000003   0.000004  -0.000113   0.006499  -0.032390  -0.005204
    12  H    0.000004   0.000001  -0.000094   0.005438   0.001163  -0.000153
    13  H   -0.038064   0.369101  -0.035401   0.002247   0.000804   0.003641
    14  H    0.003835  -0.036197   0.360020  -0.036815   0.004021   0.000348
    15  H    0.367216  -0.037665   0.004022   0.000804   0.002231  -0.037722
    16  H   -0.042489   0.003619   0.000341   0.004531  -0.034744   0.366547
               7          8          9         10         11         12
     1  C   -0.000375   0.008146  -0.000481   0.000001   0.000003   0.000004
     2  C    0.005653  -0.000283  -0.000152  -0.000033   0.000004   0.000001
     3  C   -0.095334   0.012998   0.004719  -0.004107  -0.000113  -0.000094
     4  C    0.297640  -0.022376  -0.105970  -0.027519   0.006499   0.005438
     5  C   -0.034643   0.442739  -0.016432   0.006509  -0.032390   0.001163
     6  C    0.011326  -0.109975   0.012622  -0.000127  -0.005204  -0.000153
     7  N    6.956985  -0.070625   0.297886   0.327604   0.003808  -0.045403
     8  C   -0.070625   5.059724   0.542232   0.004373   0.371906  -0.026401
     9  C    0.297886   0.542232   4.969579  -0.029338  -0.047014   0.375358
    10  H    0.327604   0.004373  -0.029338   0.379573  -0.000083  -0.001797
    11  H    0.003808   0.371906  -0.047014  -0.000083   0.552115  -0.000932
    12  H   -0.045403  -0.026401   0.375358  -0.001797  -0.000932   0.530384
    13  H   -0.000106   0.000007   0.000002  -0.000002   0.000000  -0.000000
    14  H   -0.006075  -0.000245   0.000014   0.002681   0.000001   0.000003
    15  H    0.000001  -0.000148   0.000004  -0.000000  -0.000001  -0.000000
    16  H   -0.000116  -0.005217  -0.000037   0.000003   0.001890  -0.000001
              13         14         15         16
     1  C   -0.038064   0.003835   0.367216  -0.042489
     2  C    0.369101  -0.036197  -0.037665   0.003619
     3  C   -0.035401   0.360020   0.004022   0.000341
     4  C    0.002247  -0.036815   0.000804   0.004531
     5  C    0.000804   0.004021   0.002231  -0.034744
     6  C    0.003641   0.000348  -0.037722   0.366547
     7  N   -0.000106  -0.006075   0.000001  -0.000116
     8  C    0.000007  -0.000245  -0.000148  -0.005217
     9  C    0.000002   0.000014   0.000004  -0.000037
    10  H   -0.000002   0.002681  -0.000000   0.000003
    11  H    0.000000   0.000001  -0.000001   0.001890
    12  H   -0.000000   0.000003  -0.000000  -0.000001
    13  H    0.575423  -0.004039  -0.005147  -0.000128
    14  H   -0.004039   0.588074  -0.000139   0.000012
    15  H   -0.005147  -0.000139   0.569487  -0.004361
    16  H   -0.000128   0.000012  -0.004361   0.575327
 Mulliken charges:
               1
     1  C   -0.131573
     2  C   -0.176755
     3  C   -0.189658
     4  C    0.300569
     5  C    0.101529
     6  C   -0.232643
     7  N   -0.648225
     8  C   -0.206856
     9  C   -0.002992
    10  H    0.342261
    11  H    0.149511
    12  H    0.162431
    13  H    0.131662
    14  H    0.124498
    15  H    0.141418
    16  H    0.134822
 Sum of Mulliken charges =  -0.00000
 Mulliken charges with hydrogens summed into heavy atoms:
               1
     1  C    0.009845
     2  C   -0.045093
     3  C   -0.065160
     4  C    0.300569
     5  C    0.101529
     6  C   -0.097820
     7  N   -0.305964
     8  C   -0.057345
     9  C    0.159439
 Electronic spatial extent (au):  <R**2>=           1007.2808
 Charge=             -0.0000 electrons
 Dipole moment (field-independent basis, Debye):
    X=              1.7018    Y=             -1.3309    Z=              0.0005  Tot=              2.1604
 Quadrupole moment (field-independent basis, Debye-Ang):
   XX=            -44.5230   YY=            -44.0593   ZZ=            -56.7689
   XY=             -3.9277   XZ=              0.0012   YZ=             -0.0016
 Traceless Quadrupole moment (field-independent basis, Debye-Ang):
   XX=              3.9274   YY=              4.3911   ZZ=             -8.3185
   XY=             -3.9277   XZ=              0.0012   YZ=             -0.0016
 Octapole moment (field-independent basis, Debye-Ang**2):
  XXX=             12.8279  YYY=            -10.0847  ZZZ=              0.0001  XYY=              9.8972
  XXY=             -5.9781  XXZ=              0.0044  XZZ=              2.0732  YZZ=             -1.4122
  YYZ=              0.0008  XYZ=             -0.0037
 Hexadecapole moment (field-independent basis, Debye-Ang**3):
 XXXX=           -797.3636 YYYY=           -367.8296 ZZZZ=            -58.5345 XXXY=            -24.9496
 XXXZ=              0.0090 YYYX=            -19.9803 YYYZ=             -0.0029 ZZZX=             -0.0003
 ZZZY=              0.0039 XXYY=           -190.3974 XXZZ=           -177.6563 YYZZ=            -88.6952
 XXYZ=             -0.0052 YYXZ=              0.0022 ZZXY=             -3.7984
 N-N= 3.998740742801D+02 E-N=-1.642015401231D+03  KE= 3.595976004010D+02
 Unable to Open any file for archive entry.
 1\1\GINC-COMET-10-09\FOpt\RLC-BLYP TD-FC\6-31G(d)\C8H7N1\SCAPARAS\29-J
 un-2020\0\\# td=(nstates=6, root=1) LC-BLYP/6-31G(d) Opt density=curre
 nt\\ImpLC-BLYP\\0,1\C,-2.1428560324,0.6730417924,0.0001150522\C,-2.140
 9510155,-0.731054179,0.0001069303\C,-0.9289902287,-1.445129629,0.00002
 16475\C,0.2453465096,-0.6749110168,-0.0000163787\C,0.2597578888,0.7736
 849705,-0.0000029248\C,-0.9617035315,1.4511775022,0.0000321429\N,1.530
 583448,-1.0644442294,-0.0000130608\C,1.6309485675,1.1649321492,-0.0001
 388344\C,2.3949567821,0.044724112,0.0003058489\H,1.8339036034,-2.02678
 33875,0.0003325001\H,1.9997243769,2.180786281,-0.0003033828\H,3.464436
 869,-0.0918099078,0.0004131025\H,-3.0841465209,-1.2629068989,0.0001346
 201\H,-0.8977491562,-2.5275845299,-0.0000383491\H,-3.0980407674,1.1880
 35355,0.0001527092\H,-1.0120207927,2.5325616159,0.0000183769\\Version=
 ES64L-G16RevC.01\State=1-A\HF=-362.7146177\RMSD=4.811e-09\RMSF=5.994e-
 05\Dipole=0.6695231,-0.5236301,0.0002069\Quadrupole=2.9199164,3.264663
 3,-6.1845796,-2.9201757,0.0009041,-0.0012255\PG=C01 [X(C8H7N1)]\\@
 The archive entry for this job was punched.


 EVERYTHING'S GOT A MORAL, IF ONLY YOU CAN FIND IT.

                                    -- LEWIS CARROL, ALICE IN WONDERLAND
 Job cpu time:       0 days  1 hours  0 minutes 49.7 seconds.
 Elapsed time:       0 days  0 hours 30 minutes 25.9 seconds.
 File lengths (MBytes):  RWF=    205 Int=      0 D2E=      0 Chk=      8 Scr=      1
 Normal termination of Gaussian 16 at Mon Jun 29 09:22:01 2020.
