
Running Job 1 of 1 indole-tddft-CAM-B3LYP-2.in
qchem indole-tddft-CAM-B3LYP-2.in_103864.0 /scratch/scaparas/job_3320014/qchem103864/ 0
/cm/shared/apps/spack/cpu/opt/spack/linux-centos8-zen2/gcc-10.2.0/qchem-5.3-5qddma6gy34jvefiv7mbcb7qm253n45r/exe/qcprog.exe_s indole-tddft-CAM-B3LYP-2.in_103864.0 /scratch/scaparas/job_3320014/qchem103864/
                  Welcome to Q-Chem
     A Quantum Leap Into The Future Of Chemistry


 Q-Chem 5.3, Q-Chem, Inc., Pleasanton, CA (2020)

 License issued to: University of California, San Diego (site)

 Yihan Shao,  Zhengting Gan,  E. Epifanovsky,  A. T. B. Gilbert,  M. Wormit,  
 J. Kussmann,  A. W. Lange,  A. Behn,  Jia Deng,  Xintian Feng,  D. Ghosh,  
 M. Goldey,  P. R. Horn,  L. D. Jacobson,  I. Kaliman,  T. Kus,  A. Landau,  
 Jie Liu,  E. I. Proynov,  R. M. Richard,  R. P. Steele,  E. J. Sundstrom,  
 H. L. Woodcock III,  P. M. Zimmerman,  D. Zuev,  B. Alam,  B. Albrecht,  
 A. Aldossary,  E. Alguire,  S. A. Baeppler,  D. Barton,  Z. Benda,  
 Y. A. Bernard,  E. J. Berquist,  K. B. Bravaya,  H. Burton,  K. Carter-Fenk,  
 D. Casanova,  Chun-Min Chang,  Yunqing Chen,  A. Chien,  K. D. Closser,  
 M. P. Coons,  S. Coriani,  S. Dasgupta,  A. L. Dempwolff,  M. Diedenhofen,  
 Hainam Do,  R. G. Edgar,  Po-Tung Fang,  S. Faraji,  S. Fatehi,  
 Qingguo Feng,  J. Fosso-Tande,  J. Gayvert,  Qinghui Ge,  A. Ghysels,  
 G. Gidofalvi,  J. Gomes,  J. Gonthier,  S. Gulania,  A. Gunina,  D. Hait,  
 M. W. D. Hanson-Heine,  S. Hammes-Schiffer,  P. H. P. Harbach,  
 A. W. Hauser,  M. F. Herbst,  J. E. Herr,  E. G. Hohenstein,  Z. C. Holden,  
 S. Houck,  Kerwin Hui,  B. C. Huynh,  M. Ivanov,  T.-C. Jagau,  Hyunjun Ji,  
 B. Kaduk,  K. Khistyaev,  Jaehoon Kim,  P. Klunzinger,  K. Koh,  
 D. Kosenkov,  L. Koulias,  T. Kowalczyk,  C. M. Krauter,  A. Kunitsa,  
 Ka Un Lao,  A. Laurent,  K. V. Lawler,  Joonho Lee,  D. Lefrancois,  
 S. Lehtola,  D. S. Levine,  Yi-Pei Li,  You-Sheng Lin,  Fenglai Liu,  
 Kuan-Yu Liu,  E. Livshits,  M. Loipersberger,  A. Luenser,  P. Manohar,  
 E. Mansoor,  S. F. Manzer,  Shan-Ping Mao,  Yuezhi Mao,  N. Mardirossian,  
 A. V. Marenich,  T. Markovich,  L. A. Martinez-Martinez,  S. A. Maurer,  
 N. J. Mayhall,  S. C. McKenzie,  J.-M. Mewes,  P. Morgante,  A. F. Morrison,  
 J. W. Mullinax,  K. Nanda,  T. S. Nguyen-Beck,  R. Olivares-Amaya,  
 K. J. Oosterbaan,  J. A. Parkhill,  S. K. Paul,  F. Pavosevic,  Zheng Pei,  
 T. M. Perrine,  F. Plasser,  P. Pokhilko,  S. Prager,  A. Prociuk,  
 E. Ramos,  B. Rana,  D. R. Rehn,  F. Rob,  E. Rossomme,  M. Scheurer,  
 M. Schneider,  N. Sergueev,  S. M. Sharada,  S. Sharma,  W. Skomorowski,  
 D. W. Small,  T. Stauch,  C. J. Stein,  T. Stein,  Yu-Chuan Su,  
 S. P. Veccham,  Zhen Tao,  A. J. W. Thom,  A. Tkatchenko,  T. Tsuchimochi,  
 N. M. Tubman,  L. Vogt,  M. L. Vidal,  O. Vydrov,  M. A. Watson,  J. Wenzel,  
 M. de Wergifosse,  T. A. Wesolowski,  A. White,  J. Witte,  A. Yamada,  
 Jun Yang,  K. Yao,  S. Yeganeh,  S. R. Yost,  Zhi-Qiang You,  A. Zech,  
 Igor Ying Zhang,  Xing Zhang,  Yan Zhao,  Ying Zhu,  B. R. Brooks,  
 G. K. L. Chan,  C. J. Cramer,  M. S. Gordon,  W. J. Hehre,  A. Klamt,  
 M. W. Schmidt,  C. D. Sherrill,  D. G. Truhlar,  A. Aspuru-Guzik,  R. Baer,  
 A. T. Bell,  N. A. Besley,  Jeng-Da Chai,  A. E. DePrince, III,  
 R. A. DiStasio Jr.,  A. Dreuw,  B. D. Dunietz,  T. R. Furlani,  
 Chao-Ping Hsu,  Yousung Jung,  Jing Kong,  D. S. Lambrecht,  WanZhen Liang,  
 C. Ochsenfeld,  V. A. Rassolov,  L. V. Slipchenko,  J. E. Subotnik,  
 T. Van Voorhis,  J. M. Herbert,  A. I. Krylov,  P. M. W. Gill,  M. Head-Gordon

 Contributors to earlier versions of Q-Chem not listed above: 
 R. D. Adamson,  B. Austin,  J. Baker,  G. J. O. Beran,  K. Brandhorst,  
 S. T. Brown,  E. F. C. Byrd,  A. K. Chakraborty,  C.-L. Cheng,  
 Siu Hung Chien,  D. M. Chipman,  D. L. Crittenden,  H. Dachsel,  
 R. J. Doerksen,  A. D. Dutoi,  L. Fusti-Molnar,  W. A. Goddard III,  
 A. Golubeva-Zadorozhnaya,  S. R. Gwaltney,  G. Hawkins,  A. Heyden,  
 S. Hirata,  G. Kedziora,  F. J. Keil,  C. Kelley,  Jihan Kim,  R. A. King,  
 R. Z. Khaliullin,  P. P. Korambath,  W. Kurlancheek,  A. M. Lee,  M. S. Lee,  
 S. V. Levchenko,  Ching Yeh Lin,  D. Liotard,  R. C. Lochan,  I. Lotan,  
 P. E. Maslen,  N. Nair,  D. P. O'Neill,  D. Neuhauser,  E. Neuscamman,  
 C. M. Oana,  R. Olson,  B. Peters,  R. Peverati,  P. A. Pieniazek,  
 Y. M. Rhee,  J. Ritchie,  M. A. Rohrdanz,  E. Rosta,  N. J. Russ,  
 H. F. Schaefer III,  N. E. Schultz,  N. Shenvi,  A. C. Simmonett,  A. Sodt,  
 D. Stuck,  K. S. Thanthiriwatte,  V. Vanovschi,  Tao Wang,  A. Warshel,  
 C. F. Williams,  Q. Wu,  X. Xu,  W. Zhang

 Please cite Q-Chem as follows:
 Y. Shao et al., Mol. Phys. 113, 184-215 (2015)
 DOI: 10.1080/00268976.2014.952696

 Q-Chem 5.3.1 for Intel X86 EM64T Linux

 Parts of Q-Chem use Armadillo 9.800.1 (Horizon Scraper).
 http://arma.sourceforge.net/

 Q-Chem begins on Wed Jun  9 11:14:33 2021  

Host: 
0

     Scratch files written to /scratch/scaparas/job_3320014/qchem103864//
 Aug2920 |scratch|qcdevops|jenkins|workspace|build_RNUM    
Processing $rem in /cm/shared/apps/spack/cpu/opt/spack/linux-centos8-zen2/gcc-10.2.0/qchem-5.3-5qddma6gy34jvefiv7mbcb7qm253n45r/config/preferences:
Processing $rem in /home/scaparas/.qchemrc:

Checking the input file for inconsistencies... 	...done.

--------------------------------------------------------------
User input:
--------------------------------------------------------------
$molecule
0 1
C         2.1665374654   -0.6554056232    0.0000000000
C         2.1169746126    0.7536230414    0.0000000000
C         0.9078293763    1.4297941068    0.0000000000
C        -0.2602955279    0.6603427264    0.0000000000
N        -1.5823227859    1.0465645945    0.0000000000
H        -1.9138448994    1.9970952131    0.0000000000
C        -2.3831006726   -0.0753467300    0.0000000000
C        -1.6031102305   -1.1965127142    0.0000000000
C        -0.2354025284   -0.7544080528    0.0000000000
C         1.0061117308   -1.4110304737    0.0000000000
H         3.1323502333   -1.1522732729    0.0000000000
H         3.0445811710    1.3187694778    0.0000000000
H         0.8711978004    2.5159935936    0.0000000000
H        -3.4599415153    0.0224367365    0.0000000000
H        -1.9589772753   -2.2174458375    0.0000000000
H         1.0526344532   -2.4968312448    0.0000000000
$end

$rem
BASIS  =  6-31+G*
GUI  =  2
JOB_TYPE  =  Optimization
METHOD  = CAM-B3LYP
SCF_CONVERGENCE  =  8
THRESH = 12
CIS_N_ROOTS  = 3
CIS_SINGLETS = true
CIS_TRIPLETS = false
CIS_STATE_DERIV = 2
$end
--------------------------------------------------------------
 ----------------------------------------------------------------
             Standard Nuclear Orientation (Angstroms)
    I     Atom           X                Y                Z
 ----------------------------------------------------------------
    1      C       2.1545809193    -0.6917179572    -0.0000000000
    2      C       2.1305971189     0.7179781205     0.0000000000
    3      C       0.9339220871     1.4159812583     0.0000000000
    4      C      -0.2479743579     0.6678555924     0.0000000000
    5      N      -1.5627747859     1.0780058536     0.0000000000
    6      H      -1.8769921819     2.0343963579     0.0000000000
    7      C      -2.3837811130    -0.0291882824    -0.0000000000
    8      C      -1.6242659160    -1.1643248026    -0.0000000000
    9      C      -0.2487601923    -0.7471139518    -0.0000000000
   10      C       0.9806332983    -1.4261590938    -0.0000000000
   11      H       3.1112175340    -1.2060312385    -0.0000000000
   12      H       3.0683071256     1.2661973878     0.0000000000
   13      H       0.9170087673     2.5026666484     0.0000000000
   14      H      -3.4586700515     0.0881214642    -0.0000000000
   15      H      -1.9986021312    -2.1786315579    -0.0000000000
   16      H       1.0074433715    -2.5126253373    -0.0000000000
 ----------------------------------------------------------------
 Molecular Point Group                 Cs    NOp =  2
 Largest Abelian Subgroup              Cs    NOp =  2
 Nuclear Repulsion Energy =         400.72813817 hartrees
 There are       31 alpha and       31 beta electrons
 Requested basis set is 6-31+G(d)
 There are 59 shells and 185 basis functions

 Total QAlloc Memory Limit   8000 MB
 Mega-Array Size       188 MB
 MEM_STATIC part       192 MB
 A cutoff of  1.0D-12 yielded   1657 shell pairs
 There are     17105 function pairs
 Smallest overlap matrix eigenvalue = 1.29E-06

 Scale SEOQF with 1.000000e-01/1.000000e-01/1.000000e-01

 Standard Electronic Orientation quadrupole field applied
 Nucleus-field energy     =     0.0000000117 hartrees
 Guess from superposition of atomic densities
 Warning:  Energy on first SCF cycle will be non-variational
 SAD guess density has 62.000000 electrons

 -----------------------------------------------------------------------
  General SCF calculation program by
  Eric Jon Sundstrom, Paul Horn, Yuezhi Mao, Dmitri Zuev, Alec White,
  David Stuck, Shaama M.S., Shane Yost, Joonho Lee, David Small,
  Daniel Levine, Susi Lehtola, Hugh Burton, Evgeny Epifanovsky,
  Bang C. Huynh
 -----------------------------------------------------------------------
 Exchange:     0.1900 Hartree-Fock + 0.3500 B88 + 0.4600 muB88 + LR-HF
 Correlation:  0.1900 VWN5 + 0.8100 LYP
 Using SG-1 standard quadrature grid
 using 4 threads for integral computing
 -------------------------------------------------------
 OpenMP Integral computing Module                
 Release: version 1.0, May 2013, Q-Chem Inc. Pittsburgh 
 -------------------------------------------------------
 using 4 threads for integral computing
 -------------------------------------------------------
 OpenMP Integral computing Module                
 Release: version 1.0, May 2013, Q-Chem Inc. Pittsburgh 
 -------------------------------------------------------
 A restricted SCF calculation will be
 performed using DIIS
 SCF converges when DIIS error is below 1.0e-08
 ---------------------------------------
  Cycle       Energy         DIIS error
 ---------------------------------------
    1    -366.4824638443      5.56e-02  
    2    -363.5429160345      3.97e-03  
    3    -363.5698162942      3.46e-03  
    4    -363.6225800087      7.11e-04  
    5    -363.6243191267      3.40e-04  
    6    -363.6247948270      5.13e-05  
    7    -363.6248051453      2.10e-05  
    8    -363.6248072074      3.90e-06  
    9    -363.6248073608      2.09e-06  
   10    -363.6248073932      7.19e-07  
   11    -363.6248073988      2.77e-07  
   12    -363.6248073993      8.08e-08  
   13    -363.6248073994      3.32e-08  
   14    -363.6248073995      1.60e-08  
   15    -363.6248073995      3.59e-09  Convergence criterion met
 ---------------------------------------
 SCF time:   CPU 63.85s  wall 16.00s 
 SCF   energy in the final basis set =     -363.6248073995
 Total energy in the final basis set =     -363.6248073995
 
 Direct TDDFT/TDA calculation will be performed
 Exchange:     0.1900 Hartree-Fock + 0.3500 B88 + 0.4600 muB88 + LR-HF
 Correlation:  0.1900 VWN5 + 0.8100 LYP
 Using SG-1 standard quadrature grid
 Singlet excitation energies requested
 CIS energy converged when residual is below 10e- 6
 ---------------------------------------------------
 Iter    Rts Conv    Rts Left    Ttl Dev     Max Dev
 ---------------------------------------------------
   1         0           3      0.002301    0.001718
   2         0           3      0.000592    0.000424
   3         0           3      0.000322    0.000210
   4         0           3      0.000180    0.000095
   5         0           3      0.000100    0.000053
   6         0           3      0.000057    0.000029
   7         0           3      0.000053    0.000030
   8         1           2      0.000764    0.000666
   9         1           2      0.000469    0.000325
  10         1           2      0.000172    0.000140
  11         1           2      0.000055    0.000044
  12         1           2      0.000020    0.000016
  13         1           2      0.000008    0.000006
  14         2           1      0.000003    0.000002
  15         3           0      0.000001    0.000001    Roots Converged
 ---------------------------------------------------
 
 ---------------------------------------------------
         TDDFT/TDA Excitation Energies              
 ---------------------------------------------------

 Excited state   1: excitation energy (eV) =    5.1529
 Total energy for state  1:                  -363.43544198 au
    Multiplicity: Singlet
    Trans. Mom.: -0.3480 X  -0.3416 Y  -0.0000 Z
    Strength   :     0.0300161502
    D(   30) --> V(    2) amplitude =  0.7917
    D(   31) --> V(    6) amplitude = -0.5367

 Excited state   2: excitation energy (eV) =    5.2558
 Total energy for state  2:                  -363.43166078 au
    Multiplicity: Singlet
    Trans. Mom.:  0.7737 X  -0.6364 Y   0.0000 Z
    Strength   :     0.1292300802
    D(   30) --> V(    6) amplitude =  0.3139
    D(   31) --> V(    2) amplitude =  0.9074

 Excited state   3: excitation energy (eV) =    5.2863
 Total energy for state  3:                  -363.43053997 au
    Multiplicity: Singlet
    Trans. Mom.: -0.0000 X  -0.0000 Y  -0.1595 Z
    Strength   :     0.0032933260
    D(   31) --> V(    1) amplitude =  0.9711
 
 ---------------------------------------------------
 Calculating Relaxed Density
 ---------------------------------------------------
 Iter    Rts Conv    Rts Left    Ttl Dev     Max Dev
 ---------------------------------------------------
   1         0           3      0.000951    0.000467
   2         0           3      0.000384    0.000198
   3         0           3      0.000113    0.000045
   4         0           3      0.000036    0.000017
   5         0           3      0.000011    0.000005
   6         1           2      0.000003    0.000001
   7         3           0      0.000000    0.000000    Roots Converged
 ---------------------------------------------------
  SETman timing summary (seconds)
  CPU time               234.81s
  System time              0.00s
  Wall time               59.01s
 
 --------------------------------------------------------------
             Orbital Energies (a.u.) and Symmetries
 --------------------------------------------------------------
 
 Alpha MOs, Restricted
 -- Occupied --                  
-14.458 -10.299 -10.296 -10.266 -10.261 -10.261 -10.260 -10.256
  1 A'    2 A'    3 A'    4 A'    5 A'    6 A'    7 A'    8 A'                 
-10.252  -1.069  -0.926  -0.867  -0.818  -0.800  -0.702  -0.671
  9 A'   10 A'   11 A'   12 A'   13 A'   14 A'   15 A'   16 A'                 
 -0.659  -0.615  -0.554  -0.543  -0.507  -0.499  -0.497  -0.481
 17 A'   18 A'   19 A'   20 A'   21 A'   22 A'    1 A"   23 A'                 
 -0.459  -0.422  -0.404  -0.401  -0.341  -0.278  -0.260
 24 A'   25 A'    2 A"   26 A'    3 A"    4 A"    5 A"                         
 -- Virtual --                   
  0.024   0.024   0.043   0.048   0.062   0.063   0.064   0.080
 27 A'    6 A"   28 A'   29 A'   30 A'    7 A"   31 A'    8 A"                 
  0.086   0.091   0.091   0.094   0.113   0.120   0.130   0.132
 32 A'   33 A'    9 A"   34 A'   10 A"   11 A"   35 A'   36 A'                 
  0.141   0.154   0.167   0.168   0.182   0.186   0.194   0.199
 37 A'   12 A"   13 A"   38 A'   39 A'   14 A"   40 A'   15 A"                 
  0.203   0.217   0.218   0.219   0.228   0.235   0.240   0.249
 41 A'   42 A'   43 A'   16 A"   44 A'   45 A'   46 A'   17 A"                 
  0.250   0.260   0.264   0.270   0.273   0.279   0.291   0.296
 47 A'   48 A'   49 A'   50 A'   18 A"   51 A'   52 A'   53 A'                 
  0.308   0.309   0.322   0.337   0.350   0.359   0.360   0.376
 54 A'   55 A'   56 A'   57 A'   58 A'   59 A'   60 A'   61 A'                 
  0.397   0.418   0.428   0.452   0.497   0.505   0.570   0.642
 62 A'   63 A'   64 A'   65 A'   66 A'   67 A'   68 A'   69 A'                 
  0.686   0.729   0.732   0.755   0.773   0.777   0.788   0.793
 70 A'   19 A"   71 A'   20 A"   72 A'   21 A"   73 A'   22 A"                 
  0.800   0.809   0.815   0.834   0.849   0.858   0.874   0.911
 74 A'   23 A"   75 A'   24 A"   25 A"   76 A'   77 A'   26 A"                 
  0.951   0.956   0.968   0.992   0.998   1.010   1.020   1.041
 78 A'   79 A'   80 A'   81 A'   82 A'   83 A'   27 A"   84 A'                 
  1.061   1.087   1.104   1.121   1.155   1.174   1.180   1.231
 85 A'   86 A'   87 A'   88 A'   89 A'   90 A'   91 A'   92 A'                 
  1.243   1.269   1.285   1.310   1.316   1.381   1.397   1.417
 93 A'   94 A'   95 A'   28 A"   96 A'   97 A'   29 A"   30 A"                 
  1.431   1.480   1.492   1.513   1.538   1.544   1.574   1.581
 98 A'   99 A'   31 A"  100 A'   32 A"   33 A"   34 A"   35 A"                 
  1.602   1.654   1.717   1.861   1.917   1.955   1.969   1.991
101 A'  102 A'  103 A'  104 A'  105 A'  106 A'   36 A"  107 A'                 
  2.007   2.064   2.068   2.084   2.139   2.173   2.214   2.246
108 A'  109 A'  110 A'   37 A"  111 A'  112 A'  113 A'  114 A'                 
  2.256   2.269   2.328   2.339   2.345   2.360   2.387   2.461
 38 A"  115 A'   39 A"   40 A"   41 A"  116 A'  117 A'   42 A"                 
  2.487   2.519   2.622   2.640   2.712   2.733   2.748   2.773
 43 A"  118 A'  119 A'   44 A"  120 A'  121 A'   45 A"  122 A'                 
  2.811   2.884   2.920   2.932   3.028   3.055   3.187   3.317
123 A'  124 A'  125 A'  126 A'  127 A'  128 A'  129 A'  130 A'                 
  3.520   4.218   4.323   4.355   4.390   4.426   4.463   4.546
131 A'  132 A'  133 A'  134 A'  135 A'  136 A'  137 A'  138 A'                 
  4.587   4.856
139 A'  140 A'                                                                 
 
 Beta MOs, Restricted
 -- Occupied --                  
-14.458 -10.299 -10.296 -10.266 -10.261 -10.261 -10.260 -10.256
  1 A'    2 A'    3 A'    4 A'    5 A'    6 A'    7 A'    8 A'                 
-10.252  -1.069  -0.926  -0.867  -0.818  -0.800  -0.702  -0.671
  9 A'   10 A'   11 A'   12 A'   13 A'   14 A'   15 A'   16 A'                 
 -0.659  -0.615  -0.554  -0.543  -0.507  -0.499  -0.497  -0.481
 17 A'   18 A'   19 A'   20 A'   21 A'   22 A'    1 A"   23 A'                 
 -0.459  -0.422  -0.404  -0.401  -0.341  -0.278  -0.260
 24 A'   25 A'    2 A"   26 A'    3 A"    4 A"    5 A"                         
 -- Virtual --                   
  0.024   0.024   0.043   0.048   0.062   0.063   0.064   0.080
 27 A'    6 A"   28 A'   29 A'   30 A'    7 A"   31 A'    8 A"                 
  0.086   0.091   0.091   0.094   0.113   0.120   0.130   0.132
 32 A'   33 A'    9 A"   34 A'   10 A"   11 A"   35 A'   36 A'                 
  0.141   0.154   0.167   0.168   0.182   0.186   0.194   0.199
 37 A'   12 A"   13 A"   38 A'   39 A'   14 A"   40 A'   15 A"                 
  0.203   0.217   0.218   0.219   0.228   0.235   0.240   0.249
 41 A'   42 A'   43 A'   16 A"   44 A'   45 A'   46 A'   17 A"                 
  0.250   0.260   0.264   0.270   0.273   0.279   0.291   0.296
 47 A'   48 A'   49 A'   50 A'   18 A"   51 A'   52 A'   53 A'                 
  0.308   0.309   0.322   0.337   0.350   0.359   0.360   0.376
 54 A'   55 A'   56 A'   57 A'   58 A'   59 A'   60 A'   61 A'                 
  0.397   0.418   0.428   0.452   0.497   0.505   0.570   0.642
 62 A'   63 A'   64 A'   65 A'   66 A'   67 A'   68 A'   69 A'                 
  0.686   0.729   0.732   0.755   0.773   0.777   0.788   0.793
 70 A'   19 A"   71 A'   20 A"   72 A'   21 A"   73 A'   22 A"                 
  0.800   0.809   0.815   0.834   0.849   0.858   0.874   0.911
 74 A'   23 A"   75 A'   24 A"   25 A"   76 A'   77 A'   26 A"                 
  0.951   0.956   0.968   0.992   0.998   1.010   1.020   1.041
 78 A'   79 A'   80 A'   81 A'   82 A'   83 A'   27 A"   84 A'                 
  1.061   1.087   1.104   1.121   1.155   1.174   1.180   1.231
 85 A'   86 A'   87 A'   88 A'   89 A'   90 A'   91 A'   92 A'                 
  1.243   1.269   1.285   1.310   1.316   1.381   1.397   1.417
 93 A'   94 A'   95 A'   28 A"   96 A'   97 A'   29 A"   30 A"                 
  1.431   1.480   1.492   1.513   1.538   1.544   1.574   1.581
 98 A'   99 A'   31 A"  100 A'   32 A"   33 A"   34 A"   35 A"                 
  1.602   1.654   1.717   1.861   1.917   1.955   1.969   1.991
101 A'  102 A'  103 A'  104 A'  105 A'  106 A'   36 A"  107 A'                 
  2.007   2.064   2.068   2.084   2.139   2.173   2.214   2.246
108 A'  109 A'  110 A'   37 A"  111 A'  112 A'  113 A'  114 A'                 
  2.256   2.269   2.328   2.339   2.345   2.360   2.387   2.461
 38 A"  115 A'   39 A"   40 A"   41 A"  116 A'  117 A'   42 A"                 
  2.487   2.519   2.622   2.640   2.712   2.733   2.748   2.773
 43 A"  118 A'  119 A'   44 A"  120 A'  121 A'   45 A"  122 A'                 
  2.811   2.884   2.920   2.932   3.028   3.055   3.187   3.317
123 A'  124 A'  125 A'  126 A'  127 A'  128 A'  129 A'  130 A'                 
  3.520   4.218   4.323   4.355   4.390   4.426   4.463   4.546
131 A'  132 A'  133 A'  134 A'  135 A'  136 A'  137 A'  138 A'                 
  4.587   4.856
139 A'  140 A'                                                                 
 --------------------------------------------------------------
 
          Ground-State Mulliken Net Atomic Charges

     Atom                 Charge (a.u.)
  ----------------------------------------
      1 C                     0.016436
      2 C                    -0.459477
      3 C                    -0.129156
      4 C                    -0.787418
      5 N                    -0.533898
      6 H                     0.418802
      7 C                    -0.251917
      8 C                     0.117058
      9 C                     1.165758
     10 C                    -0.682390
     11 H                     0.179662
     12 H                     0.180825
     13 H                     0.183963
     14 H                     0.197973
     15 H                     0.195817
     16 H                     0.187962
  ----------------------------------------
  Sum of atomic charges =     0.000000

 -----------------------------------------------------------------
                    Cartesian Multipole Moments
 -----------------------------------------------------------------
    Charge (ESU x 10^10)
                -0.0000
    Dipole Moment (Debye)
         X      -1.4792      Y       1.5658      Z      -0.0000
       Tot       2.1540
    Quadrupole Moments (Debye-Ang)
        XX     -45.6747     XY      -3.1880     YY     -44.7071
        XZ       0.0000     YZ       0.0000     ZZ     -58.9873
    Octopole Moments (Debye-Ang^2)
       XXX     -14.7804    XXY       8.3845    XYY      -8.0269
       YYY      10.6012    XXZ       0.0000    XYZ       0.0000
       YYZ      -0.0000    XZZ      -2.0282    YZZ       2.0600
       ZZZ      -0.0000
    Hexadecapole Moments (Debye-Ang^3)
      XXXX    -823.1752   XXXY     -21.9964   XXYY    -198.4946
      XYYY     -19.9870   YYYY    -373.8730   XXXZ      -0.0000
      XXYZ       0.0000   XYYZ      -0.0000   YYYZ      -0.0000
      XXZZ    -190.6442   XYZZ      -4.0509   YYZZ     -94.6451
      XZZZ       0.0000   YZZZ       0.0000   ZZZZ     -74.5127
 -----------------------------------------------------------------
 Calculating analytic gradient of the CIS energy
 CIS relaxed dipole moment
            1
    1  -1.6898968
    2   0.5600897
    3   0.0000000
	Magnitude:	 1.780 au	 4.525 Debye
 CIS 2 State Energy is -363.4316607792
 Gradient of the state energy (including CIS Excitation Energy)
            1           2           3           4           5           6
    1  -0.0233662  -0.0341109   0.0372563  -0.0171734   0.0243347   0.0020387
    2  -0.0298053   0.0378713  -0.0298876   0.0107946   0.0230532  -0.0029348
    3  -0.0000000   0.0000000  -0.0000000   0.0000000   0.0000000  -0.0000000
            7           8           9          10          11          12
    1   0.0254566  -0.0452996   0.0210186   0.0081015   0.0003842   0.0002577
    2  -0.0549771   0.0193380  -0.0048954   0.0322496  -0.0008323   0.0003910
    3  -0.0000000  -0.0000000  -0.0000000   0.0000000  -0.0000000   0.0000000
           13          14          15          16
    1   0.0006267  -0.0002906   0.0005209   0.0002448
    2   0.0006688  -0.0001982  -0.0002559  -0.0005800
    3   0.0000000   0.0000000   0.0000000  -0.0000000
 Gradient time:  CPU 40.16 s  wall 10.09 s
 Geometry Optimization Parameters
   NAtoms,    NIC,     NZ,  NCons,   NDum,   NFix, NCnnct, MaxDiis
       16     116       0       0       0       0       0       0


** GEOMETRY OPTIMIZATION IN DELOCALIZED INTERNAL COORDINATES **
   Searching for a Minimum

   Optimization Cycle:   1

                       Coordinates (Angstroms)
     ATOM                X               Y               Z
      1  C         2.1545809193   -0.6917179572    0.0000000000
      2  C         2.1305971189    0.7179781205    0.0000000000
      3  C         0.9339220871    1.4159812583    0.0000000000
      4  C        -0.2479743579    0.6678555924    0.0000000000
      5  N        -1.5627747859    1.0780058536    0.0000000000
      6  H        -1.8769921819    2.0343963579    0.0000000000
      7  C        -2.3837811130   -0.0291882824    0.0000000000
      8  C        -1.6242659160   -1.1643248026    0.0000000000
      9  C        -0.2487601923   -0.7471139518    0.0000000000
     10  C         0.9806332983   -1.4261590938    0.0000000000
     11  H         3.1112175340   -1.2060312385    0.0000000000
     12  H         3.0683071256    1.2661973878    0.0000000000
     13  H         0.9170087673    2.5026666484    0.0000000000
     14  H        -3.4586700515    0.0881214642    0.0000000000
     15  H        -1.9986021312   -2.1786315579    0.0000000000
     16  H         1.0074433715   -2.5126253373    0.0000000000
   Point Group: cs    Number of degrees of freedom:    29


   Energy is   -363.431660779


 Attempting to generate delocalized internal coordinates
 Initial Hessian constructed with Jon Baker's OPTIMIZE code

 29 Hessian modes will be used to form the next step
  Hessian Eigenvalues:
     0.160000    0.160000    0.160000    0.160000    0.160000    0.160000
     0.160000    0.220000    0.221874    0.226615    0.240154    0.246535
     0.351831    0.351854    0.352547    0.352641    0.358411    0.358524
     0.370243    0.381736    0.421745    0.429383    0.450758    0.465320
     0.465358    0.471677    0.475377    0.478120    0.507735

 Minimum search - taking simple RFO step
 Searching for Lamda that Minimizes Along All modes
 Value Taken    Lamda =  -0.01444593
 Step Taken.  Stepsize is  0.182766

                             Maximum     Tolerance    Cnvgd?
         Gradient           0.029300      0.000300      NO
         Displacement       0.069294      0.001200      NO
         Energy change     *********      0.000001      NO


 New Cartesian Coordinates Obtained by Inverse Iteration

 Displacement from previous Coordinates is:  0.228770
 ----------------------------------------------------------------
             Standard Nuclear Orientation (Angstroms)
    I     Atom           X                Y                Z
 ----------------------------------------------------------------
    1      C       2.1855822032    -0.6945981984     0.0000000000
    2      C       2.1481459902     0.7001083225     0.0000000000
    3      C       0.9141558776     1.4253246904     0.0000000000
    4      C      -0.2548541408     0.6584436344     0.0000000000
    5      N      -1.5892341905     1.0731592236     0.0000000000
    6      H      -1.9007658797     2.0344000696     0.0000000000
    7      C      -2.4163622962     0.0036008725     0.0000000000
    8      C      -1.6065746124    -1.1487512338     0.0000000000
    9      C      -0.2432966589    -0.7545202030     0.0000000000
   10      C       0.9956365961    -1.4597749174     0.0000000000
   11      H       3.1485656251    -1.1946409459     0.0000000000
   12      H       3.0842152621     1.2499295843     0.0000000000
   13      H       0.8861502655     2.5108276913     0.0000000000
   14      H      -3.4908714821     0.1208947186     0.0000000000
   15      H      -1.9793102154    -2.1635560801     0.0000000000
   16      H       1.0207071488    -2.5454367670     0.0000000000
 ----------------------------------------------------------------
 Molecular Point Group                 Cs    NOp =  2
 Largest Abelian Subgroup              Cs    NOp =  2
 Nuclear Repulsion Energy =         398.37583519 hartrees
 There are       31 alpha and       31 beta electrons
 Applying Cartesian multipole field
    Component          Value
    ---------          -----
     (2,0,0)        1.00000E-11
     (0,2,0)        2.00000E-11
     (0,0,2)       -3.00000E-11
 Nucleus-field energy     =     0.0000000119 hartrees
 Requested basis set is 6-31+G(d)
 There are 59 shells and 185 basis functions
 A cutoff of  1.0D-12 yielded   1657 shell pairs
 There are     17105 function pairs
 Smallest overlap matrix eigenvalue = 1.29E-06
 Guess MOs from SCF MO coefficient file

 -----------------------------------------------------------------------
  General SCF calculation program by
  Eric Jon Sundstrom, Paul Horn, Yuezhi Mao, Dmitri Zuev, Alec White,
  David Stuck, Shaama M.S., Shane Yost, Joonho Lee, David Small,
  Daniel Levine, Susi Lehtola, Hugh Burton, Evgeny Epifanovsky,
  Bang C. Huynh
 -----------------------------------------------------------------------
 Exchange:     0.1900 Hartree-Fock + 0.3500 B88 + 0.4600 muB88 + LR-HF
 Correlation:  0.1900 VWN5 + 0.8100 LYP
 Using SG-1 standard quadrature grid
 using 4 threads for integral computing
 -------------------------------------------------------
 OpenMP Integral computing Module                
 Release: version 1.0, May 2013, Q-Chem Inc. Pittsburgh 
 -------------------------------------------------------
 using 4 threads for integral computing
 -------------------------------------------------------
 OpenMP Integral computing Module                
 Release: version 1.0, May 2013, Q-Chem Inc. Pittsburgh 
 -------------------------------------------------------
 A restricted SCF calculation will be
 performed using DIIS
 SCF converges when DIIS error is below 1.0e-08
 ---------------------------------------
  Cycle       Energy         DIIS error
 ---------------------------------------
    1    -363.6140302690      8.38e-04  
    2    -363.6179184215      1.91e-04  
    3    -363.6180624523      1.40e-04  
    4    -363.6181438726      4.05e-05  
    5    -363.6181524173      1.77e-05  
    6    -363.6181549001      6.81e-06  
    7    -363.6181553330      2.28e-06  
    8    -363.6181553989      7.98e-07  
    9    -363.6181554048      2.06e-07  
   10    -363.6181554051      9.82e-08  
   11    -363.6181554052      2.34e-08  
   12    -363.6181554052      1.41e-08  
   13    -363.6181554052      4.07e-09  Convergence criterion met
 ---------------------------------------
 SCF time:   CPU 53.45s  wall 14.00s 
 SCF   energy in the final basis set =     -363.6181554052
 Total energy in the final basis set =     -363.6181554052
 
 Direct TDDFT/TDA calculation will be performed
 Exchange:     0.1900 Hartree-Fock + 0.3500 B88 + 0.4600 muB88 + LR-HF
 Correlation:  0.1900 VWN5 + 0.8100 LYP
 Using SG-1 standard quadrature grid
 Singlet excitation energies requested
 CIS energy converged when residual is below 10e- 6
 ---------------------------------------------------
 Iter    Rts Conv    Rts Left    Ttl Dev     Max Dev
 ---------------------------------------------------
   1         0           3      0.002332    0.001766
   2         0           3      0.000537    0.000377
   3         0           3      0.000280    0.000174
   4         0           3      0.000160    0.000076
   5         0           3      0.000088    0.000051
   6         0           3      0.000063    0.000035
   7         0           3      0.000932    0.000903
   8         1           2      0.000463    0.000434
   9         1           2      0.000198    0.000182
  10         1           2      0.000081    0.000074
  11         1           2      0.000028    0.000026
  12         1           2      0.000015    0.000013
  13         2           1      0.000005    0.000004
  14         2           1      0.000002    0.000001
  15         3           0      0.000001    0.000001    Roots Converged
 ---------------------------------------------------
 
 ---------------------------------------------------
         TDDFT/TDA Excitation Energies              
 ---------------------------------------------------

 Excited state   1: excitation energy (eV) =    4.8502
 Total energy for state  1:                  -363.43991521 au
    Multiplicity: Singlet
    Trans. Mom.: -0.9514 X   0.7617 Y  -0.0000 Z
    Strength   :     0.1765077554
    D(   30) --> V(    6) amplitude = -0.2359
    D(   31) --> V(    1) amplitude =  0.9270

 Excited state   2: excitation energy (eV) =    5.0048
 Total energy for state  2:                  -363.43423056 au
    Multiplicity: Singlet
    Trans. Mom.:  0.0000 X  -0.0000 Y  -0.1707 Z
    Strength   :     0.0035722199
    D(   31) --> V(    2) amplitude =  0.9748

 Excited state   3: excitation energy (eV) =    5.0457
 Total energy for state  3:                  -363.43272758 au
    Multiplicity: Singlet
    Trans. Mom.: -0.1067 X  -0.3131 Y   0.0000 Z
    Strength   :     0.0135218587
    D(   30) --> V(    1) amplitude = -0.7549
    D(   31) --> V(    6) amplitude = -0.5847
 
 ---------------------------------------------------
 Calculating Relaxed Density
 ---------------------------------------------------
 Iter    Rts Conv    Rts Left    Ttl Dev     Max Dev
 ---------------------------------------------------
   1         0           3      0.001053    0.000519
   2         0           3      0.000411    0.000207
   3         0           3      0.000120    0.000052
   4         0           3      0.000039    0.000019
   5         0           3      0.000011    0.000005
   6         1           2      0.000002    0.000001
   7         3           0      0.000000    0.000000    Roots Converged
 ---------------------------------------------------
  SETman timing summary (seconds)
  CPU time               232.12s
  System time              0.00s
  Wall time               58.34s
 
 --------------------------------------------------------------
             Orbital Energies (a.u.) and Symmetries
 --------------------------------------------------------------
 
 Alpha MOs, Restricted
 -- Occupied --                  
-14.461 -10.303 -10.298 -10.273 -10.268 -10.265 -10.263 -10.261
  1 A'    2 A'    3 A'    4 A'    5 A'    6 A'    7 A'    8 A'                 
-10.252  -1.070  -0.922  -0.861  -0.822  -0.791  -0.705  -0.672
  9 A'   10 A'   11 A'   12 A'   13 A'   14 A'   15 A'   16 A'                 
 -0.655  -0.614  -0.555  -0.545  -0.507  -0.501  -0.497  -0.472
 17 A'   18 A'   19 A'   20 A'   21 A'   22 A'    1 A"   23 A'                 
 -0.462  -0.419  -0.406  -0.402  -0.337  -0.285  -0.250
 24 A'   25 A'   26 A'    2 A"    3 A"    4 A"    5 A"                         
 -- Virtual --                   
  0.016   0.023   0.043   0.048   0.061   0.062   0.064   0.081
  6 A"   27 A'   28 A'   29 A'   30 A'    7 A"   31 A'    8 A"                 
  0.085   0.090   0.090   0.094   0.113   0.118   0.130   0.131
 32 A'   33 A'    9 A"   34 A'   10 A"   11 A"   35 A'   36 A'                 
  0.140   0.155   0.166   0.167   0.181   0.184   0.193   0.198
 37 A'   12 A"   13 A"   38 A'   39 A'   14 A"   40 A'   15 A"                 
  0.204   0.214   0.219   0.220   0.228   0.235   0.240   0.246
 41 A'   42 A'   16 A"   43 A'   44 A'   45 A'   46 A'   17 A"                 
  0.250   0.257   0.265   0.268   0.268   0.278   0.289   0.297
 47 A'   48 A'   49 A'   18 A"   50 A'   51 A'   52 A'   53 A'                 
  0.306   0.310   0.320   0.336   0.344   0.354   0.360   0.375
 54 A'   55 A'   56 A'   57 A'   58 A'   59 A'   60 A'   61 A'                 
  0.396   0.408   0.423   0.443   0.484   0.504   0.567   0.634
 62 A'   63 A'   64 A'   65 A'   66 A'   67 A'   68 A'   69 A'                 
  0.669   0.729   0.729   0.754   0.774   0.778   0.788   0.791
 70 A'   71 A'   19 A"   20 A"   72 A'   21 A"   73 A'   22 A"                 
  0.791   0.811   0.815   0.832   0.847   0.848   0.867   0.909
 74 A'   23 A"   75 A'   24 A"   76 A'   25 A"   77 A'   26 A"                 
  0.946   0.951   0.962   0.998   1.002   1.010   1.019   1.044
 78 A'   79 A'   80 A'   81 A'   82 A'   83 A'   27 A"   84 A'                 
  1.055   1.086   1.104   1.116   1.150   1.172   1.180   1.233
 85 A'   86 A'   87 A'   88 A'   89 A'   90 A'   91 A'   92 A'                 
  1.235   1.269   1.280   1.309   1.310   1.379   1.395   1.419
 93 A'   94 A'   95 A'   96 A'   28 A"   97 A'   29 A"   30 A"                 
  1.423   1.471   1.481   1.505   1.542   1.547   1.568   1.574
 98 A'   99 A'   31 A"  100 A'   32 A"   33 A"   34 A"   35 A"                 
  1.604   1.651   1.702   1.856   1.896   1.950   1.971   1.974
101 A'  102 A'  103 A'  104 A'  105 A'  106 A'   36 A"  107 A'                 
  2.005   2.061   2.069   2.077   2.110   2.143   2.204   2.226
108 A'  109 A'  110 A'   37 A"  111 A'  112 A'  113 A'  114 A'                 
  2.240   2.268   2.308   2.327   2.343   2.349   2.376   2.445
 38 A"  115 A'   39 A"   40 A"   41 A"  116 A'  117 A'   42 A"                 
  2.474   2.524   2.601   2.631   2.696   2.723   2.725   2.748
 43 A"  118 A'  119 A'   44 A"  120 A'   45 A"  121 A'  122 A'                 
  2.797   2.867   2.902   2.918   3.021   3.044   3.161   3.310
123 A'  124 A'  125 A'  126 A'  127 A'  128 A'  129 A'  130 A'                 
  3.480   4.218   4.309   4.346   4.380   4.421   4.466   4.541
131 A'  132 A'  133 A'  134 A'  135 A'  136 A'  137 A'  138 A'                 
  4.582   4.845
139 A'  140 A'                                                                 
 
 Beta MOs, Restricted
 -- Occupied --                  
-14.461 -10.303 -10.298 -10.273 -10.268 -10.265 -10.263 -10.261
  1 A'    2 A'    3 A'    4 A'    5 A'    6 A'    7 A'    8 A'                 
-10.252  -1.070  -0.922  -0.861  -0.822  -0.791  -0.705  -0.672
  9 A'   10 A'   11 A'   12 A'   13 A'   14 A'   15 A'   16 A'                 
 -0.655  -0.614  -0.555  -0.545  -0.507  -0.501  -0.497  -0.472
 17 A'   18 A'   19 A'   20 A'   21 A'   22 A'    1 A"   23 A'                 
 -0.462  -0.419  -0.406  -0.402  -0.337  -0.285  -0.250
 24 A'   25 A'   26 A'    2 A"    3 A"    4 A"    5 A"                         
 -- Virtual --                   
  0.016   0.023   0.043   0.048   0.061   0.062   0.064   0.081
  6 A"   27 A'   28 A'   29 A'   30 A'    7 A"   31 A'    8 A"                 
  0.085   0.090   0.090   0.094   0.113   0.118   0.130   0.131
 32 A'   33 A'    9 A"   34 A'   10 A"   11 A"   35 A'   36 A'                 
  0.140   0.155   0.166   0.167   0.181   0.184   0.193   0.198
 37 A'   12 A"   13 A"   38 A'   39 A'   14 A"   40 A'   15 A"                 
  0.204   0.214   0.219   0.220   0.228   0.235   0.240   0.246
 41 A'   42 A'   16 A"   43 A'   44 A'   45 A'   46 A'   17 A"                 
  0.250   0.257   0.265   0.268   0.268   0.278   0.289   0.297
 47 A'   48 A'   49 A'   18 A"   50 A'   51 A'   52 A'   53 A'                 
  0.306   0.310   0.320   0.336   0.344   0.354   0.360   0.375
 54 A'   55 A'   56 A'   57 A'   58 A'   59 A'   60 A'   61 A'                 
  0.396   0.408   0.423   0.443   0.484   0.504   0.567   0.634
 62 A'   63 A'   64 A'   65 A'   66 A'   67 A'   68 A'   69 A'                 
  0.669   0.729   0.729   0.754   0.774   0.778   0.788   0.791
 70 A'   71 A'   19 A"   20 A"   72 A'   21 A"   73 A'   22 A"                 
  0.791   0.811   0.815   0.832   0.847   0.848   0.867   0.909
 74 A'   23 A"   75 A'   24 A"   76 A'   25 A"   77 A'   26 A"                 
  0.946   0.951   0.962   0.998   1.002   1.010   1.019   1.044
 78 A'   79 A'   80 A'   81 A'   82 A'   83 A'   27 A"   84 A'                 
  1.055   1.086   1.104   1.116   1.150   1.172   1.180   1.233
 85 A'   86 A'   87 A'   88 A'   89 A'   90 A'   91 A'   92 A'                 
  1.235   1.269   1.280   1.309   1.310   1.379   1.395   1.419
 93 A'   94 A'   95 A'   96 A'   28 A"   97 A'   29 A"   30 A"                 
  1.423   1.471   1.481   1.505   1.542   1.547   1.568   1.574
 98 A'   99 A'   31 A"  100 A'   32 A"   33 A"   34 A"   35 A"                 
  1.604   1.651   1.702   1.856   1.896   1.950   1.971   1.974
101 A'  102 A'  103 A'  104 A'  105 A'  106 A'   36 A"  107 A'                 
  2.005   2.061   2.069   2.077   2.110   2.143   2.204   2.226
108 A'  109 A'  110 A'   37 A"  111 A'  112 A'  113 A'  114 A'                 
  2.240   2.268   2.308   2.327   2.343   2.349   2.376   2.445
 38 A"  115 A'   39 A"   40 A"   41 A"  116 A'  117 A'   42 A"                 
  2.474   2.524   2.601   2.631   2.696   2.723   2.725   2.748
 43 A"  118 A'  119 A'   44 A"  120 A'   45 A"  121 A'  122 A'                 
  2.797   2.867   2.902   2.918   3.021   3.044   3.161   3.310
123 A'  124 A'  125 A'  126 A'  127 A'  128 A'  129 A'  130 A'                 
  3.480   4.218   4.309   4.346   4.380   4.421   4.466   4.541
131 A'  132 A'  133 A'  134 A'  135 A'  136 A'  137 A'  138 A'                 
  4.582   4.845
139 A'  140 A'                                                                 
 --------------------------------------------------------------
 
          Ground-State Mulliken Net Atomic Charges

     Atom                 Charge (a.u.)
  ----------------------------------------
      1 C                    -0.012692
      2 C                    -0.411491
      3 C                    -0.260195
      4 C                    -0.790828
      5 N                    -0.512344
      6 H                     0.419214
      7 C                    -0.218607
      8 C                    -0.013169
      9 C                     1.243059
     10 C                    -0.576060
     11 H                     0.181871
     12 H                     0.180674
     13 H                     0.185778
     14 H                     0.202923
     15 H                     0.190502
     16 H                     0.191364
  ----------------------------------------
  Sum of atomic charges =     0.000000

 -----------------------------------------------------------------
                    Cartesian Multipole Moments
 -----------------------------------------------------------------
    Charge (ESU x 10^10)
                 0.0000
    Dipole Moment (Debye)
         X      -1.4757      Y       1.7013      Z      -0.0000
       Tot       2.2522
    Quadrupole Moments (Debye-Ang)
        XX     -45.2893     XY      -3.8353     YY     -44.8574
        XZ      -0.0000     YZ       0.0000     ZZ     -59.3212
    Octopole Moments (Debye-Ang^2)
       XXX     -15.7633    XXY       9.3681    XYY      -7.5547
       YYY      11.3851    XXZ      -0.0000    XYZ       0.0000
       YYZ       0.0000    XZZ      -2.0740    YZZ       2.3287
       ZZZ       0.0000
    Hexadecapole Moments (Debye-Ang^3)
      XXXX    -827.5470   XXXY     -22.1312   XXYY    -202.4890
      XYYY     -17.5817   YYYY    -375.6094   XXXZ      -0.0000
      XXYZ       0.0000   XYYZ       0.0000   YYYZ       0.0000
      XXZZ    -194.3547   XYZZ      -2.7602   YYZZ     -95.8127
      XZZZ      -0.0000   YZZZ       0.0000   ZZZZ     -75.7658
 -----------------------------------------------------------------
 Calculating analytic gradient of the CIS energy
 CIS relaxed dipole moment
            1
    1   2.3452787
    2  -2.4024737
    3  -0.0000000
	Magnitude:	 3.357 au	 8.534 Debye
 CIS 2 State Energy is -363.4342305629
 Gradient of the state energy (including CIS Excitation Energy)
            1           2           3           4           5           6
    1   0.0143043   0.0157552   0.0045092  -0.0167102   0.0109956   0.0092188
    2   0.0090349  -0.0046150   0.0188524  -0.0163163   0.0436853  -0.0229067
    3   0.0000000   0.0000000  -0.0000000   0.0000000   0.0000000  -0.0000000
            7           8           9          10          11          12
    1  -0.0308529  -0.0051487  -0.0059616  -0.0000669   0.0008287   0.0012856
    2  -0.0286426   0.0128212   0.0059310  -0.0197951   0.0009612  -0.0008342
    3  -0.0000000   0.0000000  -0.0000000  -0.0000000  -0.0000000   0.0000000
           13          14          15          16
    1  -0.0002664   0.0012644   0.0012692  -0.0004243
    2   0.0030233  -0.0012627   0.0014608  -0.0013975
    3  -0.0000000  -0.0000000   0.0000000  -0.0000000
 Gradient time:  CPU 40.22 s  wall 10.11 s
 Geometry Optimization Parameters
   NAtoms,    NIC,     NZ,  NCons,   NDum,   NFix, NCnnct, MaxDiis
       16     116       0       0       0       0       0       0

 Cartesian Hessian Update
 Hessian updated using BFGS update


** GEOMETRY OPTIMIZATION IN DELOCALIZED INTERNAL COORDINATES **
   Searching for a Minimum

   Optimization Cycle:   2

                       Coordinates (Angstroms)
     ATOM                X               Y               Z
      1  C         2.1855822032   -0.6945981984    0.0000000000
      2  C         2.1481459902    0.7001083225    0.0000000000
      3  C         0.9141558776    1.4253246904    0.0000000000
      4  C        -0.2548541408    0.6584436344    0.0000000000
      5  N        -1.5892341905    1.0731592236    0.0000000000
      6  H        -1.9007658797    2.0344000696    0.0000000000
      7  C        -2.4163622962    0.0036008725    0.0000000000
      8  C        -1.6065746124   -1.1487512338    0.0000000000
      9  C        -0.2432966589   -0.7545202030    0.0000000000
     10  C         0.9956365961   -1.4597749174    0.0000000000
     11  H         3.1485656251   -1.1946409459    0.0000000000
     12  H         3.0842152621    1.2499295843    0.0000000000
     13  H         0.8861502655    2.5108276913    0.0000000000
     14  H        -3.4908714821    0.1208947186    0.0000000000
     15  H        -1.9793102154   -2.1635560801    0.0000000000
     16  H         1.0207071488   -2.5454367670    0.0000000000
   Point Group: cs    Number of degrees of freedom:    29


   Energy is   -363.434230563

 Hessian updated using BFGS update

 24 Hessian modes will be used to form the next step
  Hessian Eigenvalues:
     0.158625    0.160165    0.214624    0.222099    0.233707    0.242564
     0.249583    0.289786    0.351851    0.352378    0.352605    0.352866
     0.358440    0.358742    0.372779    0.383075    0.423192    0.430123
     0.455359    0.465369    0.470544    0.473536    0.491487    0.916048

 Minimum search - taking simple RFO step
 Searching for Lamda that Minimizes Along All modes
 Value Taken    Lamda =  -0.00618461
 Step Taken.  Stepsize is  0.122926

                             Maximum     Tolerance    Cnvgd?
         Gradient           0.025695      0.000300      NO
         Displacement       0.051298      0.001200      NO
         Energy change     -0.002570      0.000001      NO


 New Cartesian Coordinates Obtained by Inverse Iteration

 Displacement from previous Coordinates is:  0.163298
 ----------------------------------------------------------------
             Standard Nuclear Orientation (Angstroms)
    I     Atom           X                Y                Z
 ----------------------------------------------------------------
    1      C       2.1779789181    -0.6980620561     0.0000000000
    2      C       2.1301520863     0.6879215867     0.0000000000
    3      C       0.8955897712     1.4171642330     0.0000000000
    4      C      -0.2497571990     0.6575688195     0.0000000000
    5      N      -1.5899745920     1.0678798116     0.0000000000
    6      H      -1.9247636088     2.0478902464     0.0000000000
    7      C      -2.3868767868     0.0244558840     0.0000000000
    8      C      -1.5787756894    -1.1549433647     0.0000000000
    9      C      -0.2324627580    -0.7569175529     0.0000000000
   10      C       0.9955049277    -1.4617020660     0.0000000000
   11      H       3.1400652272    -1.1981039725     0.0000000000
   12      H       3.0600202144     1.2460139947     0.0000000000
   13      H       0.8656078779     2.4984022764     0.0000000000
   14      H      -3.4618130727     0.1519210306     0.0000000000
   15      H      -1.9603022484    -2.1688374790     0.0000000000
   16      H       1.0216964250    -2.5452409304     0.0000000000
 ----------------------------------------------------------------
 Molecular Point Group                 Cs    NOp =  2
 Largest Abelian Subgroup              Cs    NOp =  2
 Nuclear Repulsion Energy =         400.33154466 hartrees
 There are       31 alpha and       31 beta electrons
 Applying Cartesian multipole field
    Component          Value
    ---------          -----
     (2,0,0)        1.00000E-11
     (0,2,0)        2.00000E-11
     (0,0,2)       -3.00000E-11
 Nucleus-field energy     =     0.0000000118 hartrees
 Requested basis set is 6-31+G(d)
 There are 59 shells and 185 basis functions
 A cutoff of  1.0D-12 yielded   1658 shell pairs
 There are     17111 function pairs
 Smallest overlap matrix eigenvalue = 1.19E-06
 Guess MOs from SCF MO coefficient file

 -----------------------------------------------------------------------
  General SCF calculation program by
  Eric Jon Sundstrom, Paul Horn, Yuezhi Mao, Dmitri Zuev, Alec White,
  David Stuck, Shaama M.S., Shane Yost, Joonho Lee, David Small,
  Daniel Levine, Susi Lehtola, Hugh Burton, Evgeny Epifanovsky,
  Bang C. Huynh
 -----------------------------------------------------------------------
 Exchange:     0.1900 Hartree-Fock + 0.3500 B88 + 0.4600 muB88 + LR-HF
 Correlation:  0.1900 VWN5 + 0.8100 LYP
 Using SG-1 standard quadrature grid
 using 4 threads for integral computing
 -------------------------------------------------------
 OpenMP Integral computing Module                
 Release: version 1.0, May 2013, Q-Chem Inc. Pittsburgh 
 -------------------------------------------------------
 using 4 threads for integral computing
 -------------------------------------------------------
 OpenMP Integral computing Module                
 Release: version 1.0, May 2013, Q-Chem Inc. Pittsburgh 
 -------------------------------------------------------
 A restricted SCF calculation will be
 performed using DIIS
 SCF converges when DIIS error is below 1.0e-08
 ---------------------------------------
  Cycle       Energy         DIIS error
 ---------------------------------------
    1    -363.6107225648      5.58e-04  
    2    -363.6125157205      1.27e-04  
    3    -363.6125902384      9.30e-05  
    4    -363.6126265107      3.27e-05  
    5    -363.6126322420      1.01e-05  
    6    -363.6126331872      6.63e-06  
    7    -363.6126335071      1.51e-06  
    8    -363.6126335280      7.57e-07  
    9    -363.6126335316      2.28e-07  
   10    -363.6126335319      7.72e-08  
   11    -363.6126335319      2.17e-08  
   12    -363.6126335319      1.08e-08  
   13    -363.6126335319      2.82e-09  Convergence criterion met
 ---------------------------------------
 SCF time:   CPU 53.46s  wall 14.00s 
 SCF   energy in the final basis set =     -363.6126335319
 Total energy in the final basis set =     -363.6126335319
 
 Direct TDDFT/TDA calculation will be performed
 Exchange:     0.1900 Hartree-Fock + 0.3500 B88 + 0.4600 muB88 + LR-HF
 Correlation:  0.1900 VWN5 + 0.8100 LYP
 Using SG-1 standard quadrature grid
 Singlet excitation energies requested
 CIS energy converged when residual is below 10e- 6
 ---------------------------------------------------
 Iter    Rts Conv    Rts Left    Ttl Dev     Max Dev
 ---------------------------------------------------
   1         0           3      0.002323    0.001763
   2         0           3      0.000521    0.000369
   3         0           3      0.000267    0.000169
   4         0           3      0.000146    0.000077
   5         0           3      0.000078    0.000037
   6         0           3      0.000079    0.000044
   7         1           2      0.000624    0.000589
   8         1           2      0.000302    0.000281
   9         1           2      0.000139    0.000129
  10         1           2      0.000059    0.000055
  11         1           2      0.000022    0.000020
  12         2           1      0.000010    0.000009
  13         2           1      0.000004    0.000003
  14         2           1      0.000002    0.000001
  15         3           0      0.000001    0.000001    Roots Converged
 ---------------------------------------------------
 
 ---------------------------------------------------
         TDDFT/TDA Excitation Energies              
 ---------------------------------------------------

 Excited state   1: excitation energy (eV) =    4.7460
 Total energy for state  1:                  -363.43822177 au
    Multiplicity: Singlet
    Trans. Mom.: -1.0576 X   0.7560 Y  -0.0000 Z
    Strength   :     0.1965053089
    D(   30) --> V(    6) amplitude = -0.2174
    D(   31) --> V(    1) amplitude =  0.9289

 Excited state   2: excitation energy (eV) =    4.7586
 Total energy for state  2:                  -363.43775935 au
    Multiplicity: Singlet
    Trans. Mom.: -0.0000 X   0.0000 Y   0.1622 Z
    Strength   :     0.0030666487
    D(   31) --> V(    2) amplitude =  0.9782

 Excited state   3: excitation energy (eV) =    5.0956
 Total energy for state  3:                  -363.42537229 au
    Multiplicity: Singlet
    Trans. Mom.:  0.1891 X  -0.2402 Y  -0.0000 Z
    Strength   :     0.0116658279
    D(   30) --> V(    1) amplitude = -0.7035
    D(   31) --> V(    6) amplitude = -0.6426
 
 ---------------------------------------------------
 Calculating Relaxed Density
 ---------------------------------------------------
 Iter    Rts Conv    Rts Left    Ttl Dev     Max Dev
 ---------------------------------------------------
   1         0           3      0.001093    0.000540
   2         0           3      0.000419    0.000205
   3         0           3      0.000122    0.000053
   4         0           3      0.000038    0.000018
   5         0           3      0.000011    0.000005
   6         3           0      0.000000    0.000000    Roots Converged
 ---------------------------------------------------
  SETman timing summary (seconds)
  CPU time               219.80s
  System time              0.00s
  Wall time               55.24s
 
 --------------------------------------------------------------
             Orbital Energies (a.u.) and Symmetries
 --------------------------------------------------------------
 
 Alpha MOs, Restricted
 -- Occupied --                  
-14.465 -10.302 -10.295 -10.270 -10.263 -10.262 -10.261 -10.258
  1 A'    2 A'    3 A'    4 A'    5 A'    6 A'    7 A'    8 A'                 
-10.249  -1.079  -0.926  -0.861  -0.827  -0.788  -0.707  -0.672
  9 A'   10 A'   11 A'   12 A'   13 A'   14 A'   15 A'   16 A'                 
 -0.656  -0.616  -0.554  -0.544  -0.510  -0.504  -0.502  -0.469
 17 A'   18 A'   19 A'   20 A'   21 A'   22 A'    1 A"   23 A'                 
 -0.458  -0.418  -0.406  -0.406  -0.337  -0.289  -0.244
 24 A'   25 A'    2 A"   26 A'    3 A"    4 A"    5 A"                         
 -- Virtual --                   
  0.018   0.021   0.043   0.049   0.062   0.063   0.064   0.081
  6 A"   27 A'   28 A'   29 A'   30 A'    7 A"   31 A'    8 A"                 
  0.085   0.090   0.091   0.093   0.114   0.118   0.130   0.132
 32 A'   33 A'    9 A"   34 A'   10 A"   11 A"   35 A'   36 A'                 
  0.140   0.155   0.165   0.166   0.180   0.185   0.192   0.199
 37 A'   12 A"   38 A'   13 A"   39 A'   14 A"   40 A'   15 A"                 
  0.204   0.213   0.220   0.220   0.228   0.235   0.241   0.248
 41 A'   42 A'   16 A"   43 A'   44 A'   45 A'   46 A'   17 A"                 
  0.251   0.258   0.266   0.269   0.269   0.278   0.287   0.296
 47 A'   48 A'   49 A'   18 A"   50 A'   51 A'   52 A'   53 A'                 
  0.307   0.309   0.324   0.338   0.343   0.356   0.364   0.381
 54 A'   55 A'   56 A'   57 A'   58 A'   59 A'   60 A'   61 A'                 
  0.400   0.410   0.427   0.448   0.487   0.507   0.575   0.640
 62 A'   63 A'   64 A'   65 A'   66 A'   67 A'   68 A'   69 A'                 
  0.676   0.729   0.729   0.753   0.776   0.779   0.789   0.790
 70 A'   71 A'   19 A"   20 A"   72 A'   21 A"   73 A'   22 A"                 
  0.797   0.813   0.826   0.833   0.849   0.852   0.873   0.911
 74 A'   23 A"   75 A'   24 A"   25 A"   76 A'   77 A'   26 A"                 
  0.943   0.951   0.964   0.999   1.004   1.013   1.017   1.046
 78 A'   79 A'   80 A'   81 A'   82 A'   83 A'   27 A"   84 A'                 
  1.060   1.083   1.102   1.105   1.149   1.173   1.185   1.238
 85 A'   86 A'   87 A'   88 A'   89 A'   90 A'   91 A'   92 A'                 
  1.240   1.272   1.281   1.309   1.311   1.391   1.391   1.422
 93 A'   94 A'   95 A'   96 A'   28 A"   29 A"   97 A'   30 A"                 
  1.428   1.473   1.487   1.510   1.543   1.548   1.570   1.577
 98 A'   99 A'   31 A"  100 A'   32 A"   33 A"   34 A"   35 A"                 
  1.608   1.652   1.714   1.847   1.899   1.954   1.976   1.982
101 A'  102 A'  103 A'  104 A'  105 A'  106 A'   36 A"  107 A'                 
  2.012   2.067   2.070   2.086   2.121   2.156   2.211   2.236
108 A'  109 A'  110 A'   37 A"  111 A'  112 A'  113 A'   38 A"                 
  2.255   2.260   2.313   2.326   2.359   2.375   2.396   2.457
114 A'  115 A'   39 A"   40 A"   41 A"  116 A'  117 A'   42 A"                 
  2.494   2.536   2.603   2.644   2.701   2.727   2.739   2.758
 43 A"  118 A'  119 A'   44 A"  120 A'  121 A'   45 A"  122 A'                 
  2.805   2.880   2.913   2.924   3.027   3.058   3.173   3.321
123 A'  124 A'  125 A'  126 A'  127 A'  128 A'  129 A'  130 A'                 
  3.505   4.225   4.316   4.350   4.378   4.427   4.468   4.546
131 A'  132 A'  133 A'  134 A'  135 A'  136 A'  137 A'  138 A'                 
  4.586   4.853
139 A'  140 A'                                                                 
 
 Beta MOs, Restricted
 -- Occupied --                  
-14.465 -10.302 -10.295 -10.270 -10.263 -10.262 -10.261 -10.258
  1 A'    2 A'    3 A'    4 A'    5 A'    6 A'    7 A'    8 A'                 
-10.249  -1.079  -0.926  -0.861  -0.827  -0.788  -0.707  -0.672
  9 A'   10 A'   11 A'   12 A'   13 A'   14 A'   15 A'   16 A'                 
 -0.656  -0.616  -0.554  -0.544  -0.510  -0.504  -0.502  -0.469
 17 A'   18 A'   19 A'   20 A'   21 A'   22 A'    1 A"   23 A'                 
 -0.458  -0.418  -0.406  -0.406  -0.337  -0.289  -0.244
 24 A'   25 A'    2 A"   26 A'    3 A"    4 A"    5 A"                         
 -- Virtual --                   
  0.018   0.021   0.043   0.049   0.062   0.063   0.064   0.081
  6 A"   27 A'   28 A'   29 A'   30 A'    7 A"   31 A'    8 A"                 
  0.085   0.090   0.091   0.093   0.114   0.118   0.130   0.132
 32 A'   33 A'    9 A"   34 A'   10 A"   11 A"   35 A'   36 A'                 
  0.140   0.155   0.165   0.166   0.180   0.185   0.192   0.199
 37 A'   12 A"   38 A'   13 A"   39 A'   14 A"   40 A'   15 A"                 
  0.204   0.213   0.220   0.220   0.228   0.235   0.241   0.248
 41 A'   42 A'   16 A"   43 A'   44 A'   45 A'   46 A'   17 A"                 
  0.251   0.258   0.266   0.269   0.269   0.278   0.287   0.296
 47 A'   48 A'   49 A'   18 A"   50 A'   51 A'   52 A'   53 A'                 
  0.307   0.309   0.324   0.338   0.343   0.356   0.364   0.381
 54 A'   55 A'   56 A'   57 A'   58 A'   59 A'   60 A'   61 A'                 
  0.400   0.410   0.427   0.448   0.487   0.507   0.575   0.640
 62 A'   63 A'   64 A'   65 A'   66 A'   67 A'   68 A'   69 A'                 
  0.676   0.729   0.729   0.753   0.776   0.779   0.789   0.790
 70 A'   71 A'   19 A"   20 A"   72 A'   21 A"   73 A'   22 A"                 
  0.797   0.813   0.826   0.833   0.849   0.852   0.873   0.911
 74 A'   23 A"   75 A'   24 A"   25 A"   76 A'   77 A'   26 A"                 
  0.943   0.951   0.964   0.999   1.004   1.013   1.017   1.046
 78 A'   79 A'   80 A'   81 A'   82 A'   83 A'   27 A"   84 A'                 
  1.060   1.083   1.102   1.105   1.149   1.173   1.185   1.238
 85 A'   86 A'   87 A'   88 A'   89 A'   90 A'   91 A'   92 A'                 
  1.240   1.272   1.281   1.309   1.311   1.391   1.391   1.422
 93 A'   94 A'   95 A'   96 A'   28 A"   29 A"   97 A'   30 A"                 
  1.428   1.473   1.487   1.510   1.543   1.548   1.570   1.577
 98 A'   99 A'   31 A"  100 A'   32 A"   33 A"   34 A"   35 A"                 
  1.608   1.652   1.714   1.847   1.899   1.954   1.976   1.982
101 A'  102 A'  103 A'  104 A'  105 A'  106 A'   36 A"  107 A'                 
  2.012   2.067   2.070   2.086   2.121   2.156   2.211   2.236
108 A'  109 A'  110 A'   37 A"  111 A'  112 A'  113 A'   38 A"                 
  2.255   2.260   2.313   2.326   2.359   2.375   2.396   2.457
114 A'  115 A'   39 A"   40 A"   41 A"  116 A'  117 A'   42 A"                 
  2.494   2.536   2.603   2.644   2.701   2.727   2.739   2.758
 43 A"  118 A'  119 A'   44 A"  120 A'  121 A'   45 A"  122 A'                 
  2.805   2.880   2.913   2.924   3.027   3.058   3.173   3.321
123 A'  124 A'  125 A'  126 A'  127 A'  128 A'  129 A'  130 A'                 
  3.505   4.225   4.316   4.350   4.378   4.427   4.468   4.546
131 A'  132 A'  133 A'  134 A'  135 A'  136 A'  137 A'  138 A'                 
  4.586   4.853
139 A'  140 A'                                                                 
 --------------------------------------------------------------
 
          Ground-State Mulliken Net Atomic Charges

     Atom                 Charge (a.u.)
  ----------------------------------------
      1 C                    -0.018471
      2 C                    -0.411182
      3 C                    -0.268854
      4 C                    -0.771783
      5 N                    -0.482648
      6 H                     0.420628
      7 C                    -0.226758
      8 C                    -0.034603
      9 C                     1.234513
     10 C                    -0.566690
     11 H                     0.181771
     12 H                     0.178051
     13 H                     0.185351
     14 H                     0.200011
     15 H                     0.189929
     16 H                     0.190736
  ----------------------------------------
  Sum of atomic charges =     0.000000

 -----------------------------------------------------------------
                    Cartesian Multipole Moments
 -----------------------------------------------------------------
    Charge (ESU x 10^10)
                -0.0000
    Dipole Moment (Debye)
         X      -1.5751      Y       1.8875      Z      -0.0000
       Tot       2.4584
    Quadrupole Moments (Debye-Ang)
        XX     -45.5084     XY      -4.4015     YY     -44.7361
        XZ       0.0000     YZ      -0.0000     ZZ     -59.2044
    Octopole Moments (Debye-Ang^2)
       XXX     -16.2911    XXY      10.2350    XYY      -8.1285
       YYY      12.3594    XXZ      -0.0000    XYZ      -0.0000
       YYZ       0.0000    XZZ      -2.1666    YZZ       2.6247
       ZZZ      -0.0000
    Hexadecapole Moments (Debye-Ang^3)
      XXXX    -820.8518   XXXY     -23.5290   XXYY    -199.2131
      XYYY     -16.5480   YYYY    -374.3673   XXXZ       0.0000
      XXYZ      -0.0000   XYYZ       0.0000   YYYZ      -0.0000
      XXZZ    -191.6699   XYZZ      -2.1662   YYZZ     -95.6148
      XZZZ       0.0000   YZZZ      -0.0000   ZZZZ     -75.5889
 -----------------------------------------------------------------
 Calculating analytic gradient of the CIS energy
 CIS relaxed dipole moment
            1
    1   2.3993432
    2  -2.4527116
    3  -0.0000000
	Magnitude:	 3.431 au	 8.721 Debye
 CIS 2 State Energy is -363.4377593516
 Gradient of the state energy (including CIS Excitation Energy)
            1           2           3           4           5           6
    1   0.0120119   0.0141732  -0.0113056  -0.0041042  -0.0046762   0.0037523
    2   0.0147976  -0.0160665   0.0143016  -0.0115875   0.0104276  -0.0096699
    3   0.0000000  -0.0000000   0.0000000  -0.0000000   0.0000000   0.0000000
            7           8           9          10          11          12
    1  -0.0122743   0.0089267  -0.0034437  -0.0044247  -0.0000939   0.0000782
    2   0.0026796   0.0060794   0.0050616  -0.0160066   0.0004582  -0.0008019
    3  -0.0000000   0.0000000   0.0000000  -0.0000000   0.0000000   0.0000000
           13          14          15          16
    1  -0.0010907   0.0018507   0.0006622  -0.0000418
    2   0.0000090   0.0005544  -0.0003512   0.0001148
    3  -0.0000000  -0.0000000   0.0000000  -0.0000000
 Gradient time:  CPU 40.02 s  wall 10.06 s
 Geometry Optimization Parameters
   NAtoms,    NIC,     NZ,  NCons,   NDum,   NFix, NCnnct, MaxDiis
       16     116       0       0       0       0       0       0

 Cartesian Hessian Update
 Hessian updated using BFGS update


** GEOMETRY OPTIMIZATION IN DELOCALIZED INTERNAL COORDINATES **
   Searching for a Minimum

   Optimization Cycle:   3

                       Coordinates (Angstroms)
     ATOM                X               Y               Z
      1  C         2.1779789181   -0.6980620561    0.0000000000
      2  C         2.1301520863    0.6879215867    0.0000000000
      3  C         0.8955897712    1.4171642330    0.0000000000
      4  C        -0.2497571990    0.6575688195    0.0000000000
      5  N        -1.5899745920    1.0678798116    0.0000000000
      6  H        -1.9247636088    2.0478902464    0.0000000000
      7  C        -2.3868767868    0.0244558840    0.0000000000
      8  C        -1.5787756894   -1.1549433647    0.0000000000
      9  C        -0.2324627580   -0.7569175529    0.0000000000
     10  C         0.9955049277   -1.4617020660    0.0000000000
     11  H         3.1400652272   -1.1981039725    0.0000000000
     12  H         3.0600202144    1.2460139947    0.0000000000
     13  H         0.8656078779    2.4984022764    0.0000000000
     14  H        -3.4618130727    0.1519210306    0.0000000000
     15  H        -1.9603022484   -2.1688374790    0.0000000000
     16  H         1.0216964250   -2.5452409304    0.0000000000
   Point Group: cs    Number of degrees of freedom:    29


   Energy is   -363.437759352

 Hessian updated using BFGS update

 25 Hessian modes will be used to form the next step
  Hessian Eigenvalues:
     0.157478    0.160068    0.161093    0.220057    0.224139    0.230768
     0.234845    0.246567    0.345729    0.351851    0.352410    0.352640
     0.352722    0.358689    0.363157    0.374149    0.388920    0.422633
     0.433348    0.457820    0.467175    0.472513    0.481549    0.522431
     0.616841

 Minimum search - taking simple RFO step
 Searching for Lamda that Minimizes Along All modes
 Value Taken    Lamda =  -0.00218231
 Step Taken.  Stepsize is  0.074127

                             Maximum     Tolerance    Cnvgd?
         Gradient           0.011678      0.000300      NO
         Displacement       0.032187      0.001200      NO
         Energy change     -0.003529      0.000001      NO


 New Cartesian Coordinates Obtained by Inverse Iteration

 Displacement from previous Coordinates is:  0.095062
 ----------------------------------------------------------------
             Standard Nuclear Orientation (Angstroms)
    I     Atom           X                Y                Z
 ----------------------------------------------------------------
    1      C       2.1651952684    -0.6985148192     0.0000000000
    2      C       2.1246662773     0.6938945725     0.0000000000
    3      C       0.9037075628     1.4162003621     0.0000000000
    4      C      -0.2416876866     0.6648644786     0.0000000000
    5      N      -1.5832609226     1.0655899769     0.0000000000
    6      H      -1.9320961201     2.0544546429     0.0000000000
    7      C      -2.3723378898     0.0191160480     0.0000000000
    8      C      -1.5789743940    -1.1700731996     0.0000000000
    9      C      -0.2350206880    -0.7561996142     0.0000000000
   10      C       0.9896807696    -1.4496585651     0.0000000000
   11      H       3.1241824138    -1.2052273912     0.0000000000
   12      H       3.0540478449     1.2538274634     0.0000000000
   13      H       0.8844763880     2.4976332210     0.0000000000
   14      H      -3.4504036640     0.1441634616     0.0000000000
   15      H      -1.9666867047    -2.1813402761     0.0000000000
   16      H       1.0164010375    -2.5333199000     0.0000000000
 ----------------------------------------------------------------
 Molecular Point Group                 Cs    NOp =  2
 Largest Abelian Subgroup              Cs    NOp =  2
 Nuclear Repulsion Energy =         400.96858760 hartrees
 There are       31 alpha and       31 beta electrons
 Applying Cartesian multipole field
    Component          Value
    ---------          -----
     (2,0,0)        1.00000E-11
     (0,2,0)        2.00000E-11
     (0,0,2)       -3.00000E-11
 Nucleus-field energy     =     0.0000000117 hartrees
 Requested basis set is 6-31+G(d)
 There are 59 shells and 185 basis functions
 A cutoff of  1.0D-12 yielded   1657 shell pairs
 There are     17105 function pairs
 Smallest overlap matrix eigenvalue = 1.19E-06
 Guess MOs from SCF MO coefficient file

 -----------------------------------------------------------------------
  General SCF calculation program by
  Eric Jon Sundstrom, Paul Horn, Yuezhi Mao, Dmitri Zuev, Alec White,
  David Stuck, Shaama M.S., Shane Yost, Joonho Lee, David Small,
  Daniel Levine, Susi Lehtola, Hugh Burton, Evgeny Epifanovsky,
  Bang C. Huynh
 -----------------------------------------------------------------------
 Exchange:     0.1900 Hartree-Fock + 0.3500 B88 + 0.4600 muB88 + LR-HF
 Correlation:  0.1900 VWN5 + 0.8100 LYP
 Using SG-1 standard quadrature grid
 using 4 threads for integral computing
 -------------------------------------------------------
 OpenMP Integral computing Module                
 Release: version 1.0, May 2013, Q-Chem Inc. Pittsburgh 
 -------------------------------------------------------
 using 4 threads for integral computing
 -------------------------------------------------------
 OpenMP Integral computing Module                
 Release: version 1.0, May 2013, Q-Chem Inc. Pittsburgh 
 -------------------------------------------------------
 A restricted SCF calculation will be
 performed using DIIS
 SCF converges when DIIS error is below 1.0e-08
 ---------------------------------------
  Cycle       Energy         DIIS error
 ---------------------------------------
    1    -363.6133679172      3.80e-04  
    2    -363.6140270963      7.18e-05  
    3    -363.6140370785      6.60e-05  
    4    -363.6140555900      1.06e-05  
    5    -363.6140562056      5.11e-06  
    6    -363.6140563695      1.49e-06  
    7    -363.6140563955      6.38e-07  
    8    -363.6140564024      2.42e-07  
    9    -363.6140564032      1.33e-07  
   10    -363.6140564033      3.20e-08  
   11    -363.6140564033      1.23e-08  
   12    -363.6140564033      3.96e-09  Convergence criterion met
 ---------------------------------------
 SCF time:   CPU 48.94s  wall 13.00s 
 SCF   energy in the final basis set =     -363.6140564033
 Total energy in the final basis set =     -363.6140564033
 
 Direct TDDFT/TDA calculation will be performed
 Exchange:     0.1900 Hartree-Fock + 0.3500 B88 + 0.4600 muB88 + LR-HF
 Correlation:  0.1900 VWN5 + 0.8100 LYP
 Using SG-1 standard quadrature grid
 Singlet excitation energies requested
 CIS energy converged when residual is below 10e- 6
 ---------------------------------------------------
 Iter    Rts Conv    Rts Left    Ttl Dev     Max Dev
 ---------------------------------------------------
   1         0           3      0.002310    0.001748
   2         0           3      0.000531    0.000378
   3         0           3      0.000272    0.000175
   4         0           3      0.000151    0.000081
   5         0           3      0.000084    0.000038
   6         0           3      0.000086    0.000045
   7         1           2      0.000658    0.000617
   8         1           2      0.000326    0.000298
   9         1           2      0.000152    0.000139
  10         1           2      0.000064    0.000059
  11         1           2      0.000024    0.000021
  12         2           1      0.000011    0.000010
  13         2           1      0.000004    0.000004
  14         2           1      0.000002    0.000001
  15         3           0      0.000001    0.000001    Roots Converged
 ---------------------------------------------------
 
 ---------------------------------------------------
         TDDFT/TDA Excitation Energies              
 ---------------------------------------------------

 Excited state   1: excitation energy (eV) =    4.7610
 Total energy for state  1:                  -363.43909138 au
    Multiplicity: Singlet
    Trans. Mom.: -0.0000 X   0.0000 Y   0.1584 Z
    Strength   :     0.0029277097
    D(   31) --> V(    1) amplitude =  0.9787

 Excited state   2: excitation energy (eV) =    4.8378
 Total energy for state  2:                  -363.43627138 au
    Multiplicity: Singlet
    Trans. Mom.:  1.0615 X  -0.7094 Y   0.0000 Z
    Strength   :     0.1931867995
    D(   30) --> V(    6) amplitude =  0.2317
    D(   31) --> V(    2) amplitude =  0.9232

 Excited state   3: excitation energy (eV) =    5.1282
 Total energy for state  3:                  -363.42559921 au
    Multiplicity: Singlet
    Trans. Mom.: -0.2211 X   0.2347 Y  -0.0000 Z
    Strength   :     0.0130624463
    D(   30) --> V(    2) amplitude =  0.7011
    D(   31) --> V(    6) amplitude = -0.6430
 
 ---------------------------------------------------
 Calculating Relaxed Density
 ---------------------------------------------------
 Iter    Rts Conv    Rts Left    Ttl Dev     Max Dev
 ---------------------------------------------------
   1         0           3      0.001088    0.000544
   2         0           3      0.000416    0.000206
   3         0           3      0.000122    0.000051
   4         0           3      0.000038    0.000018
   5         0           3      0.000010    0.000005
   6         3           0      0.000000    0.000000    Roots Converged
 ---------------------------------------------------
  SETman timing summary (seconds)
  CPU time               218.88s
  System time              0.00s
  Wall time               55.00s
 
 --------------------------------------------------------------
             Orbital Energies (a.u.) and Symmetries
 --------------------------------------------------------------
 
 Alpha MOs, Restricted
 -- Occupied --                  
-14.467 -10.302 -10.295 -10.268 -10.260 -10.260 -10.260 -10.257
  1 A'    2 A'    3 A'    4 A'    5 A'    6 A'    7 A'    8 A'                 
-10.249  -1.079  -0.928  -0.861  -0.826  -0.789  -0.706  -0.671
  9 A'   10 A'   11 A'   12 A'   13 A'   14 A'   15 A'   16 A'                 
 -0.657  -0.616  -0.553  -0.543  -0.512  -0.503  -0.502  -0.471
 17 A'   18 A'   19 A'   20 A'   21 A'   22 A'    1 A"   23 A'                 
 -0.456  -0.418  -0.407  -0.405  -0.339  -0.287  -0.245
 24 A'   25 A'    2 A"   26 A'    3 A"    4 A"    5 A"                         
 -- Virtual --                   
  0.020   0.021   0.043   0.048   0.062   0.064   0.064   0.081
 27 A'    6 A"   28 A'   29 A'   30 A'    7 A"   31 A'    8 A"                 
  0.085   0.090   0.091   0.093   0.114   0.119   0.130   0.132
 32 A'   33 A'    9 A"   34 A'   10 A"   11 A"   35 A'   36 A'                 
  0.140   0.155   0.164   0.166   0.180   0.186   0.192   0.199
 37 A'   12 A"   38 A'   13 A"   39 A'   14 A"   40 A'   15 A"                 
  0.204   0.213   0.219   0.220   0.228   0.236   0.240   0.249
 41 A'   42 A'   16 A"   43 A'   44 A'   45 A'   46 A'   17 A"                 
  0.251   0.259   0.266   0.270   0.270   0.279   0.287   0.296
 47 A'   48 A'   49 A'   18 A"   50 A'   51 A'   52 A'   53 A'                 
  0.308   0.308   0.325   0.339   0.344   0.357   0.366   0.381
 54 A'   55 A'   56 A'   57 A'   58 A'   59 A'   60 A'   61 A'                 
  0.400   0.413   0.427   0.452   0.491   0.506   0.576   0.642
 62 A'   63 A'   64 A'   65 A'   66 A'   67 A'   68 A'   69 A'                 
  0.680   0.729   0.730   0.753   0.776   0.778   0.788   0.791
 70 A'   19 A"   71 A'   20 A"   72 A'   21 A"   73 A'   22 A"                 
  0.802   0.813   0.827   0.833   0.850   0.854   0.876   0.912
 74 A'   23 A"   75 A'   24 A"   25 A"   76 A'   77 A'   26 A"                 
  0.943   0.952   0.965   0.997   1.003   1.014   1.017   1.044
 78 A'   79 A'   80 A'   81 A'   82 A'   83 A'   27 A"   84 A'                 
  1.063   1.081   1.098   1.105   1.150   1.174   1.183   1.238
 85 A'   86 A'   87 A'   88 A'   89 A'   90 A'   91 A'   92 A'                 
  1.243   1.270   1.283   1.311   1.311   1.390   1.394   1.423
 93 A'   94 A'   95 A'   96 A'   28 A"   29 A"   97 A'   30 A"                 
  1.430   1.478   1.492   1.510   1.542   1.546   1.572   1.579
 98 A'   99 A'   31 A"  100 A'   32 A"   33 A"   34 A"   35 A"                 
  1.608   1.647   1.720   1.843   1.906   1.958   1.975   1.986
101 A'  102 A'  103 A'  104 A'  105 A'  106 A'   36 A"  107 A'                 
  2.010   2.062   2.071   2.089   2.132   2.163   2.221   2.239
108 A'  109 A'  110 A'   37 A"  111 A'  112 A'  113 A'   38 A"                 
  2.248   2.263   2.319   2.332   2.359   2.378   2.401   2.461
114 A'  115 A'   39 A"   40 A"   41 A"  116 A'  117 A'   42 A"                 
  2.500   2.536   2.605   2.646   2.709   2.726   2.748   2.764
 43 A"  118 A'  119 A'   44 A"  120 A'  121 A'   45 A"  122 A'                 
  2.809   2.884   2.917   2.928   3.028   3.061   3.179   3.322
123 A'  124 A'  125 A'  126 A'  127 A'  128 A'  129 A'  130 A'                 
  3.519   4.223   4.321   4.355   4.379   4.427   4.467   4.547
131 A'  132 A'  133 A'  134 A'  135 A'  136 A'  137 A'  138 A'                 
  4.588   4.856
139 A'  140 A'                                                                 
 
 Beta MOs, Restricted
 -- Occupied --                  
-14.467 -10.302 -10.295 -10.268 -10.260 -10.260 -10.260 -10.257
  1 A'    2 A'    3 A'    4 A'    5 A'    6 A'    7 A'    8 A'                 
-10.249  -1.079  -0.928  -0.861  -0.826  -0.789  -0.706  -0.671
  9 A'   10 A'   11 A'   12 A'   13 A'   14 A'   15 A'   16 A'                 
 -0.657  -0.616  -0.553  -0.543  -0.512  -0.503  -0.502  -0.471
 17 A'   18 A'   19 A'   20 A'   21 A'   22 A'    1 A"   23 A'                 
 -0.456  -0.418  -0.407  -0.405  -0.339  -0.287  -0.245
 24 A'   25 A'    2 A"   26 A'    3 A"    4 A"    5 A"                         
 -- Virtual --                   
  0.020   0.021   0.043   0.048   0.062   0.064   0.064   0.081
 27 A'    6 A"   28 A'   29 A'   30 A'    7 A"   31 A'    8 A"                 
  0.085   0.090   0.091   0.093   0.114   0.119   0.130   0.132
 32 A'   33 A'    9 A"   34 A'   10 A"   11 A"   35 A'   36 A'                 
  0.140   0.155   0.164   0.166   0.180   0.186   0.192   0.199
 37 A'   12 A"   38 A'   13 A"   39 A'   14 A"   40 A'   15 A"                 
  0.204   0.213   0.219   0.220   0.228   0.236   0.240   0.249
 41 A'   42 A'   16 A"   43 A'   44 A'   45 A'   46 A'   17 A"                 
  0.251   0.259   0.266   0.270   0.270   0.279   0.287   0.296
 47 A'   48 A'   49 A'   18 A"   50 A'   51 A'   52 A'   53 A'                 
[...]
    2   0.0210717  -0.0181023   0.0295612  -0.0259622   0.0356977  -0.0236324
    3  -0.0000000  -0.0000000   0.0000000  -0.0000000   0.0000000   0.0000000
            7           8           9          10          11          12
    1  -0.0307078   0.0044161  -0.0107675  -0.0025745   0.0006107   0.0007883
    2  -0.0113973   0.0018768   0.0174559  -0.0274391   0.0003949   0.0004271
    3   0.0000000  -0.0000000   0.0000000   0.0000000  -0.0000000   0.0000000
           13          14          15          16
    1   0.0011286   0.0018003  -0.0001982  -0.0006921
    2   0.0019038  -0.0025816   0.0010606  -0.0003348
    3  -0.0000000   0.0000000  -0.0000000   0.0000000
 Gradient time:  CPU 40.11 s  wall 10.09 s
 Geometry Optimization Parameters
   NAtoms,    NIC,     NZ,  NCons,   NDum,   NFix, NCnnct, MaxDiis
       16     116       0       0       0       0       0       0

 Cartesian Hessian Update
 Hessian updated using BFGS update


** GEOMETRY OPTIMIZATION IN DELOCALIZED INTERNAL COORDINATES **
   Searching for a Minimum

   Optimization Cycle:  30

                       Coordinates (Angstroms)
     ATOM                X               Y               Z
      1  C         2.1745220174   -0.6889011115    0.0000000000
      2  C         2.1417130530    0.6961333085    0.0000000000
      3  C         0.9112431811    1.4409072481    0.0000000000
      4  C        -0.2424192744    0.6561498288    0.0000000000
      5  N        -1.5899631257    1.0662907670    0.0000000000
      6  H        -1.8901412180    2.0299238956    0.0000000000
      7  C        -2.4111274016    0.0110898741    0.0000000000
      8  C        -1.5957651981   -1.1562914439    0.0000000000
      9  C        -0.2420145637   -0.7491079812    0.0000000000
     10  C         0.9887477599   -1.4672817813    0.0000000000
     11  H         3.1372034595   -1.1907067046    0.0000000000
     12  H         3.0768947176    1.2486006503    0.0000000000
     13  H         0.8948395644    2.5241617257    0.0000000000
     14  H        -3.4862458446    0.1137343178    0.0000000000
     15  H        -1.9777623524   -2.1684127709    0.0000000000
     16  H         1.0121647180   -2.5508793607    0.0000000000
   Point Group: cs    Number of degrees of freedom:    29


   Energy is   -363.434202719

 Hessian updated using BFGS update

 29 Hessian modes will be used to form the next step
  Hessian Eigenvalues:
     0.157553    0.159836    0.159990    0.160021    0.160038    0.160301
     0.161375    0.220307    0.227942    0.237997    0.244466    0.247699
     0.351884    0.352265    0.352610    0.352699    0.358678    0.358977
     0.372958    0.383029    0.423735    0.442625    0.455930    0.467306
     0.469923    0.478582    0.486973    0.563281    1.032874

 Minimum search - taking simple RFO step
 Searching for Lamda that Minimizes Along All modes
 Value Taken    Lamda =  -0.00375253
 Step Taken.  Stepsize is  0.070408

                             Maximum     Tolerance    Cnvgd?
         Gradient           0.024972      0.000300      NO
         Displacement       0.034366      0.001200      NO
         Energy change      0.004266      0.000001      NO


 New Cartesian Coordinates Obtained by Inverse Iteration

 Displacement from previous Coordinates is:  0.079719
 ----------------------------------------------------------------
             Standard Nuclear Orientation (Angstroms)
    I     Atom           X                Y                Z
 ----------------------------------------------------------------
    1      C       2.1710182601    -0.6942854480     0.0000000000
    2      C       2.1339122775     0.6965573970     0.0000000000
    3      C       0.9102232876     1.4290646279     0.0000000000
    4      C      -0.2438951556     0.6610989468     0.0000000000
    5      N      -1.5871707936     1.0678742333     0.0000000000
    6      H      -1.9064062805     2.0398595640     0.0000000000
    7      C      -2.3947799380     0.0124760686     0.0000000000
    8      C      -1.5899604216    -1.1607745832     0.0000000000
    9      C      -0.2400317710    -0.7517891024     0.0000000000
   10      C       0.9892808818    -1.4579161972     0.0000000000
   11      H       3.1325763494    -1.1972417809     0.0000000000
   12      H       3.0671473178     1.2512874443     0.0000000000
   13      H       0.8926810492     2.5118984291     0.0000000000
   14      H      -3.4710455992     0.1213013010     0.0000000000
   15      H      -1.9747750325    -2.1720989407     0.0000000000
   16      H       1.0131150611    -2.5419014980     0.0000000000
 ----------------------------------------------------------------
 Molecular Point Group                 Cs    NOp =  2
 Largest Abelian Subgroup              Cs    NOp =  2
 Nuclear Repulsion Energy =         399.68889423 hartrees
 There are       31 alpha and       31 beta electrons
 Applying Cartesian multipole field
    Component          Value
    ---------          -----
     (2,0,0)        1.00000E-11
     (0,2,0)        2.00000E-11
     (0,0,2)       -3.00000E-11
 Nucleus-field energy     =     0.0000000118 hartrees
 Requested basis set is 6-31+G(d)
 There are 59 shells and 185 basis functions
 A cutoff of  1.0D-12 yielded   1657 shell pairs
 There are     17105 function pairs
 Smallest overlap matrix eigenvalue = 1.26E-06
 Guess MOs from SCF MO coefficient file

 -----------------------------------------------------------------------
  General SCF calculation program by
  Eric Jon Sundstrom, Paul Horn, Yuezhi Mao, Dmitri Zuev, Alec White,
  David Stuck, Shaama M.S., Shane Yost, Joonho Lee, David Small,
  Daniel Levine, Susi Lehtola, Hugh Burton, Evgeny Epifanovsky,
  Bang C. Huynh
 -----------------------------------------------------------------------
 Exchange:     0.1900 Hartree-Fock + 0.3500 B88 + 0.4600 muB88 + LR-HF
 Correlation:  0.1900 VWN5 + 0.8100 LYP
 Using SG-1 standard quadrature grid
 using 4 threads for integral computing
 -------------------------------------------------------
 OpenMP Integral computing Module                
 Release: version 1.0, May 2013, Q-Chem Inc. Pittsburgh 
 -------------------------------------------------------
 using 4 threads for integral computing
 -------------------------------------------------------
 OpenMP Integral computing Module                
 Release: version 1.0, May 2013, Q-Chem Inc. Pittsburgh 
 -------------------------------------------------------
 A restricted SCF calculation will be
 performed using DIIS
 SCF converges when DIIS error is below 1.0e-08
 ---------------------------------------
  Cycle       Energy         DIIS error
 ---------------------------------------
    1    -363.6161615901      3.33e-04  
    2    -363.6166735028      6.25e-05  
    3    -363.6166856302      4.88e-05  
    4    -363.6166950505      1.09e-05  
    5    -363.6166955759      4.21e-06  
    6    -363.6166956761      1.39e-06  
    7    -363.6166956927      5.92e-07  
    8    -363.6166956973      2.30e-07  
    9    -363.6166956981      1.18e-07  
   10    -363.6166956982      3.12e-08  
   11    -363.6166956982      7.37e-09  Convergence criterion met
 ---------------------------------------
 SCF time:   CPU 45.88s  wall 11.00s 
 SCF   energy in the final basis set =     -363.6166956982
 Total energy in the final basis set =     -363.6166956982
 
 Direct TDDFT/TDA calculation will be performed
 Exchange:     0.1900 Hartree-Fock + 0.3500 B88 + 0.4600 muB88 + LR-HF
 Correlation:  0.1900 VWN5 + 0.8100 LYP
 Using SG-1 standard quadrature grid
 Singlet excitation energies requested
 CIS energy converged when residual is below 10e- 6
 ---------------------------------------------------
 Iter    Rts Conv    Rts Left    Ttl Dev     Max Dev
 ---------------------------------------------------
   1         0           3      0.002316    0.001754
   2         0           3      0.000526    0.000371
   3         0           3      0.000273    0.000172
   4         0           3      0.000157    0.000077
   5         0           3      0.000095    0.000052
   6         0           3      0.000080    0.000039
   7         1           2      0.000709    0.000672
   8         1           2      0.000347    0.000321
   9         1           2      0.000154    0.000142
  10         1           2      0.000064    0.000059
  11         1           2      0.000022    0.000020
  12         2           1      0.000010    0.000009
  13         2           1      0.000004    0.000003
  14         2           1      0.000002    0.000001
  15         3           0      0.000001    0.000001    Roots Converged
 ---------------------------------------------------
 
 ---------------------------------------------------
         TDDFT/TDA Excitation Energies              
 ---------------------------------------------------

 Excited state   1: excitation energy (eV) =    4.8086
 Total energy for state  1:                  -363.43998473 au
    Multiplicity: Singlet
    Trans. Mom.: -1.0090 X   0.7383 Y  -0.0000 Z
    Strength   :     0.1841406932
    D(   30) --> V(    6) amplitude =  0.2246
    D(   31) --> V(    1) amplitude =  0.9267

 Excited state   2: excitation energy (eV) =    4.8830
 Total energy for state  2:                  -363.43724989 au
    Multiplicity: Singlet
    Trans. Mom.: -0.0000 X  -0.0000 Y  -0.1701 Z
    Strength   :     0.0034620838
    D(   31) --> V(    2) amplitude =  0.9768

 Excited state   3: excitation energy (eV) =    5.0886
 Total energy for state  3:                  -363.42969422 au
    Multiplicity: Singlet
    Trans. Mom.:  0.0657 X  -0.2867 Y  -0.0000 Z
    Strength   :     0.0107860563
    D(   30) --> V(    1) amplitude =  0.7294
    D(   31) --> V(    6) amplitude = -0.6100
 
 ---------------------------------------------------
 Calculating Relaxed Density
 ---------------------------------------------------
 Iter    Rts Conv    Rts Left    Ttl Dev     Max Dev
 ---------------------------------------------------
   1         0           3      0.001082    0.000532
   2         0           3      0.000419    0.000207
   3         0           3      0.000122    0.000053
   4         0           3      0.000039    0.000018
   5         0           3      0.000010    0.000005
   6         3           0      0.000000    0.000000    Roots Converged
 ---------------------------------------------------
  SETman timing summary (seconds)
  CPU time               220.57s
  System time              0.00s
  Wall time               55.48s
 
 --------------------------------------------------------------
             Orbital Energies (a.u.) and Symmetries
 --------------------------------------------------------------
 
 Alpha MOs, Restricted
 -- Occupied --                  
-14.463 -10.302 -10.297 -10.271 -10.264 -10.262 -10.261 -10.259
  1 A'    2 A'    3 A'    4 A'    5 A'    6 A'    7 A'    8 A'                 
-10.250  -1.075  -0.925  -0.861  -0.824  -0.790  -0.706  -0.673
  9 A'   10 A'   11 A'   12 A'   13 A'   14 A'   15 A'   16 A'                 
 -0.655  -0.616  -0.554  -0.544  -0.510  -0.503  -0.499  -0.471
 17 A'   18 A'   19 A'   20 A'   21 A'   22 A'    1 A"   23 A'                 
 -0.458  -0.417  -0.407  -0.405  -0.337  -0.286  -0.247
 24 A'   25 A'   26 A'    2 A"    3 A"    4 A"    5 A"                         
 -- Virtual --                   
  0.018   0.022   0.043   0.048   0.062   0.063   0.064   0.081
  6 A"   27 A'   28 A'   29 A'   30 A'    7 A"   31 A'    8 A"                 
  0.085   0.090   0.091   0.093   0.113   0.118   0.130   0.131
 32 A'   33 A'    9 A"   34 A'   10 A"   11 A"   35 A'   36 A'                 
  0.140   0.155   0.166   0.166   0.180   0.185   0.193   0.198
 37 A'   12 A"   38 A'   13 A"   39 A'   14 A"   40 A'   15 A"                 
  0.204   0.214   0.219   0.220   0.228   0.235   0.240   0.248
 41 A'   42 A'   16 A"   43 A'   44 A'   45 A'   46 A'   17 A"                 
  0.250   0.258   0.266   0.269   0.269   0.278   0.288   0.296
 47 A'   48 A'   49 A'   18 A"   50 A'   51 A'   52 A'   53 A'                 
  0.307   0.309   0.323   0.337   0.345   0.355   0.363   0.379
 54 A'   55 A'   56 A'   57 A'   58 A'   59 A'   60 A'   61 A'                 
  0.397   0.409   0.426   0.445   0.488   0.505   0.571   0.639
 62 A'   63 A'   64 A'   65 A'   66 A'   67 A'   68 A'   69 A'                 
  0.673   0.728   0.729   0.754   0.775   0.778   0.788   0.790
 70 A'   71 A'   19 A"   20 A"   72 A'   21 A"   73 A'   22 A"                 
  0.797   0.812   0.821   0.832   0.849   0.849   0.872   0.910
 74 A'   23 A"   75 A'   24 A"   25 A"   76 A'   77 A'   26 A"                 
  0.944   0.951   0.964   0.997   1.003   1.012   1.018   1.043
 78 A'   79 A'   80 A'   81 A'   82 A'   83 A'   27 A"   84 A'                 
  1.059   1.086   1.104   1.109   1.149   1.174   1.184   1.235
 85 A'   86 A'   87 A'   88 A'   89 A'   90 A'   91 A'   92 A'                 
  1.239   1.270   1.283   1.310   1.311   1.386   1.393   1.421
 93 A'   94 A'   95 A'   96 A'   28 A"   97 A'   29 A"   30 A"                 
  1.426   1.471   1.486   1.505   1.544   1.546   1.569   1.576
 98 A'   99 A'   31 A"  100 A'   32 A"   33 A"   34 A"   35 A"                 
  1.605   1.647   1.709   1.852   1.901   1.955   1.973   1.979
101 A'  102 A'  103 A'  104 A'  105 A'  106 A'   36 A"  107 A'                 
  2.006   2.067   2.068   2.085   2.121   2.153   2.212   2.240
108 A'  109 A'  110 A'   37 A"  111 A'  112 A'  113 A'   38 A"                 
  2.245   2.260   2.314   2.323   2.353   2.363   2.388   2.454
114 A'  115 A'   39 A"   40 A"   41 A"  116 A'  117 A'   42 A"                 
  2.485   2.532   2.600   2.638   2.698   2.726   2.734   2.754
 43 A"  118 A'  119 A'   44 A"  120 A'  121 A'   45 A"  122 A'                 
  2.806   2.875   2.910   2.921   3.024   3.054   3.172   3.313
123 A'  124 A'  125 A'  126 A'  127 A'  128 A'  129 A'  130 A'                 
  3.499   4.220   4.316   4.351   4.378   4.424   4.467   4.543
131 A'  132 A'  133 A'  134 A'  135 A'  136 A'  137 A'  138 A'                 
  4.585   4.849
139 A'  140 A'                                                                 
 
 Beta MOs, Restricted
 -- Occupied --                  
-14.463 -10.302 -10.297 -10.271 -10.264 -10.262 -10.261 -10.259
  1 A'    2 A'    3 A'    4 A'    5 A'    6 A'    7 A'    8 A'                 
-10.250  -1.075  -0.925  -0.861  -0.824  -0.790  -0.706  -0.673
  9 A'   10 A'   11 A'   12 A'   13 A'   14 A'   15 A'   16 A'                 
 -0.655  -0.616  -0.554  -0.544  -0.510  -0.503  -0.499  -0.471
 17 A'   18 A'   19 A'   20 A'   21 A'   22 A'    1 A"   23 A'                 
 -0.458  -0.417  -0.407  -0.405  -0.337  -0.286  -0.247
 24 A'   25 A'   26 A'    2 A"    3 A"    4 A"    5 A"                         
 -- Virtual --                   
  0.018   0.022   0.043   0.048   0.062   0.063   0.064   0.081
  6 A"   27 A'   28 A'   29 A'   30 A'    7 A"   31 A'    8 A"                 
  0.085   0.090   0.091   0.093   0.113   0.118   0.130   0.131
 32 A'   33 A'    9 A"   34 A'   10 A"   11 A"   35 A'   36 A'                 
  0.140   0.155   0.166   0.166   0.180   0.185   0.193   0.198
 37 A'   12 A"   38 A'   13 A"   39 A'   14 A"   40 A'   15 A"                 
  0.204   0.214   0.219   0.220   0.228   0.235   0.240   0.248
 41 A'   42 A'   16 A"   43 A'   44 A'   45 A'   46 A'   17 A"                 
  0.250   0.258   0.266   0.269   0.269   0.278   0.288   0.296
 47 A'   48 A'   49 A'   18 A"   50 A'   51 A'   52 A'   53 A'                 
  0.307   0.309   0.323   0.337   0.345   0.355   0.363   0.379
 54 A'   55 A'   56 A'   57 A'   58 A'   59 A'   60 A'   61 A'                 
  0.397   0.409   0.426   0.445   0.488   0.505   0.571   0.639
 62 A'   63 A'   64 A'   65 A'   66 A'   67 A'   68 A'   69 A'                 
  0.673   0.728   0.729   0.754   0.775   0.778   0.788   0.790
 70 A'   71 A'   19 A"   20 A"   72 A'   21 A"   73 A'   22 A"                 
  0.797   0.812   0.821   0.832   0.849   0.849   0.872   0.910
 74 A'   23 A"   75 A'   24 A"   25 A"   76 A'   77 A'   26 A"                 
  0.944   0.951   0.964   0.997   1.003   1.012   1.018   1.043
 78 A'   79 A'   80 A'   81 A'   82 A'   83 A'   27 A"   84 A'                 
  1.059   1.086   1.104   1.109   1.149   1.174   1.184   1.235
 85 A'   86 A'   87 A'   88 A'   89 A'   90 A'   91 A'   92 A'                 
  1.239   1.270   1.283   1.310   1.311   1.386   1.393   1.421
 93 A'   94 A'   95 A'   96 A'   28 A"   97 A'   29 A"   30 A"                 
  1.426   1.471   1.486   1.505   1.544   1.546   1.569   1.576
 98 A'   99 A'   31 A"  100 A'   32 A"   33 A"   34 A"   35 A"                 
  1.605   1.647   1.709   1.852   1.901   1.955   1.973   1.979
101 A'  102 A'  103 A'  104 A'  105 A'  106 A'   36 A"  107 A'                 
  2.006   2.067   2.068   2.085   2.121   2.153   2.212   2.240
108 A'  109 A'  110 A'   37 A"  111 A'  112 A'  113 A'   38 A"                 
  2.245   2.260   2.314   2.323   2.353   2.363   2.388   2.454
114 A'  115 A'   39 A"   40 A"   41 A"  116 A'  117 A'   42 A"                 
  2.485   2.532   2.600   2.638   2.698   2.726   2.734   2.754
 43 A"  118 A'  119 A'   44 A"  120 A'  121 A'   45 A"  122 A'                 
  2.806   2.875   2.910   2.921   3.024   3.054   3.172   3.313
123 A'  124 A'  125 A'  126 A'  127 A'  128 A'  129 A'  130 A'                 
  3.499   4.220   4.316   4.351   4.378   4.424   4.467   4.543
131 A'  132 A'  133 A'  134 A'  135 A'  136 A'  137 A'  138 A'                 
  4.585   4.849
139 A'  140 A'                                                                 
 --------------------------------------------------------------
 
          Ground-State Mulliken Net Atomic Charges

     Atom                 Charge (a.u.)
  ----------------------------------------
      1 C                    -0.019426
      2 C                    -0.400146
      3 C                    -0.252223
      4 C                    -0.768664
      5 N                    -0.496974
      6 H                     0.419946
      7 C                    -0.230237
      8 C                     0.008150
      9 C                     1.201971
     10 C                    -0.592817
     11 H                     0.181051
     12 H                     0.178845
     13 H                     0.187287
     14 H                     0.200868
     15 H                     0.191384
     16 H                     0.190986
  ----------------------------------------
  Sum of atomic charges =     0.000000

 -----------------------------------------------------------------
                    Cartesian Multipole Moments
 -----------------------------------------------------------------
    Charge (ESU x 10^10)
                -0.0000
    Dipole Moment (Debye)
         X      -1.5161      Y       1.7954      Z       0.0000
       Tot       2.3499
    Quadrupole Moments (Debye-Ang)
        XX     -45.5379     XY      -3.9639     YY     -44.6894
        XZ       0.0000     YZ      -0.0000     ZZ     -59.2379
    Octopole Moments (Debye-Ang^2)
       XXX     -16.1489    XXY       9.5186    XYY      -7.7445
       YYY      11.8435    XXZ       0.0000    XYZ       0.0000
       YYZ       0.0000    XZZ      -2.0532    YZZ       2.4421
       ZZZ       0.0000
    Hexadecapole Moments (Debye-Ang^3)
      XXXX    -822.6825   XXXY     -22.7935   XXYY    -200.1267
      XYYY     -17.5719   YYYY    -374.9970   XXXZ       0.0000
      XXYZ      -0.0000   XYYZ      -0.0000   YYYZ      -0.0000
      XXZZ    -192.1608   XYZZ      -3.0247   YYZZ     -95.8307
      XZZZ      -0.0000   YZZZ      -0.0000   ZZZZ     -75.6093
 -----------------------------------------------------------------
 Calculating analytic gradient of the CIS energy
 CIS relaxed dipole moment
            1
    1   2.3572165
    2  -2.4189908
    3   0.0000000
	Magnitude:	 3.378 au	 8.585 Debye
