
Running Job 1 of 1 indole-tddft-CAM-B3LYP-1.in
qchem indole-tddft-CAM-B3LYP-1.in_101692.0 /scratch/scaparas/job_3319906/qchem101692/ 0
/cm/shared/apps/spack/cpu/opt/spack/linux-centos8-zen2/gcc-10.2.0/qchem-5.3-5qddma6gy34jvefiv7mbcb7qm253n45r/exe/qcprog.exe_s indole-tddft-CAM-B3LYP-1.in_101692.0 /scratch/scaparas/job_3319906/qchem101692/
                  Welcome to Q-Chem
     A Quantum Leap Into The Future Of Chemistry


 Q-Chem 5.3, Q-Chem, Inc., Pleasanton, CA (2020)

 License issued to: University of California, San Diego (site)

 Yihan Shao,  Zhengting Gan,  E. Epifanovsky,  A. T. B. Gilbert,  M. Wormit,  
 J. Kussmann,  A. W. Lange,  A. Behn,  Jia Deng,  Xintian Feng,  D. Ghosh,  
 M. Goldey,  P. R. Horn,  L. D. Jacobson,  I. Kaliman,  T. Kus,  A. Landau,  
 Jie Liu,  E. I. Proynov,  R. M. Richard,  R. P. Steele,  E. J. Sundstrom,  
 H. L. Woodcock III,  P. M. Zimmerman,  D. Zuev,  B. Alam,  B. Albrecht,  
 A. Aldossary,  E. Alguire,  S. A. Baeppler,  D. Barton,  Z. Benda,  
 Y. A. Bernard,  E. J. Berquist,  K. B. Bravaya,  H. Burton,  K. Carter-Fenk,  
 D. Casanova,  Chun-Min Chang,  Yunqing Chen,  A. Chien,  K. D. Closser,  
 M. P. Coons,  S. Coriani,  S. Dasgupta,  A. L. Dempwolff,  M. Diedenhofen,  
 Hainam Do,  R. G. Edgar,  Po-Tung Fang,  S. Faraji,  S. Fatehi,  
 Qingguo Feng,  J. Fosso-Tande,  J. Gayvert,  Qinghui Ge,  A. Ghysels,  
 G. Gidofalvi,  J. Gomes,  J. Gonthier,  S. Gulania,  A. Gunina,  D. Hait,  
 M. W. D. Hanson-Heine,  S. Hammes-Schiffer,  P. H. P. Harbach,  
 A. W. Hauser,  M. F. Herbst,  J. E. Herr,  E. G. Hohenstein,  Z. C. Holden,  
 S. Houck,  Kerwin Hui,  B. C. Huynh,  M. Ivanov,  T.-C. Jagau,  Hyunjun Ji,  
 B. Kaduk,  K. Khistyaev,  Jaehoon Kim,  P. Klunzinger,  K. Koh,  
 D. Kosenkov,  L. Koulias,  T. Kowalczyk,  C. M. Krauter,  A. Kunitsa,  
 Ka Un Lao,  A. Laurent,  K. V. Lawler,  Joonho Lee,  D. Lefrancois,  
 S. Lehtola,  D. S. Levine,  Yi-Pei Li,  You-Sheng Lin,  Fenglai Liu,  
 Kuan-Yu Liu,  E. Livshits,  M. Loipersberger,  A. Luenser,  P. Manohar,  
 E. Mansoor,  S. F. Manzer,  Shan-Ping Mao,  Yuezhi Mao,  N. Mardirossian,  
 A. V. Marenich,  T. Markovich,  L. A. Martinez-Martinez,  S. A. Maurer,  
 N. J. Mayhall,  S. C. McKenzie,  J.-M. Mewes,  P. Morgante,  A. F. Morrison,  
 J. W. Mullinax,  K. Nanda,  T. S. Nguyen-Beck,  R. Olivares-Amaya,  
 K. J. Oosterbaan,  J. A. Parkhill,  S. K. Paul,  F. Pavosevic,  Zheng Pei,  
 T. M. Perrine,  F. Plasser,  P. Pokhilko,  S. Prager,  A. Prociuk,  
 E. Ramos,  B. Rana,  D. R. Rehn,  F. Rob,  E. Rossomme,  M. Scheurer,  
 M. Schneider,  N. Sergueev,  S. M. Sharada,  S. Sharma,  W. Skomorowski,  
 D. W. Small,  T. Stauch,  C. J. Stein,  T. Stein,  Yu-Chuan Su,  
 S. P. Veccham,  Zhen Tao,  A. J. W. Thom,  A. Tkatchenko,  T. Tsuchimochi,  
 N. M. Tubman,  L. Vogt,  M. L. Vidal,  O. Vydrov,  M. A. Watson,  J. Wenzel,  
 M. de Wergifosse,  T. A. Wesolowski,  A. White,  J. Witte,  A. Yamada,  
 Jun Yang,  K. Yao,  S. Yeganeh,  S. R. Yost,  Zhi-Qiang You,  A. Zech,  
 Igor Ying Zhang,  Xing Zhang,  Yan Zhao,  Ying Zhu,  B. R. Brooks,  
 G. K. L. Chan,  C. J. Cramer,  M. S. Gordon,  W. J. Hehre,  A. Klamt,  
 M. W. Schmidt,  C. D. Sherrill,  D. G. Truhlar,  A. Aspuru-Guzik,  R. Baer,  
 A. T. Bell,  N. A. Besley,  Jeng-Da Chai,  A. E. DePrince, III,  
 R. A. DiStasio Jr.,  A. Dreuw,  B. D. Dunietz,  T. R. Furlani,  
 Chao-Ping Hsu,  Yousung Jung,  Jing Kong,  D. S. Lambrecht,  WanZhen Liang,  
 C. Ochsenfeld,  V. A. Rassolov,  L. V. Slipchenko,  J. E. Subotnik,  
 T. Van Voorhis,  J. M. Herbert,  A. I. Krylov,  P. M. W. Gill,  M. Head-Gordon

 Contributors to earlier versions of Q-Chem not listed above: 
 R. D. Adamson,  B. Austin,  J. Baker,  G. J. O. Beran,  K. Brandhorst,  
 S. T. Brown,  E. F. C. Byrd,  A. K. Chakraborty,  C.-L. Cheng,  
 Siu Hung Chien,  D. M. Chipman,  D. L. Crittenden,  H. Dachsel,  
 R. J. Doerksen,  A. D. Dutoi,  L. Fusti-Molnar,  W. A. Goddard III,  
 A. Golubeva-Zadorozhnaya,  S. R. Gwaltney,  G. Hawkins,  A. Heyden,  
 S. Hirata,  G. Kedziora,  F. J. Keil,  C. Kelley,  Jihan Kim,  R. A. King,  
 R. Z. Khaliullin,  P. P. Korambath,  W. Kurlancheek,  A. M. Lee,  M. S. Lee,  
 S. V. Levchenko,  Ching Yeh Lin,  D. Liotard,  R. C. Lochan,  I. Lotan,  
 P. E. Maslen,  N. Nair,  D. P. O'Neill,  D. Neuhauser,  E. Neuscamman,  
 C. M. Oana,  R. Olson,  B. Peters,  R. Peverati,  P. A. Pieniazek,  
 Y. M. Rhee,  J. Ritchie,  M. A. Rohrdanz,  E. Rosta,  N. J. Russ,  
 H. F. Schaefer III,  N. E. Schultz,  N. Shenvi,  A. C. Simmonett,  A. Sodt,  
 D. Stuck,  K. S. Thanthiriwatte,  V. Vanovschi,  Tao Wang,  A. Warshel,  
 C. F. Williams,  Q. Wu,  X. Xu,  W. Zhang

 Please cite Q-Chem as follows:
 Y. Shao et al., Mol. Phys. 113, 184-215 (2015)
 DOI: 10.1080/00268976.2014.952696

 Q-Chem 5.3.1 for Intel X86 EM64T Linux

 Parts of Q-Chem use Armadillo 9.800.1 (Horizon Scraper).
 http://arma.sourceforge.net/

 Q-Chem begins on Wed Jun  9 11:04:32 2021  

Host: 
0

     Scratch files written to /scratch/scaparas/job_3319906/qchem101692//
 Aug2920 |scratch|qcdevops|jenkins|workspace|build_RNUM    
Processing $rem in /cm/shared/apps/spack/cpu/opt/spack/linux-centos8-zen2/gcc-10.2.0/qchem-5.3-5qddma6gy34jvefiv7mbcb7qm253n45r/config/preferences:
Processing $rem in /home/scaparas/.qchemrc:

Checking the input file for inconsistencies... 	...done.

--------------------------------------------------------------
User input:
--------------------------------------------------------------
$molecule
0 1
C         2.1665374654   -0.6554056232    0.0000000000
C         2.1169746126    0.7536230414    0.0000000000
C         0.9078293763    1.4297941068    0.0000000000
C        -0.2602955279    0.6603427264    0.0000000000
N        -1.5823227859    1.0465645945    0.0000000000
H        -1.9138448994    1.9970952131    0.0000000000
C        -2.3831006726   -0.0753467300    0.0000000000
C        -1.6031102305   -1.1965127142    0.0000000000
C        -0.2354025284   -0.7544080528    0.0000000000
C         1.0061117308   -1.4110304737    0.0000000000
H         3.1323502333   -1.1522732729    0.0000000000
H         3.0445811710    1.3187694778    0.0000000000
H         0.8711978004    2.5159935936    0.0000000000
H        -3.4599415153    0.0224367365    0.0000000000
H        -1.9589772753   -2.2174458375    0.0000000000
H         1.0526344532   -2.4968312448    0.0000000000
$end

$rem
BASIS  =  6-31+G*
GUI  =  2
JOB_TYPE  =  Optimization
METHOD  = CAM-B3LYP
SCF_CONVERGENCE  =  8
THRESH = 12
CIS_N_ROOTS  = 3
CIS_SINGLETS = true
CIS_TRIPLETS = false
CIS_STATE_DERIV = 1
$end
--------------------------------------------------------------
 ----------------------------------------------------------------
             Standard Nuclear Orientation (Angstroms)
    I     Atom           X                Y                Z
 ----------------------------------------------------------------
    1      C       2.1545809193    -0.6917179572    -0.0000000000
    2      C       2.1305971189     0.7179781205     0.0000000000
    3      C       0.9339220871     1.4159812583     0.0000000000
    4      C      -0.2479743579     0.6678555924     0.0000000000
    5      N      -1.5627747859     1.0780058536     0.0000000000
    6      H      -1.8769921819     2.0343963579     0.0000000000
    7      C      -2.3837811130    -0.0291882824    -0.0000000000
    8      C      -1.6242659160    -1.1643248026    -0.0000000000
    9      C      -0.2487601923    -0.7471139518    -0.0000000000
   10      C       0.9806332983    -1.4261590938    -0.0000000000
   11      H       3.1112175340    -1.2060312385    -0.0000000000
   12      H       3.0683071256     1.2661973878     0.0000000000
   13      H       0.9170087673     2.5026666484     0.0000000000
   14      H      -3.4586700515     0.0881214642    -0.0000000000
   15      H      -1.9986021312    -2.1786315579    -0.0000000000
   16      H       1.0074433715    -2.5126253373    -0.0000000000
 ----------------------------------------------------------------
 Molecular Point Group                 Cs    NOp =  2
 Largest Abelian Subgroup              Cs    NOp =  2
 Nuclear Repulsion Energy =         400.72813817 hartrees
 There are       31 alpha and       31 beta electrons
 Requested basis set is 6-31+G(d)
 There are 59 shells and 185 basis functions

 Total QAlloc Memory Limit   8000 MB
 Mega-Array Size       188 MB
 MEM_STATIC part       192 MB
 A cutoff of  1.0D-12 yielded   1657 shell pairs
 There are     17105 function pairs
 Smallest overlap matrix eigenvalue = 1.29E-06

 Scale SEOQF with 1.000000e-01/1.000000e-01/1.000000e-01

 Standard Electronic Orientation quadrupole field applied
 Nucleus-field energy     =     0.0000000117 hartrees
 Guess from superposition of atomic densities
 Warning:  Energy on first SCF cycle will be non-variational
 SAD guess density has 62.000000 electrons

 -----------------------------------------------------------------------
  General SCF calculation program by
  Eric Jon Sundstrom, Paul Horn, Yuezhi Mao, Dmitri Zuev, Alec White,
  David Stuck, Shaama M.S., Shane Yost, Joonho Lee, David Small,
  Daniel Levine, Susi Lehtola, Hugh Burton, Evgeny Epifanovsky,
  Bang C. Huynh
 -----------------------------------------------------------------------
 Exchange:     0.1900 Hartree-Fock + 0.3500 B88 + 0.4600 muB88 + LR-HF
 Correlation:  0.1900 VWN5 + 0.8100 LYP
 Using SG-1 standard quadrature grid
 using 4 threads for integral computing
 -------------------------------------------------------
 OpenMP Integral computing Module                
 Release: version 1.0, May 2013, Q-Chem Inc. Pittsburgh 
 -------------------------------------------------------
 using 4 threads for integral computing
 -------------------------------------------------------
 OpenMP Integral computing Module                
 Release: version 1.0, May 2013, Q-Chem Inc. Pittsburgh 
 -------------------------------------------------------
 A restricted SCF calculation will be
 performed using DIIS
 SCF converges when DIIS error is below 1.0e-08
 ---------------------------------------
  Cycle       Energy         DIIS error
 ---------------------------------------
    1    -366.4824638443      5.56e-02  
    2    -363.5429160345      3.97e-03  
    3    -363.5698162942      3.46e-03  
    4    -363.6225800087      7.11e-04  
    5    -363.6243191267      3.40e-04  
    6    -363.6247948270      5.13e-05  
    7    -363.6248051453      2.10e-05  
    8    -363.6248072074      3.90e-06  
    9    -363.6248073608      2.09e-06  
   10    -363.6248073932      7.19e-07  
   11    -363.6248073988      2.77e-07  
   12    -363.6248073993      8.08e-08  
   13    -363.6248073994      3.32e-08  
   14    -363.6248073995      1.60e-08  
   15    -363.6248073995      3.59e-09  Convergence criterion met
 ---------------------------------------
 SCF time:   CPU 61.97s  wall 16.00s 
 SCF   energy in the final basis set =     -363.6248073995
 Total energy in the final basis set =     -363.6248073995
 
 Direct TDDFT/TDA calculation will be performed
 Exchange:     0.1900 Hartree-Fock + 0.3500 B88 + 0.4600 muB88 + LR-HF
 Correlation:  0.1900 VWN5 + 0.8100 LYP
 Using SG-1 standard quadrature grid
 Singlet excitation energies requested
 CIS energy converged when residual is below 10e- 6
 ---------------------------------------------------
 Iter    Rts Conv    Rts Left    Ttl Dev     Max Dev
 ---------------------------------------------------
   1         0           3      0.002301    0.001718
   2         0           3      0.000592    0.000424
   3         0           3      0.000322    0.000210
   4         0           3      0.000180    0.000095
   5         0           3      0.000100    0.000053
   6         0           3      0.000057    0.000029
   7         0           3      0.000053    0.000030
   8         1           2      0.000764    0.000666
   9         1           2      0.000469    0.000325
  10         1           2      0.000172    0.000140
  11         1           2      0.000055    0.000044
  12         1           2      0.000020    0.000016
  13         1           2      0.000008    0.000006
  14         2           1      0.000003    0.000002
  15         3           0      0.000001    0.000001    Roots Converged
 ---------------------------------------------------
 
 ---------------------------------------------------
         TDDFT/TDA Excitation Energies              
 ---------------------------------------------------

 Excited state   1: excitation energy (eV) =    5.1529
 Total energy for state  1:                  -363.43544198 au
    Multiplicity: Singlet
    Trans. Mom.: -0.3480 X  -0.3416 Y  -0.0000 Z
    Strength   :     0.0300161502
    D(   30) --> V(    2) amplitude =  0.7917
    D(   31) --> V(    6) amplitude =  0.5367

 Excited state   2: excitation energy (eV) =    5.2558
 Total energy for state  2:                  -363.43166078 au
    Multiplicity: Singlet
    Trans. Mom.:  0.7737 X  -0.6364 Y   0.0000 Z
    Strength   :     0.1292300802
    D(   30) --> V(    6) amplitude = -0.3139
    D(   31) --> V(    2) amplitude =  0.9074

 Excited state   3: excitation energy (eV) =    5.2863
 Total energy for state  3:                  -363.43053997 au
    Multiplicity: Singlet
    Trans. Mom.:  0.0000 X   0.0000 Y   0.1595 Z
    Strength   :     0.0032933260
    D(   31) --> V(    1) amplitude =  0.9711
 
 ---------------------------------------------------
 Calculating Relaxed Density
 ---------------------------------------------------
 Iter    Rts Conv    Rts Left    Ttl Dev     Max Dev
 ---------------------------------------------------
   1         0           3      0.000951    0.000467
   2         0           3      0.000384    0.000198
   3         0           3      0.000113    0.000045
   4         0           3      0.000036    0.000017
   5         0           3      0.000011    0.000005
   6         1           2      0.000003    0.000001
   7         3           0      0.000000    0.000000    Roots Converged
 ---------------------------------------------------
  SETman timing summary (seconds)
  CPU time               227.33s
  System time              0.00s
  Wall time               57.14s
 
 --------------------------------------------------------------
             Orbital Energies (a.u.) and Symmetries
 --------------------------------------------------------------
 
 Alpha MOs, Restricted
 -- Occupied --                  
-14.458 -10.299 -10.296 -10.266 -10.261 -10.261 -10.260 -10.256
  1 A'    2 A'    3 A'    4 A'    5 A'    6 A'    7 A'    8 A'                 
-10.252  -1.069  -0.926  -0.867  -0.818  -0.800  -0.702  -0.671
  9 A'   10 A'   11 A'   12 A'   13 A'   14 A'   15 A'   16 A'                 
 -0.659  -0.615  -0.554  -0.543  -0.507  -0.499  -0.497  -0.481
 17 A'   18 A'   19 A'   20 A'   21 A'   22 A'    1 A"   23 A'                 
 -0.459  -0.422  -0.404  -0.401  -0.341  -0.278  -0.260
 24 A'   25 A'    2 A"   26 A'    3 A"    4 A"    5 A"                         
 -- Virtual --                   
  0.024   0.024   0.043   0.048   0.062   0.063   0.064   0.080
 27 A'    6 A"   28 A'   29 A'   30 A'    7 A"   31 A'    8 A"                 
  0.086   0.091   0.091   0.094   0.113   0.120   0.130   0.132
 32 A'   33 A'    9 A"   34 A'   10 A"   11 A"   35 A'   36 A'                 
  0.141   0.154   0.167   0.168   0.182   0.186   0.194   0.199
 37 A'   12 A"   13 A"   38 A'   39 A'   14 A"   40 A'   15 A"                 
  0.203   0.217   0.218   0.219   0.228   0.235   0.240   0.249
 41 A'   42 A'   43 A'   16 A"   44 A'   45 A'   46 A'   17 A"                 
  0.250   0.260   0.264   0.270   0.273   0.279   0.291   0.296
 47 A'   48 A'   49 A'   50 A'   18 A"   51 A'   52 A'   53 A'                 
  0.308   0.309   0.322   0.337   0.350   0.359   0.360   0.376
 54 A'   55 A'   56 A'   57 A'   58 A'   59 A'   60 A'   61 A'                 
  0.397   0.418   0.428   0.452   0.497   0.505   0.570   0.642
 62 A'   63 A'   64 A'   65 A'   66 A'   67 A'   68 A'   69 A'                 
  0.686   0.729   0.732   0.755   0.773   0.777   0.788   0.793
 70 A'   19 A"   71 A'   20 A"   72 A'   21 A"   73 A'   22 A"                 
  0.800   0.809   0.815   0.834   0.849   0.858   0.874   0.911
 74 A'   23 A"   75 A'   24 A"   25 A"   76 A'   77 A'   26 A"                 
  0.951   0.956   0.968   0.992   0.998   1.010   1.020   1.041
 78 A'   79 A'   80 A'   81 A'   82 A'   83 A'   27 A"   84 A'                 
  1.061   1.087   1.104   1.121   1.155   1.174   1.180   1.231
 85 A'   86 A'   87 A'   88 A'   89 A'   90 A'   91 A'   92 A'                 
  1.243   1.269   1.285   1.310   1.316   1.381   1.397   1.417
 93 A'   94 A'   95 A'   28 A"   96 A'   97 A'   29 A"   30 A"                 
  1.431   1.480   1.492   1.513   1.538   1.544   1.574   1.581
 98 A'   99 A'   31 A"  100 A'   32 A"   33 A"   34 A"   35 A"                 
  1.602   1.654   1.717   1.861   1.917   1.955   1.969   1.991
101 A'  102 A'  103 A'  104 A'  105 A'  106 A'   36 A"  107 A'                 
  2.007   2.064   2.068   2.084   2.139   2.173   2.214   2.246
108 A'  109 A'  110 A'   37 A"  111 A'  112 A'  113 A'  114 A'                 
  2.256   2.269   2.328   2.339   2.345   2.360   2.387   2.461
 38 A"  115 A'   39 A"   40 A"   41 A"  116 A'  117 A'   42 A"                 
  2.487   2.519   2.622   2.640   2.712   2.733   2.748   2.773
 43 A"  118 A'  119 A'   44 A"  120 A'  121 A'   45 A"  122 A'                 
  2.811   2.884   2.920   2.932   3.028   3.055   3.187   3.317
123 A'  124 A'  125 A'  126 A'  127 A'  128 A'  129 A'  130 A'                 
  3.520   4.218   4.323   4.355   4.390   4.426   4.463   4.546
131 A'  132 A'  133 A'  134 A'  135 A'  136 A'  137 A'  138 A'                 
  4.587   4.856
139 A'  140 A'                                                                 
 
 Beta MOs, Restricted
 -- Occupied --                  
-14.458 -10.299 -10.296 -10.266 -10.261 -10.261 -10.260 -10.256
  1 A'    2 A'    3 A'    4 A'    5 A'    6 A'    7 A'    8 A'                 
-10.252  -1.069  -0.926  -0.867  -0.818  -0.800  -0.702  -0.671
  9 A'   10 A'   11 A'   12 A'   13 A'   14 A'   15 A'   16 A'                 
 -0.659  -0.615  -0.554  -0.543  -0.507  -0.499  -0.497  -0.481
 17 A'   18 A'   19 A'   20 A'   21 A'   22 A'    1 A"   23 A'                 
 -0.459  -0.422  -0.404  -0.401  -0.341  -0.278  -0.260
 24 A'   25 A'    2 A"   26 A'    3 A"    4 A"    5 A"                         
 -- Virtual --                   
  0.024   0.024   0.043   0.048   0.062   0.063   0.064   0.080
 27 A'    6 A"   28 A'   29 A'   30 A'    7 A"   31 A'    8 A"                 
  0.086   0.091   0.091   0.094   0.113   0.120   0.130   0.132
 32 A'   33 A'    9 A"   34 A'   10 A"   11 A"   35 A'   36 A'                 
  0.141   0.154   0.167   0.168   0.182   0.186   0.194   0.199
 37 A'   12 A"   13 A"   38 A'   39 A'   14 A"   40 A'   15 A"                 
  0.203   0.217   0.218   0.219   0.228   0.235   0.240   0.249
 41 A'   42 A'   43 A'   16 A"   44 A'   45 A'   46 A'   17 A"                 
  0.250   0.260   0.264   0.270   0.273   0.279   0.291   0.296
 47 A'   48 A'   49 A'   50 A'   18 A"   51 A'   52 A'   53 A'                 
  0.308   0.309   0.322   0.337   0.350   0.359   0.360   0.376
 54 A'   55 A'   56 A'   57 A'   58 A'   59 A'   60 A'   61 A'                 
  0.397   0.418   0.428   0.452   0.497   0.505   0.570   0.642
 62 A'   63 A'   64 A'   65 A'   66 A'   67 A'   68 A'   69 A'                 
  0.686   0.729   0.732   0.755   0.773   0.777   0.788   0.793
 70 A'   19 A"   71 A'   20 A"   72 A'   21 A"   73 A'   22 A"                 
  0.800   0.809   0.815   0.834   0.849   0.858   0.874   0.911
 74 A'   23 A"   75 A'   24 A"   25 A"   76 A'   77 A'   26 A"                 
  0.951   0.956   0.968   0.992   0.998   1.010   1.020   1.041
 78 A'   79 A'   80 A'   81 A'   82 A'   83 A'   27 A"   84 A'                 
  1.061   1.087   1.104   1.121   1.155   1.174   1.180   1.231
 85 A'   86 A'   87 A'   88 A'   89 A'   90 A'   91 A'   92 A'                 
  1.243   1.269   1.285   1.310   1.316   1.381   1.397   1.417
 93 A'   94 A'   95 A'   28 A"   96 A'   97 A'   29 A"   30 A"                 
  1.431   1.480   1.492   1.513   1.538   1.544   1.574   1.581
 98 A'   99 A'   31 A"  100 A'   32 A"   33 A"   34 A"   35 A"                 
  1.602   1.654   1.717   1.861   1.917   1.955   1.969   1.991
101 A'  102 A'  103 A'  104 A'  105 A'  106 A'   36 A"  107 A'                 
  2.007   2.064   2.068   2.084   2.139   2.173   2.214   2.246
108 A'  109 A'  110 A'   37 A"  111 A'  112 A'  113 A'  114 A'                 
  2.256   2.269   2.328   2.339   2.345   2.360   2.387   2.461
 38 A"  115 A'   39 A"   40 A"   41 A"  116 A'  117 A'   42 A"                 
  2.487   2.519   2.622   2.640   2.712   2.733   2.748   2.773
 43 A"  118 A'  119 A'   44 A"  120 A'  121 A'   45 A"  122 A'                 
  2.811   2.884   2.920   2.932   3.028   3.055   3.187   3.317
123 A'  124 A'  125 A'  126 A'  127 A'  128 A'  129 A'  130 A'                 
  3.520   4.218   4.323   4.355   4.390   4.426   4.463   4.546
131 A'  132 A'  133 A'  134 A'  135 A'  136 A'  137 A'  138 A'                 
  4.587   4.856
139 A'  140 A'                                                                 
 --------------------------------------------------------------
 
          Ground-State Mulliken Net Atomic Charges

     Atom                 Charge (a.u.)
  ----------------------------------------
      1 C                     0.016436
      2 C                    -0.459477
      3 C                    -0.129156
      4 C                    -0.787418
      5 N                    -0.533898
      6 H                     0.418802
      7 C                    -0.251917
      8 C                     0.117058
      9 C                     1.165758
     10 C                    -0.682390
     11 H                     0.179662
     12 H                     0.180825
     13 H                     0.183963
     14 H                     0.197973
     15 H                     0.195817
     16 H                     0.187962
  ----------------------------------------
  Sum of atomic charges =     0.000000

 -----------------------------------------------------------------
                    Cartesian Multipole Moments
 -----------------------------------------------------------------
    Charge (ESU x 10^10)
                -0.0000
    Dipole Moment (Debye)
         X      -1.4792      Y       1.5658      Z      -0.0000
       Tot       2.1540
    Quadrupole Moments (Debye-Ang)
        XX     -45.6747     XY      -3.1880     YY     -44.7071
        XZ      -0.0000     YZ       0.0000     ZZ     -58.9873
    Octopole Moments (Debye-Ang^2)
       XXX     -14.7804    XXY       8.3845    XYY      -8.0269
       YYY      10.6012    XXZ       0.0000    XYZ      -0.0000
       YYZ       0.0000    XZZ      -2.0282    YZZ       2.0600
       ZZZ       0.0000
    Hexadecapole Moments (Debye-Ang^3)
      XXXX    -823.1752   XXXY     -21.9964   XXYY    -198.4946
      XYYY     -19.9870   YYYY    -373.8730   XXXZ      -0.0000
      XXYZ       0.0000   XYYZ       0.0000   YYYZ      -0.0000
      XXZZ    -190.6442   XYZZ      -4.0509   YYZZ     -94.6451
      XZZZ      -0.0000   YZZZ       0.0000   ZZZZ     -74.5127
 -----------------------------------------------------------------
 Calculating analytic gradient of the CIS energy
 CIS relaxed dipole moment
            1
    1  -0.7582857
    2   0.4698886
    3   0.0000000
	Magnitude:	 0.892 au	 2.267 Debye
 CIS 1 State Energy is -363.4354419835
 Gradient of the state energy (including CIS Excitation Energy)
            1           2           3           4           5           6
    1  -0.0224011  -0.0254657   0.0131322   0.0109932  -0.0219355   0.0000737
    2  -0.0045505  -0.0038101  -0.0230741  -0.0280118  -0.0034521  -0.0016001
    3  -0.0000000  -0.0000000   0.0000000  -0.0000000  -0.0000000   0.0000000
            7           8           9          10          11          12
    1   0.0225928  -0.0081150   0.0086172   0.0217106   0.0005501   0.0006914
    2   0.0079289   0.0022608   0.0282625   0.0253902  -0.0003712   0.0008917
    3   0.0000000  -0.0000000   0.0000000   0.0000000   0.0000000  -0.0000000
           13          14          15          16
    1   0.0002146  -0.0005965  -0.0002832   0.0002213
    2   0.0010322   0.0003135  -0.0001248  -0.0010850
    3   0.0000000  -0.0000000   0.0000000  -0.0000000
 Gradient time:  CPU 39.44 s  wall 9.98 s
 Geometry Optimization Parameters
   NAtoms,    NIC,     NZ,  NCons,   NDum,   NFix, NCnnct, MaxDiis
       16     116       0       0       0       0       0       0


** GEOMETRY OPTIMIZATION IN DELOCALIZED INTERNAL COORDINATES **
   Searching for a Minimum

   Optimization Cycle:   1

                       Coordinates (Angstroms)
     ATOM                X               Y               Z
      1  C         2.1545809193   -0.6917179572    0.0000000000
      2  C         2.1305971189    0.7179781205    0.0000000000
      3  C         0.9339220871    1.4159812583    0.0000000000
      4  C        -0.2479743579    0.6678555924    0.0000000000
      5  N        -1.5627747859    1.0780058536    0.0000000000
      6  H        -1.8769921819    2.0343963579    0.0000000000
      7  C        -2.3837811130   -0.0291882824    0.0000000000
      8  C        -1.6242659160   -1.1643248026    0.0000000000
      9  C        -0.2487601923   -0.7471139518    0.0000000000
     10  C         0.9806332983   -1.4261590938    0.0000000000
     11  H         3.1112175340   -1.2060312385    0.0000000000
     12  H         3.0683071256    1.2661973878    0.0000000000
     13  H         0.9170087673    2.5026666484    0.0000000000
     14  H        -3.4586700515    0.0881214642    0.0000000000
     15  H        -1.9986021312   -2.1786315579    0.0000000000
     16  H         1.0074433715   -2.5126253373    0.0000000000
   Point Group: cs    Number of degrees of freedom:    29


   Energy is   -363.435441983


 Attempting to generate delocalized internal coordinates
 Initial Hessian constructed with Jon Baker's OPTIMIZE code

 29 Hessian modes will be used to form the next step
  Hessian Eigenvalues:
     0.160000    0.160000    0.160000    0.160000    0.160000    0.160000
     0.160000    0.220000    0.221874    0.226615    0.240154    0.246535
     0.351831    0.351854    0.352547    0.352641    0.358411    0.358524
     0.370243    0.381736    0.421745    0.429383    0.450758    0.465320
     0.465358    0.471677    0.475377    0.478120    0.507735

 Minimum search - taking simple RFO step
 Searching for Lamda that Minimizes Along All modes
 Value Taken    Lamda =  -0.00807068
 Step Taken.  Stepsize is  0.136751

                             Maximum     Tolerance    Cnvgd?
         Gradient           0.033502      0.000300      NO
         Displacement       0.076835      0.001200      NO
         Energy change     *********      0.000001      NO


 New Cartesian Coordinates Obtained by Inverse Iteration

 Displacement from previous Coordinates is:  0.175381
 ----------------------------------------------------------------
             Standard Nuclear Orientation (Angstroms)
    I     Atom           X                Y                Z
 ----------------------------------------------------------------
    1      C       2.1665676485    -0.6922679119     0.0000000000
    2      C       2.1570280173     0.7363995068     0.0000000000
    3      C       0.9381312746     1.4505347471     0.0000000000
    4      C      -0.2475080111     0.6833966895     0.0000000000
    5      N      -1.5580661503     1.0770202152     0.0000000000
    6      H      -1.8700599233     2.0359530470     0.0000000000
    7      C      -2.4038660595    -0.0366107138     0.0000000000
    8      C      -1.6355557569    -1.1745088059     0.0000000000
    9      C      -0.2600006911    -0.7672176468     0.0000000000
   10      C       0.9698167900    -1.4557927831     0.0000000000
   11      H       3.1221748495    -1.2064506740     0.0000000000
   12      H       3.0981455450     1.2756644803     0.0000000000
   13      H       0.9153666907     2.5355999158     0.0000000000
   14      H      -3.4776002781     0.0829127848     0.0000000000
   15      H      -2.0096463611    -2.1885745962     0.0000000000
   16      H       0.9969619082    -2.5406477931     0.0000000000
 ----------------------------------------------------------------
 Molecular Point Group                 Cs    NOp =  2
 Largest Abelian Subgroup              Cs    NOp =  2
 Nuclear Repulsion Energy =         397.14733115 hartrees
 There are       31 alpha and       31 beta electrons
 Applying Cartesian multipole field
    Component          Value
    ---------          -----
     (2,0,0)        1.00000E-11
     (0,2,0)        2.00000E-11
     (0,0,2)       -3.00000E-11
 Nucleus-field energy     =     0.0000000119 hartrees
 Requested basis set is 6-31+G(d)
 There are 59 shells and 185 basis functions
 A cutoff of  1.0D-12 yielded   1656 shell pairs
 There are     17099 function pairs
 Smallest overlap matrix eigenvalue = 1.46E-06
 Guess MOs from SCF MO coefficient file

 -----------------------------------------------------------------------
  General SCF calculation program by
  Eric Jon Sundstrom, Paul Horn, Yuezhi Mao, Dmitri Zuev, Alec White,
  David Stuck, Shaama M.S., Shane Yost, Joonho Lee, David Small,
  Daniel Levine, Susi Lehtola, Hugh Burton, Evgeny Epifanovsky,
  Bang C. Huynh
 -----------------------------------------------------------------------
 Exchange:     0.1900 Hartree-Fock + 0.3500 B88 + 0.4600 muB88 + LR-HF
 Correlation:  0.1900 VWN5 + 0.8100 LYP
 Using SG-1 standard quadrature grid
 using 4 threads for integral computing
 -------------------------------------------------------
 OpenMP Integral computing Module                
 Release: version 1.0, May 2013, Q-Chem Inc. Pittsburgh 
 -------------------------------------------------------
 using 4 threads for integral computing
 -------------------------------------------------------
 OpenMP Integral computing Module                
 Release: version 1.0, May 2013, Q-Chem Inc. Pittsburgh 
 -------------------------------------------------------
 A restricted SCF calculation will be
 performed using DIIS
 SCF converges when DIIS error is below 1.0e-08
 ---------------------------------------
  Cycle       Energy         DIIS error
 ---------------------------------------
    1    -363.6178156259      8.29e-04  
    2    -363.6205768994      1.89e-04  
    3    -363.6206728554      1.47e-04  
    4    -363.6207619624      3.01e-05  
    5    -363.6207662756      1.26e-05  
    6    -363.6207674615      4.25e-06  
    7    -363.6207676432      2.24e-06  
    8    -363.6207677055      5.53e-07  
    9    -363.6207677105      3.42e-07  
   10    -363.6207677113      8.24e-08  
   11    -363.6207677113      4.51e-08  
   12    -363.6207677114      8.65e-09  Convergence criterion met
 ---------------------------------------
 SCF time:   CPU 48.58s  wall 12.00s 
 SCF   energy in the final basis set =     -363.6207677114
 Total energy in the final basis set =     -363.6207677114
 
 Direct TDDFT/TDA calculation will be performed
 Exchange:     0.1900 Hartree-Fock + 0.3500 B88 + 0.4600 muB88 + LR-HF
 Correlation:  0.1900 VWN5 + 0.8100 LYP
 Using SG-1 standard quadrature grid
 Singlet excitation energies requested
 CIS energy converged when residual is below 10e- 6
 ---------------------------------------------------
 Iter    Rts Conv    Rts Left    Ttl Dev     Max Dev
 ---------------------------------------------------
   1         0           3      0.003688    0.001738
   2         0           3      0.001055    0.000499
   3         0           3      0.000594    0.000304
   4         0           3      0.000256    0.000119
   5         0           3      0.000090    0.000041
   6         0           3      0.000042    0.000016
   7         0           3      0.000018    0.000007
   8         0           3      0.000007    0.000003
   9         2           1      0.000003    0.000002
  10         3           0      0.000002    0.000001    Roots Converged
 ---------------------------------------------------
 
 ---------------------------------------------------
         TDDFT/TDA Excitation Energies              
 ---------------------------------------------------

 Excited state   1: excitation energy (eV) =    4.9299
 Total energy for state  1:                  -363.43959584 au
    Multiplicity: Singlet
    Trans. Mom.: -0.4172 X  -0.4159 Y  -0.0000 Z
    Strength   :     0.0419095183
    D(   30) --> V(    1) amplitude =  0.7893
    D(   31) --> V(    1) amplitude =  0.2327
    D(   31) --> V(    5) amplitude =  0.5079

 Excited state   2: excitation energy (eV) =    5.1441
 Total energy for state  2:                  -363.43172647 au
    Multiplicity: Singlet
    Trans. Mom.:  0.7361 X  -0.6403 Y   0.0000 Z
    Strength   :     0.1199475915
    D(   30) --> V(    5) amplitude = -0.3314
    D(   31) --> V(    1) amplitude =  0.8784

 Excited state   3: excitation energy (eV) =    5.3044
 Total energy for state  3:                  -363.42583560 au
    Multiplicity: Singlet
    Trans. Mom.:  0.0000 X  -0.0000 Y  -0.1558 Z
    Strength   :     0.0031532960
    D(   31) --> V(    2) amplitude =  0.9689
 
 ---------------------------------------------------
 Calculating Relaxed Density
 ---------------------------------------------------
 Iter    Rts Conv    Rts Left    Ttl Dev     Max Dev
 ---------------------------------------------------
   1         0           3      0.000942    0.000475
   2         0           3      0.000381    0.000202
   3         0           3      0.000115    0.000049
   4         0           3      0.000039    0.000021
   5         0           3      0.000013    0.000007
   6         0           3      0.000004    0.000002
   7         3           0      0.000000    0.000000    Roots Converged
 ---------------------------------------------------
  SETman timing summary (seconds)
  CPU time               193.57s
  System time              0.00s
  Wall time               48.65s
 
 --------------------------------------------------------------
             Orbital Energies (a.u.) and Symmetries
 --------------------------------------------------------------
 
 Alpha MOs, Restricted
 -- Occupied --                  
-14.460 -10.302 -10.301 -10.271 -10.268 -10.267 -10.265 -10.261
  1 A'    2 A'    3 A'    4 A'    5 A'    6 A'    7 A'    8 A'                 
-10.256  -1.065  -0.915  -0.866  -0.811  -0.798  -0.702  -0.671
  9 A'   10 A'   11 A'   12 A'   13 A'   14 A'   15 A'   16 A'                 
 -0.656  -0.611  -0.559  -0.540  -0.504  -0.500  -0.494  -0.479
 17 A'   18 A'   19 A'   20 A'   21 A'   22 A'    1 A"   23 A'                 
 -0.461  -0.421  -0.402  -0.397  -0.343  -0.273  -0.260
 24 A'   25 A'   26 A'    2 A"    3 A"    4 A"    5 A"                         
 -- Virtual --                   
  0.019   0.024   0.043   0.047   0.058   0.062   0.063   0.080
  6 A"   27 A'   28 A'   29 A'    7 A"   30 A'   31 A'    8 A"                 
  0.086   0.090   0.090   0.094   0.113   0.119   0.129   0.131
 32 A'   33 A'    9 A"   34 A'   10 A"   11 A"   35 A'   36 A'                 
  0.141   0.154   0.166   0.167   0.181   0.186   0.193   0.197
 37 A'   12 A"   13 A"   38 A'   39 A'   14 A"   40 A'   15 A"                 
  0.202   0.217   0.217   0.219   0.228   0.235   0.235   0.243
 41 A'   42 A'   16 A"   43 A'   44 A'   45 A'   46 A'   17 A"                 
  0.249   0.259   0.262   0.269   0.270   0.277   0.291   0.295
 47 A'   48 A'   49 A'   18 A"   50 A'   51 A'   52 A'   53 A'                 
  0.303   0.308   0.323   0.333   0.343   0.352   0.357   0.371
 54 A'   55 A'   56 A'   57 A'   58 A'   59 A'   60 A'   61 A'                 
  0.388   0.413   0.423   0.445   0.484   0.502   0.564   0.624
 62 A'   63 A'   64 A'   65 A'   66 A'   67 A'   68 A'   69 A'                 
  0.659   0.730   0.731   0.755   0.763   0.777   0.786   0.791
 70 A'   19 A"   71 A'   20 A"   72 A'   21 A"   73 A'   74 A'                 
  0.793   0.809   0.809   0.833   0.847   0.848   0.871   0.908
 22 A"   23 A"   75 A'   24 A"   25 A"   76 A'   77 A'   26 A"                 
  0.947   0.955   0.966   0.994   1.000   1.011   1.019   1.043
 78 A'   79 A'   80 A'   81 A'   82 A'   83 A'   27 A"   84 A'                 
  1.052   1.087   1.106   1.121   1.151   1.170   1.175   1.226
 85 A'   86 A'   87 A'   88 A'   89 A'   90 A'   91 A'   92 A'                 
  1.238   1.264   1.282   1.305   1.312   1.374   1.398   1.418
 93 A'   94 A'   95 A'   96 A'   28 A"   97 A'   29 A"   30 A"                 
  1.425   1.468   1.486   1.499   1.536   1.547   1.570   1.573
 98 A'   99 A'   31 A"  100 A'   32 A"   33 A"   34 A"   35 A"                 
  1.592   1.647   1.709   1.860   1.897   1.947   1.964   1.972
101 A'  102 A'  103 A'  104 A'  105 A'  106 A'   36 A"  107 A'                 
  1.995   2.057   2.062   2.080   2.115   2.130   2.192   2.207
108 A'  109 A'  110 A'   37 A"  111 A'  112 A'  113 A'  114 A'                 
  2.230   2.260   2.307   2.317   2.334   2.336   2.370   2.441
 38 A"  115 A'   39 A"   40 A"   41 A"  116 A'  117 A'   42 A"                 
  2.481   2.512   2.605   2.623   2.696   2.708   2.721   2.749
 43 A"  118 A'  119 A'   44 A"  120 A'   45 A"  121 A'  122 A'                 
  2.786   2.862   2.899   2.907   3.027   3.036   3.168   3.294
123 A'  124 A'  125 A'  126 A'  127 A'  128 A'  129 A'  130 A'                 
  3.459   4.208   4.301   4.352   4.385   4.421   4.459   4.539
131 A'  132 A'  133 A'  134 A'  135 A'  136 A'  137 A'  138 A'                 
  4.581   4.834
139 A'  140 A'                                                                 
 
 Beta MOs, Restricted
 -- Occupied --                  
-14.460 -10.302 -10.301 -10.271 -10.268 -10.267 -10.265 -10.261
  1 A'    2 A'    3 A'    4 A'    5 A'    6 A'    7 A'    8 A'                 
-10.256  -1.065  -0.915  -0.866  -0.811  -0.798  -0.702  -0.671
  9 A'   10 A'   11 A'   12 A'   13 A'   14 A'   15 A'   16 A'                 
 -0.656  -0.611  -0.559  -0.540  -0.504  -0.500  -0.494  -0.479
 17 A'   18 A'   19 A'   20 A'   21 A'   22 A'    1 A"   23 A'                 
 -0.461  -0.421  -0.402  -0.397  -0.343  -0.273  -0.260
 24 A'   25 A'   26 A'    2 A"    3 A"    4 A"    5 A"                         
 -- Virtual --                   
  0.019   0.024   0.043   0.047   0.058   0.062   0.063   0.080
  6 A"   27 A'   28 A'   29 A'    7 A"   30 A'   31 A'    8 A"                 
  0.086   0.090   0.090   0.094   0.113   0.119   0.129   0.131
 32 A'   33 A'    9 A"   34 A'   10 A"   11 A"   35 A'   36 A'                 
  0.141   0.154   0.166   0.167   0.181   0.186   0.193   0.197
 37 A'   12 A"   13 A"   38 A'   39 A'   14 A"   40 A'   15 A"                 
  0.202   0.217   0.217   0.219   0.228   0.235   0.235   0.243
 41 A'   42 A'   16 A"   43 A'   44 A'   45 A'   46 A'   17 A"                 
  0.249   0.259   0.262   0.269   0.270   0.277   0.291   0.295
 47 A'   48 A'   49 A'   18 A"   50 A'   51 A'   52 A'   53 A'                 
  0.303   0.308   0.323   0.333   0.343   0.352   0.357   0.371
 54 A'   55 A'   56 A'   57 A'   58 A'   59 A'   60 A'   61 A'                 
  0.388   0.413   0.423   0.445   0.484   0.502   0.564   0.624
 62 A'   63 A'   64 A'   65 A'   66 A'   67 A'   68 A'   69 A'                 
  0.659   0.730   0.731   0.755   0.763   0.777   0.786   0.791
 70 A'   19 A"   71 A'   20 A"   72 A'   21 A"   73 A'   74 A'                 
  0.793   0.809   0.809   0.833   0.847   0.848   0.871   0.908
 22 A"   23 A"   75 A'   24 A"   25 A"   76 A'   77 A'   26 A"                 
  0.947   0.955   0.966   0.994   1.000   1.011   1.019   1.043
 78 A'   79 A'   80 A'   81 A'   82 A'   83 A'   27 A"   84 A'                 
  1.052   1.087   1.106   1.121   1.151   1.170   1.175   1.226
 85 A'   86 A'   87 A'   88 A'   89 A'   90 A'   91 A'   92 A'                 
  1.238   1.264   1.282   1.305   1.312   1.374   1.398   1.418
 93 A'   94 A'   95 A'   96 A'   28 A"   97 A'   29 A"   30 A"                 
  1.425   1.468   1.486   1.499   1.536   1.547   1.570   1.573
 98 A'   99 A'   31 A"  100 A'   32 A"   33 A"   34 A"   35 A"                 
  1.592   1.647   1.709   1.860   1.897   1.947   1.964   1.972
101 A'  102 A'  103 A'  104 A'  105 A'  106 A'   36 A"  107 A'                 
  1.995   2.057   2.062   2.080   2.115   2.130   2.192   2.207
108 A'  109 A'  110 A'   37 A"  111 A'  112 A'  113 A'  114 A'                 
  2.230   2.260   2.307   2.317   2.334   2.336   2.370   2.441
 38 A"  115 A'   39 A"   40 A"   41 A"  116 A'  117 A'   42 A"                 
  2.481   2.512   2.605   2.623   2.696   2.708   2.721   2.749
 43 A"  118 A'  119 A'   44 A"  120 A'   45 A"  121 A'  122 A'                 
  2.786   2.862   2.899   2.907   3.027   3.036   3.168   3.294
123 A'  124 A'  125 A'  126 A'  127 A'  128 A'  129 A'  130 A'                 
  3.459   4.208   4.301   4.352   4.385   4.421   4.459   4.539
131 A'  132 A'  133 A'  134 A'  135 A'  136 A'  137 A'  138 A'                 
  4.581   4.834
139 A'  140 A'                                                                 
 --------------------------------------------------------------
 
          Ground-State Mulliken Net Atomic Charges

     Atom                 Charge (a.u.)
  ----------------------------------------
      1 C                    -0.012185
      2 C                    -0.418601
      3 C                    -0.171028
      4 C                    -0.716075
      5 N                    -0.529748
      6 H                     0.418875
      7 C                    -0.246697
      8 C                     0.123202
      9 C                     1.086230
     10 C                    -0.669232
     11 H                     0.178831
     12 H                     0.183222
     13 H                     0.185565
     14 H                     0.200538
     15 H                     0.197155
     16 H                     0.189948
  ----------------------------------------
  Sum of atomic charges =     0.000000

 -----------------------------------------------------------------
                    Cartesian Multipole Moments
 -----------------------------------------------------------------
    Charge (ESU x 10^10)
                 0.0000
    Dipole Moment (Debye)
         X      -1.5794      Y       1.5223      Z      -0.0000
       Tot       2.1936
    Quadrupole Moments (Debye-Ang)
        XX     -45.5853     XY      -2.9653     YY     -44.5512
        XZ      -0.0000     YZ       0.0000     ZZ     -59.3890
    Octopole Moments (Debye-Ang^2)
       XXX     -15.5886    XXY       8.4348    XYY      -8.0028
       YYY      10.2798    XXZ      -0.0000    XYZ      -0.0000
       YYZ      -0.0000    XZZ      -2.4206    YZZ       2.0184
       ZZZ      -0.0000
    Hexadecapole Moments (Debye-Ang^3)
      XXXX    -829.7101   XXXY     -22.1849   XXYY    -201.8989
      XYYY     -21.6524   YYYY    -381.8411   XXXZ       0.0000
      XXYZ       0.0000   XYYZ      -0.0000   YYYZ       0.0000
      XXZZ    -193.9159   XYZZ      -4.7988   YYZZ     -97.1030
      XZZZ      -0.0000   YZZZ       0.0000   ZZZZ     -75.7777
 -----------------------------------------------------------------
 Calculating analytic gradient of the CIS energy
 CIS relaxed dipole moment
            1
    1  -0.7275689
    2   0.4515766
    3   0.0000000
	Magnitude:	 0.856 au	 2.177 Debye
 CIS 1 State Energy is -363.4395958353
 Gradient of the state energy (including CIS Excitation Energy)
            1           2           3           4           5           6
    1   0.0001406  -0.0009563   0.0022951   0.0039252  -0.0095486   0.0004468
    2  -0.0050314   0.0038090  -0.0003341  -0.0051089   0.0005065  -0.0003962
    3   0.0000000  -0.0000000  -0.0000000   0.0000000  -0.0000000   0.0000000
            7           8           9          10          11          12
    1   0.0054623  -0.0034506  -0.0001549   0.0032438   0.0001259   0.0003154
    2   0.0048377  -0.0048322   0.0055545   0.0008168   0.0002081   0.0006156
    3  -0.0000000   0.0000000  -0.0000000  -0.0000000  -0.0000000   0.0000000
           13          14          15          16
    1   0.0000313  -0.0006623  -0.0001039  -0.0011101
    2   0.0004939  -0.0007261   0.0002087  -0.0006219
    3  -0.0000000  -0.0000000  -0.0000000  -0.0000000
 Gradient time:  CPU 38.83 s  wall 9.76 s
 Geometry Optimization Parameters
   NAtoms,    NIC,     NZ,  NCons,   NDum,   NFix, NCnnct, MaxDiis
       16     116       0       0       0       0       0       0

 Cartesian Hessian Update
 Hessian updated using BFGS update


** GEOMETRY OPTIMIZATION IN DELOCALIZED INTERNAL COORDINATES **
   Searching for a Minimum

   Optimization Cycle:   2

                       Coordinates (Angstroms)
     ATOM                X               Y               Z
      1  C         2.1665676485   -0.6922679119    0.0000000000
      2  C         2.1570280173    0.7363995068    0.0000000000
      3  C         0.9381312746    1.4505347471    0.0000000000
      4  C        -0.2475080111    0.6833966895    0.0000000000
      5  N        -1.5580661503    1.0770202152    0.0000000000
      6  H        -1.8700599233    2.0359530470    0.0000000000
      7  C        -2.4038660595   -0.0366107138    0.0000000000
      8  C        -1.6355557569   -1.1745088059    0.0000000000
      9  C        -0.2600006911   -0.7672176468    0.0000000000
     10  C         0.9698167900   -1.4557927831    0.0000000000
     11  H         3.1221748495   -1.2064506740    0.0000000000
     12  H         3.0981455450    1.2756644803    0.0000000000
     13  H         0.9153666907    2.5355999158    0.0000000000
     14  H        -3.4776002781    0.0829127848    0.0000000000
     15  H        -2.0096463611   -2.1885745962    0.0000000000
     16  H         0.9969619082   -2.5406477931    0.0000000000
   Point Group: cs    Number of degrees of freedom:    29


   Energy is   -363.439595835

 Hessian updated using BFGS update

 24 Hessian modes will be used to form the next step
  Hessian Eigenvalues:
     0.159513    0.160175    0.210672    0.220371    0.226746    0.241416
     0.246151    0.350971    0.351841    0.352379    0.352646    0.358120
     0.358525    0.369761    0.373699    0.421514    0.424911    0.437553
     0.459096    0.465325    0.470749    0.472606    0.492918    0.544992

 Minimum search - taking simple RFO step
 Searching for Lamda that Minimizes Along All modes
 Value Taken    Lamda =  -0.00033347
 Step Taken.  Stepsize is  0.034347

                             Maximum     Tolerance    Cnvgd?
         Gradient           0.005340      0.000300      NO
         Displacement       0.017570      0.001200      NO
         Energy change     -0.004154      0.000001      NO


 New Cartesian Coordinates Obtained by Inverse Iteration

 Displacement from previous Coordinates is:  0.037391
 ----------------------------------------------------------------
             Standard Nuclear Orientation (Angstroms)
    I     Atom           X                Y                Z
 ----------------------------------------------------------------
    1      C       2.1623038442    -0.6886760693     0.0000000000
    2      C       2.1543039665     0.7356448730     0.0000000000
    3      C       0.9348283475     1.4519469461     0.0000000000
    4      C      -0.2476604742     0.6835384044     0.0000000000
    5      N      -1.5514762810     1.0747328446     0.0000000000
    6      H      -1.8628108625     2.0345976396     0.0000000000
    7      C      -2.4065509215    -0.0379004206     0.0000000000
    8      C      -1.6338278133    -1.1718479789     0.0000000000
    9      C      -0.2603586500    -0.7715319685     0.0000000000
   10      C       0.9674607474    -1.4586373988     0.0000000000
   11      H       3.1179130342    -1.2027397869     0.0000000000
   12      H       3.0965846585     1.2709045865     0.0000000000
   13      H       0.9112731611     2.5361563760     0.0000000000
   14      H      -3.4786207228     0.0879697708     0.0000000000
   15      H      -2.0068009349    -2.1865765379     0.0000000000
   16      H       1.0053283932    -2.5421708185     0.0000000000
 ----------------------------------------------------------------
 Molecular Point Group                 Cs    NOp =  2
 Largest Abelian Subgroup              Cs    NOp =  2
 Nuclear Repulsion Energy =         397.40928447 hartrees
 There are       31 alpha and       31 beta electrons
 Applying Cartesian multipole field
    Component          Value
    ---------          -----
     (2,0,0)        1.00000E-11
     (0,2,0)        2.00000E-11
     (0,0,2)       -3.00000E-11
 Nucleus-field energy     =     0.0000000119 hartrees
 Requested basis set is 6-31+G(d)
 There are 59 shells and 185 basis functions
 A cutoff of  1.0D-12 yielded   1656 shell pairs
 There are     17099 function pairs
 Smallest overlap matrix eigenvalue = 1.44E-06
 Guess MOs from SCF MO coefficient file

 -----------------------------------------------------------------------
  General SCF calculation program by
  Eric Jon Sundstrom, Paul Horn, Yuezhi Mao, Dmitri Zuev, Alec White,
  David Stuck, Shaama M.S., Shane Yost, Joonho Lee, David Small,
  Daniel Levine, Susi Lehtola, Hugh Burton, Evgeny Epifanovsky,
  Bang C. Huynh
 -----------------------------------------------------------------------
 Exchange:     0.1900 Hartree-Fock + 0.3500 B88 + 0.4600 muB88 + LR-HF
 Correlation:  0.1900 VWN5 + 0.8100 LYP
 Using SG-1 standard quadrature grid
 using 4 threads for integral computing
 -------------------------------------------------------
 OpenMP Integral computing Module                
 Release: version 1.0, May 2013, Q-Chem Inc. Pittsburgh 
 -------------------------------------------------------
 using 4 threads for integral computing
 -------------------------------------------------------
 OpenMP Integral computing Module                
 Release: version 1.0, May 2013, Q-Chem Inc. Pittsburgh 
 -------------------------------------------------------
 A restricted SCF calculation will be
 performed using DIIS
 SCF converges when DIIS error is below 1.0e-08
 ---------------------------------------
  Cycle       Energy         DIIS error
 ---------------------------------------
    1    -363.6200919864      1.66e-04  
    2    -363.6202378405      3.67e-05  
    3    -363.6202402622      3.96e-05  
    4    -363.6202463409      5.91e-06  
    5    -363.6202466084      3.04e-06  
    6    -363.6202466745      1.05e-06  
    7    -363.6202466890      4.42e-07  
    8    -363.6202466913      2.08e-07  
    9    -363.6202466917      5.83e-08  
   10    -363.6202466917      2.36e-08  
   11    -363.6202466917      8.31e-09  Convergence criterion met
 ---------------------------------------
 SCF time:   CPU 43.98s  wall 11.00s 
 SCF   energy in the final basis set =     -363.6202466917
 Total energy in the final basis set =     -363.6202466917
 
 Direct TDDFT/TDA calculation will be performed
 Exchange:     0.1900 Hartree-Fock + 0.3500 B88 + 0.4600 muB88 + LR-HF
 Correlation:  0.1900 VWN5 + 0.8100 LYP
 Using SG-1 standard quadrature grid
 Singlet excitation energies requested
 CIS energy converged when residual is below 10e- 6
 ---------------------------------------------------
 Iter    Rts Conv    Rts Left    Ttl Dev     Max Dev
 ---------------------------------------------------
   1         0           3      0.003702    0.001732
   2         0           3      0.001054    0.000500
   3         0           3      0.000592    0.000296
   4         0           3      0.000256    0.000116
   5         0           3      0.000089    0.000039
   6         0           3      0.000042    0.000016
   7         0           3      0.000018    0.000006
   8         0           3      0.000007    0.000003
   9         2           1      0.000003    0.000002
  10         3           0      0.000002    0.000001    Roots Converged
 ---------------------------------------------------
 
 ---------------------------------------------------
         TDDFT/TDA Excitation Energies              
 ---------------------------------------------------

 Excited state   1: excitation energy (eV) =    4.9100
 Total energy for state  1:                  -363.43980825 au
    Multiplicity: Singlet
    Trans. Mom.: -0.4303 X  -0.4537 Y  -0.0000 Z
    Strength   :     0.0470353992
    D(   30) --> V(    1) amplitude =  0.7803
    D(   31) --> V(    1) amplitude =  0.2867
    D(   31) --> V(    5) amplitude = -0.4890

 Excited state   2: excitation energy (eV) =    5.1395
 Total energy for state  2:                  -363.43137380 au
    Multiplicity: Singlet
    Trans. Mom.:  0.7450 X  -0.6379 Y  -0.0000 Z
    Strength   :     0.1211315538
    D(   30) --> V(    1) amplitude = -0.2304
    D(   30) --> V(    5) amplitude =  0.3233
    D(   31) --> V(    1) amplitude =  0.8623
    D(   31) --> V(    5) amplitude =  0.2302

 Excited state   3: excitation energy (eV) =    5.3052
 Total energy for state  3:                  -363.42528443 au
    Multiplicity: Singlet
    Trans. Mom.:  0.0000 X  -0.0000 Y  -0.1515 Z
    Strength   :     0.0029835212
    D(   31) --> V(    2) amplitude =  0.9679
 
 ---------------------------------------------------
 Calculating Relaxed Density
 ---------------------------------------------------
 Iter    Rts Conv    Rts Left    Ttl Dev     Max Dev
 ---------------------------------------------------
   1         0           3      0.000939    0.000474
   2         0           3      0.000381    0.000202
   3         0           3      0.000116    0.000052
   4         0           3      0.000040    0.000022
   5         0           3      0.000014    0.000008
   6         0           3      0.000004    0.000002
   7         3           0      0.000000    0.000000    Roots Converged
 ---------------------------------------------------
  SETman timing summary (seconds)
  CPU time               199.38s
  System time              0.00s
  Wall time               50.12s
 
 --------------------------------------------------------------
             Orbital Energies (a.u.) and Symmetries
 --------------------------------------------------------------
 
 Alpha MOs, Restricted
 -- Occupied --                  
-14.459 -10.302 -10.301 -10.271 -10.267 -10.267 -10.265 -10.261
  1 A'    2 A'    3 A'    4 A'    5 A'    6 A'    7 A'    8 A'                 
-10.256  -1.066  -0.915  -0.867  -0.811  -0.799  -0.702  -0.671
  9 A'   10 A'   11 A'   12 A'   13 A'   14 A'   15 A'   16 A'                 
 -0.656  -0.611  -0.560  -0.540  -0.504  -0.500  -0.494  -0.479
 17 A'   18 A'   19 A'   20 A'   21 A'   22 A'    1 A"   23 A'                 
 -0.462  -0.420  -0.402  -0.397  -0.344  -0.272  -0.260
 24 A'   25 A'   26 A'    2 A"    3 A"    4 A"    5 A"                         
 -- Virtual --                   
  0.018   0.024   0.043   0.047   0.059   0.062   0.063   0.080
  6 A"   27 A'   28 A'   29 A'    7 A"   30 A'   31 A'    8 A"                 
  0.086   0.090   0.090   0.094   0.113   0.119   0.130   0.131
 32 A'   33 A'    9 A"   34 A'   10 A"   11 A"   35 A'   36 A'                 
  0.141   0.154   0.166   0.167   0.181   0.186   0.193   0.197
 37 A'   12 A"   13 A"   38 A'   39 A'   14 A"   40 A'   15 A"                 
  0.202   0.217   0.218   0.219   0.229   0.234   0.236   0.244
 41 A'   42 A'   16 A"   43 A'   44 A'   45 A'   46 A'   17 A"                 
  0.249   0.259   0.262   0.269   0.270   0.277   0.291   0.295
 47 A'   48 A'   49 A'   18 A"   50 A'   51 A'   52 A'   53 A'                 
  0.302   0.308   0.324   0.334   0.343   0.353   0.356   0.372
 54 A'   55 A'   56 A'   57 A'   58 A'   59 A'   60 A'   61 A'                 
  0.388   0.414   0.423   0.446   0.484   0.505   0.565   0.624
 62 A'   63 A'   64 A'   65 A'   66 A'   67 A'   68 A'   69 A'                 
  0.658   0.730   0.730   0.755   0.763   0.776   0.787   0.792
 70 A'   19 A"   71 A'   20 A"   72 A'   21 A"   73 A'   74 A'                 
  0.793   0.809   0.810   0.833   0.848   0.848   0.871   0.908
 22 A"   23 A"   75 A'   24 A"   25 A"   76 A'   77 A'   26 A"                 
  0.948   0.955   0.966   0.995   1.001   1.011   1.019   1.043
 78 A'   79 A'   80 A'   81 A'   82 A'   83 A'   27 A"   84 A'                 
  1.052   1.087   1.107   1.121   1.151   1.170   1.175   1.226
 85 A'   86 A'   87 A'   88 A'   89 A'   90 A'   91 A'   92 A'                 
  1.239   1.265   1.282   1.305   1.312   1.374   1.399   1.418
 93 A'   94 A'   95 A'   96 A'   28 A"   97 A'   29 A"   30 A"                 
  1.426   1.468   1.484   1.499   1.538   1.548   1.571   1.573
 98 A'   99 A'   31 A"  100 A'   32 A"   33 A"   34 A"   35 A"                 
  1.594   1.650   1.708   1.860   1.897   1.951   1.966   1.972
101 A'  102 A'  103 A'  104 A'  105 A'  106 A'   36 A"  107 A'                 
  1.998   2.059   2.065   2.081   2.114   2.126   2.194   2.207
108 A'  109 A'  110 A'   37 A"  111 A'  112 A'  113 A'  114 A'                 
  2.226   2.265   2.306   2.314   2.335   2.339   2.372   2.441
 38 A"  115 A'   39 A"   40 A"  116 A'   41 A"  117 A'   42 A"                 
  2.485   2.513   2.609   2.625   2.695   2.710   2.721   2.750
 43 A"  118 A'  119 A'   44 A"  120 A'   45 A"  121 A'  122 A'                 
  2.786   2.863   2.900   2.910   3.031   3.039   3.168   3.299
123 A'  124 A'  125 A'  126 A'  127 A'  128 A'  129 A'  130 A'                 
  3.461   4.207   4.303   4.353   4.386   4.422   4.460   4.540
131 A'  132 A'  133 A'  134 A'  135 A'  136 A'  137 A'  138 A'                 
  4.581   4.835
139 A'  140 A'                                                                 
 
 Beta MOs, Restricted
 -- Occupied --                  
-14.459 -10.302 -10.301 -10.271 -10.267 -10.267 -10.265 -10.261
  1 A'    2 A'    3 A'    4 A'    5 A'    6 A'    7 A'    8 A'                 
-10.256  -1.066  -0.915  -0.867  -0.811  -0.799  -0.702  -0.671
  9 A'   10 A'   11 A'   12 A'   13 A'   14 A'   15 A'   16 A'                 
 -0.656  -0.611  -0.560  -0.540  -0.504  -0.500  -0.494  -0.479
 17 A'   18 A'   19 A'   20 A'   21 A'   22 A'    1 A"   23 A'                 
 -0.462  -0.420  -0.402  -0.397  -0.344  -0.272  -0.260
 24 A'   25 A'   26 A'    2 A"    3 A"    4 A"    5 A"                         
 -- Virtual --                   
  0.018   0.024   0.043   0.047   0.059   0.062   0.063   0.080
  6 A"   27 A'   28 A'   29 A'    7 A"   30 A'   31 A'    8 A"                 
  0.086   0.090   0.090   0.094   0.113   0.119   0.130   0.131
 32 A'   33 A'    9 A"   34 A'   10 A"   11 A"   35 A'   36 A'                 
  0.141   0.154   0.166   0.167   0.181   0.186   0.193   0.197
 37 A'   12 A"   13 A"   38 A'   39 A'   14 A"   40 A'   15 A"                 
  0.202   0.217   0.218   0.219   0.229   0.234   0.236   0.244
 41 A'   42 A'   16 A"   43 A'   44 A'   45 A'   46 A'   17 A"                 
  0.249   0.259   0.262   0.269   0.270   0.277   0.291   0.295
 47 A'   48 A'   49 A'   18 A"   50 A'   51 A'   52 A'   53 A'                 
  0.302   0.308   0.324   0.334   0.343   0.353   0.356   0.372
 54 A'   55 A'   56 A'   57 A'   58 A'   59 A'   60 A'   61 A'                 
  0.388   0.414   0.423   0.446   0.484   0.505   0.565   0.624
 62 A'   63 A'   64 A'   65 A'   66 A'   67 A'   68 A'   69 A'                 
  0.658   0.730   0.730   0.755   0.763   0.776   0.787   0.792
 70 A'   19 A"   71 A'   20 A"   72 A'   21 A"   73 A'   74 A'                 
  0.793   0.809   0.810   0.833   0.848   0.848   0.871   0.908
 22 A"   23 A"   75 A'   24 A"   25 A"   76 A'   77 A'   26 A"                 
  0.948   0.955   0.966   0.995   1.001   1.011   1.019   1.043
 78 A'   79 A'   80 A'   81 A'   82 A'   83 A'   27 A"   84 A'                 
  1.052   1.087   1.107   1.121   1.151   1.170   1.175   1.226
 85 A'   86 A'   87 A'   88 A'   89 A'   90 A'   91 A'   92 A'                 
  1.239   1.265   1.282   1.305   1.312   1.374   1.399   1.418
 93 A'   94 A'   95 A'   96 A'   28 A"   97 A'   29 A"   30 A"                 
  1.426   1.468   1.484   1.499   1.538   1.548   1.571   1.573
 98 A'   99 A'   31 A"  100 A'   32 A"   33 A"   34 A"   35 A"                 
  1.594   1.650   1.708   1.860   1.897   1.951   1.966   1.972
101 A'  102 A'  103 A'  104 A'  105 A'  106 A'   36 A"  107 A'                 
  1.998   2.059   2.065   2.081   2.114   2.126   2.194   2.207
108 A'  109 A'  110 A'   37 A"  111 A'  112 A'  113 A'  114 A'                 
  2.226   2.265   2.306   2.314   2.335   2.339   2.372   2.441
 38 A"  115 A'   39 A"   40 A"  116 A'   41 A"  117 A'   42 A"                 
  2.485   2.513   2.609   2.625   2.695   2.710   2.721   2.750
 43 A"  118 A'  119 A'   44 A"  120 A'   45 A"  121 A'  122 A'                 
  2.786   2.863   2.900   2.910   3.031   3.039   3.168   3.299
123 A'  124 A'  125 A'  126 A'  127 A'  128 A'  129 A'  130 A'                 
  3.461   4.207   4.303   4.353   4.386   4.422   4.460   4.540
131 A'  132 A'  133 A'  134 A'  135 A'  136 A'  137 A'  138 A'                 
  4.581   4.835
139 A'  140 A'                                                                 
 --------------------------------------------------------------
 
          Ground-State Mulliken Net Atomic Charges

     Atom                 Charge (a.u.)
  ----------------------------------------
      1 C                    -0.011219
      2 C                    -0.415445
      3 C                    -0.178207
      4 C                    -0.705047
      5 N                    -0.530991
      6 H                     0.418444
      7 C                    -0.243405
      8 C                     0.120368
      9 C                     1.085937
     10 C                    -0.675563
     11 H                     0.178044
     12 H                     0.183074
     13 H                     0.185512
     14 H                     0.201284
     15 H                     0.196914
     16 H                     0.190298
  ----------------------------------------
  Sum of atomic charges =     0.000000

 -----------------------------------------------------------------
                    Cartesian Multipole Moments
 -----------------------------------------------------------------
    Charge (ESU x 10^10)
                -0.0000
    Dipole Moment (Debye)
         X      -1.5955      Y       1.5162      Z       0.0000
       Tot       2.2010
    Quadrupole Moments (Debye-Ang)
        XX     -45.5844     XY      -2.9749     YY     -44.5673
        XZ      -0.0000     YZ       0.0000     ZZ     -59.3667
    Octopole Moments (Debye-Ang^2)
       XXX     -15.7558    XXY       8.4619    XYY      -7.8793
       YYY      10.2481    XXZ       0.0000    XYZ      -0.0000
       YYZ      -0.0000    XZZ      -2.3882    YZZ       2.0238
       ZZZ       0.0000
    Hexadecapole Moments (Debye-Ang^3)
      XXXX    -827.4797   XXXY     -22.1844   XXYY    -201.8537
      XYYY     -21.9070   YYYY    -381.8962   XXXZ      -0.0000
      XXYZ       0.0000   XYYZ      -0.0000   YYYZ       0.0000
      XXZZ    -193.5239   XYZZ      -4.7932   YYZZ     -97.0420
      XZZZ      -0.0000   YZZZ       0.0000   ZZZZ     -75.7240
 -----------------------------------------------------------------
 Calculating analytic gradient of the CIS energy
 CIS relaxed dipole moment
            1
    1  -0.7214860
    2   0.4462095
    3   0.0000000
	Magnitude:	 0.848 au	 2.156 Debye
 CIS 1 State Energy is -363.4398082461
 Gradient of the state energy (including CIS Excitation Energy)
            1           2           3           4           5           6
    1   0.0004960   0.0001544  -0.0001573   0.0013476  -0.0032878   0.0001672
    2  -0.0021551   0.0015959   0.0005951  -0.0007902  -0.0007802  -0.0000837
    3   0.0000000  -0.0000000   0.0000000   0.0000000  -0.0000000   0.0000000
            7           8           9          10          11          12
    1   0.0020064   0.0000804  -0.0006710   0.0006623  -0.0000542  -0.0001126
    2   0.0026309  -0.0012404   0.0008222  -0.0005147   0.0002385  -0.0000347
    3  -0.0000000   0.0000000  -0.0000000  -0.0000000  -0.0000000   0.0000000
           13          14          15          16
    1  -0.0000039  -0.0002154   0.0000052  -0.0004172
    2  -0.0000899  -0.0004372   0.0002229   0.0000206
    3  -0.0000000  -0.0000000  -0.0000000  -0.0000000
 Gradient time:  CPU 40.21 s  wall 10.11 s
 Geometry Optimization Parameters
   NAtoms,    NIC,     NZ,  NCons,   NDum,   NFix, NCnnct, MaxDiis
       16     116       0       0       0       0       0       0

 Cartesian Hessian Update
 Hessian updated using BFGS update


** GEOMETRY OPTIMIZATION IN DELOCALIZED INTERNAL COORDINATES **
   Searching for a Minimum

   Optimization Cycle:   3

                       Coordinates (Angstroms)
     ATOM                X               Y               Z
      1  C         2.1623038442   -0.6886760693    0.0000000000
      2  C         2.1543039665    0.7356448730    0.0000000000
      3  C         0.9348283475    1.4519469461    0.0000000000
      4  C        -0.2476604742    0.6835384044    0.0000000000
      5  N        -1.5514762810    1.0747328446    0.0000000000
      6  H        -1.8628108625    2.0345976396    0.0000000000
      7  C        -2.4065509215   -0.0379004206    0.0000000000
      8  C        -1.6338278133   -1.1718479789    0.0000000000
      9  C        -0.2603586500   -0.7715319685    0.0000000000
     10  C         0.9674607474   -1.4586373988    0.0000000000
     11  H         3.1179130342   -1.2027397869    0.0000000000
     12  H         3.0965846585    1.2709045865    0.0000000000
     13  H         0.9112731611    2.5361563760    0.0000000000
     14  H        -3.4786207228    0.0879697708    0.0000000000
     15  H        -2.0068009349   -2.1865765379    0.0000000000
     16  H         1.0053283932   -2.5421708185    0.0000000000
   Point Group: cs    Number of degrees of freedom:    29


   Energy is   -363.439808246

 Hessian updated using BFGS update

 25 Hessian modes will be used to form the next step
  Hessian Eigenvalues:
     0.138916    0.160013    0.160513    0.196805    0.221374    0.228569
     0.243127    0.244689    0.343496    0.351867    0.352257    0.353141
     0.353807    0.358624    0.360847    0.375079    0.394500    0.422022
     0.442937    0.459676    0.465349    0.470854    0.485572    0.494990
     0.521405

 Minimum search - taking simple RFO step
 Searching for Lamda that Minimizes Along All modes
 Value Taken    Lamda =  -0.00005807
 Step Taken.  Stepsize is  0.017258

                             Maximum     Tolerance    Cnvgd?
         Gradient           0.001645      0.000300      NO
         Displacement       0.008058      0.001200      NO
         Energy change     -0.000212      0.000001      NO


 New Cartesian Coordinates Obtained by Inverse Iteration

 Displacement from previous Coordinates is:  0.020067
 ----------------------------------------------------------------
             Standard Nuclear Orientation (Angstroms)
    I     Atom           X                Y                Z
 ----------------------------------------------------------------
    1      C       2.1605492981    -0.6857002883     0.0000000000
    2      C       2.1541515517     0.7353430593     0.0000000000
    3      C       0.9345569483     1.4511703270     0.0000000000
    4      C      -0.2477134306     0.6828089224     0.0000000000
    5      N      -1.5483986105     1.0734835942     0.0000000000
    6      H      -1.8593730080     2.0337638695     0.0000000000
    7      C      -2.4090909710    -0.0395562634     0.0000000000
    8      C      -1.6352087147    -1.1719778479     0.0000000000
    9      C      -0.2611758039    -0.7732741679     0.0000000000
   10      C       0.9667376750    -1.4579454003     0.0000000000
   11      H       3.1156894761    -1.2012943963     0.0000000000
   12      H       3.0970210828     1.2698463023     0.0000000000
   13      H       0.9108126033     2.5354728644     0.0000000000
   14      H      -3.4800726872     0.0918954086     0.0000000000
   15      H      -2.0075311005    -2.1874132980     0.0000000000
   16      H       1.0109351838    -2.5412122239     0.0000000000
 ----------------------------------------------------------------
 Molecular Point Group                 Cs    NOp =  2
 Largest Abelian Subgroup              Cs    NOp =  2
 Nuclear Repulsion Energy =         397.49288598 hartrees
 There are       31 alpha and       31 beta electrons
 Applying Cartesian multipole field
    Component          Value
    ---------          -----
     (2,0,0)        1.00000E-11
     (0,2,0)        2.00000E-11
     (0,0,2)       -3.00000E-11
 Nucleus-field energy     =     0.0000000119 hartrees
 Requested basis set is 6-31+G(d)
 There are 59 shells and 185 basis functions
 A cutoff of  1.0D-12 yielded   1656 shell pairs
 There are     17099 function pairs
 Smallest overlap matrix eigenvalue = 1.43E-06
 Guess MOs from SCF MO coefficient file

 -----------------------------------------------------------------------
  General SCF calculation program by
  Eric Jon Sundstrom, Paul Horn, Yuezhi Mao, Dmitri Zuev, Alec White,
  David Stuck, Shaama M.S., Shane Yost, Joonho Lee, David Small,
  Daniel Levine, Susi Lehtola, Hugh Burton, Evgeny Epifanovsky,
  Bang C. Huynh
 -----------------------------------------------------------------------
 Exchange:     0.1900 Hartree-Fock + 0.3500 B88 + 0.4600 muB88 + LR-HF
 Correlation:  0.1900 VWN5 + 0.8100 LYP
 Using SG-1 standard quadrature grid
 using 4 threads for integral computing
 -------------------------------------------------------
 OpenMP Integral computing Module                
 Release: version 1.0, May 2013, Q-Chem Inc. Pittsburgh 
 -------------------------------------------------------
 using 4 threads for integral computing
 -------------------------------------------------------
 OpenMP Integral computing Module                
 Release: version 1.0, May 2013, Q-Chem Inc. Pittsburgh 
 -------------------------------------------------------
 A restricted SCF calculation will be
 performed using DIIS
 SCF converges when DIIS error is below 1.0e-08
 ---------------------------------------
  Cycle       Energy         DIIS error
 ---------------------------------------
    1    -363.6200048288      6.42e-05  
    2    -363.6200310192      1.56e-05  
    3    -363.6200316329      1.63e-05  
    4    -363.6200327985      2.49e-06  
    5    -363.6200328534      1.33e-06  
    6    -363.6200328676      4.92e-07  
    7    -363.6200328710      2.03e-07  
    8    -363.6200328713      9.04e-08  
    9    -363.6200328714      2.14e-08  
   10    -363.6200328714      1.16e-08  
   11    -363.6200328714      2.03e-09  Convergence criterion met
 ---------------------------------------
 SCF time:   CPU 44.61s  wall 11.00s 
 SCF   energy in the final basis set =     -363.6200328714
 Total energy in the final basis set =     -363.6200328714
 
 Direct TDDFT/TDA calculation will be performed
 Exchange:     0.1900 Hartree-Fock + 0.3500 B88 + 0.4600 muB88 + LR-HF
 Correlation:  0.1900 VWN5 + 0.8100 LYP
 Using SG-1 standard quadrature grid
 Singlet excitation energies requested
 CIS energy converged when residual is below 10e- 6
 ---------------------------------------------------
 Iter    Rts Conv    Rts Left    Ttl Dev     Max Dev
 ---------------------------------------------------
   1         0           3      0.003709    0.001727
   2         0           3      0.001053    0.000503
   3         0           3      0.000592    0.000291
   4         0           3      0.000257    0.000117
   5         0           3      0.000089    0.000038
   6         0           3      0.000043    0.000016
   7         0           3      0.000018    0.000006
   8         0           3      0.000007    0.000003
   9         2           1      0.000003    0.000002
  10         3           0      0.000002    0.000001    Roots Converged
 ---------------------------------------------------
 
 ---------------------------------------------------
         TDDFT/TDA Excitation Energies              
 ---------------------------------------------------

 Excited state   1: excitation energy (eV) =    4.9033
 Total energy for state  1:                  -363.43984082 au
    Multiplicity: Singlet
    Trans. Mom.:  0.4331 X   0.4808 Y  -0.0000 Z
    Strength   :     0.0503034460
    D(   30) --> V(    1) amplitude =  0.7664
    D(   31) --> V(    1) amplitude = -0.3362
    D(   31) --> V(    5) amplitude =  0.4732

 Excited state   2: excitation energy (eV) =    5.1451
 Total energy for state  2:                  -363.43095413 au
    Multiplicity: Singlet
    Trans. Mom.:  0.7441 X  -0.6317 Y   0.0000 Z
    Strength   :     0.1200781125
    D(   30) --> V(    1) amplitude =  0.2786
    D(   30) --> V(    5) amplitude = -0.3135
    D(   31) --> V(    1) amplitude =  0.8446
    D(   31) --> V(    5) amplitude =  0.2552

 Excited state   3: excitation energy (eV) =    5.3102
 Total energy for state  3:                  -363.42488789 au
    Multiplicity: Singlet
    Trans. Mom.:  0.0000 X  -0.0000 Y  -0.1457 Z
    Strength   :     0.0027625757
    D(   31) --> V(    2) amplitude =  0.9668
 
 ---------------------------------------------------
 Calculating Relaxed Density
 ---------------------------------------------------
 Iter    Rts Conv    Rts Left    Ttl Dev     Max Dev
 ---------------------------------------------------
   1         0           3      0.000937    0.000470
   2         0           3      0.000382    0.000202
   3         0           3      0.000118    0.000054
   4         0           3      0.000040    0.000023
   5         0           3      0.000014    0.000008
   6         1           2      0.000003    0.000002
   7         3           0      0.000000    0.000000    Roots Converged
 ---------------------------------------------------
  SETman timing summary (seconds)
  CPU time               197.90s
  System time              0.00s
  Wall time               49.75s
 
 --------------------------------------------------------------
             Orbital Energies (a.u.) and Symmetries
 --------------------------------------------------------------
 
 Alpha MOs, Restricted
 -- Occupied --                  
-14.459 -10.303 -10.301 -10.271 -10.267 -10.267 -10.265 -10.260
  1 A'    2 A'    3 A'    4 A'    5 A'    6 A'    7 A'    8 A'                 
-10.256  -1.066  -0.915  -0.867  -0.811  -0.799  -0.703  -0.671
  9 A'   10 A'   11 A'   12 A'   13 A'   14 A'   15 A'   16 A'                 
 -0.656  -0.611  -0.560  -0.540  -0.503  -0.499  -0.494  -0.479
 17 A'   18 A'   19 A'   20 A'   21 A'   22 A'    1 A"   23 A'                 
 -0.462  -0.420  -0.402  -0.397  -0.344  -0.272  -0.261
 24 A'   25 A'   26 A'    2 A"    3 A"    4 A"    5 A"                         
 -- Virtual --                   
  0.018   0.024   0.043   0.047   0.059   0.062   0.063   0.080
  6 A"   27 A'   28 A'   29 A'    7 A"   30 A'   31 A'    8 A"                 
  0.086   0.090   0.090   0.094   0.113   0.119   0.130   0.131
 32 A'   33 A'    9 A"   34 A'   10 A"   11 A"   35 A'   36 A'                 
  0.141   0.154   0.166   0.167   0.181   0.186   0.193   0.197
 37 A'   12 A"   13 A"   38 A'   39 A'   14 A"   40 A'   15 A"                 
  0.202   0.217   0.218   0.219   0.229   0.234   0.236   0.244
 41 A'   42 A'   16 A"   43 A'   44 A'   45 A'   46 A'   17 A"                 
  0.249   0.260   0.262   0.269   0.270   0.277   0.291   0.295
 47 A'   48 A'   49 A'   18 A"   50 A'   51 A'   52 A'   53 A'                 
  0.301   0.308   0.324   0.334   0.344   0.354   0.356   0.372
 54 A'   55 A'   56 A'   57 A'   58 A'   59 A'   60 A'   61 A'                 
  0.388   0.415   0.423   0.446   0.483   0.506   0.565   0.625
 62 A'   63 A'   64 A'   65 A'   66 A'   67 A'   68 A'   69 A'                 
  0.659   0.730   0.730   0.755   0.762   0.776   0.787   0.793
 70 A'   19 A"   71 A'   20 A"   72 A'   21 A"   73 A'   74 A'                 
  0.793   0.809   0.810   0.833   0.848   0.849   0.870   0.908
 22 A"   23 A"   75 A'   24 A"   25 A"   76 A'   77 A'   26 A"                 
  0.948   0.955   0.966   0.995   1.001   1.010   1.019   1.043
 78 A'   79 A'   80 A'   81 A'   82 A'   83 A'   27 A"   84 A'                 
  1.052   1.087   1.107   1.121   1.151   1.170   1.175   1.226
 85 A'   86 A'   87 A'   88 A'   89 A'   90 A'   91 A'   92 A'                 
  1.240   1.266   1.282   1.305   1.312   1.374   1.399   1.418
 93 A'   94 A'   95 A'   96 A'   28 A"   97 A'   29 A"   30 A"                 
  1.427   1.468   1.484   1.499   1.538   1.547   1.572   1.573
 98 A'   99 A'   31 A"  100 A'   32 A"   33 A"   34 A"   35 A"                 
  1.593   1.652   1.707   1.860   1.898   1.950   1.966   1.973
101 A'  102 A'  103 A'  104 A'  105 A'  106 A'   36 A"  107 A'                 
  2.000   2.060   2.065   2.081   2.113   2.125   2.194   2.208
108 A'  109 A'  110 A'   37 A"  111 A'  112 A'  113 A'  114 A'                 
  2.224   2.266   2.307   2.314   2.334   2.341   2.373   2.441
 38 A"  115 A'   39 A"   40 A"  116 A'   41 A"  117 A'   42 A"                 
  2.486   2.513   2.611   2.626   2.695   2.711   2.722   2.750
 43 A"  118 A'  119 A'   44 A"  120 A'   45 A"  121 A'  122 A'                 
  2.786   2.863   2.900   2.912   3.031   3.040   3.167   3.300
123 A'  124 A'  125 A'  126 A'  127 A'  128 A'  129 A'  130 A'                 
  3.462   4.206   4.304   4.352   4.387   4.422   4.460   4.540
131 A'  132 A'  133 A'  134 A'  135 A'  136 A'  137 A'  138 A'                 
  4.581   4.835
139 A'  140 A'                                                                 
 
 Beta MOs, Restricted
 -- Occupied --                  
-14.459 -10.303 -10.301 -10.271 -10.267 -10.267 -10.265 -10.260
  1 A'    2 A'    3 A'    4 A'    5 A'    6 A'    7 A'    8 A'                 
-10.256  -1.066  -0.915  -0.867  -0.811  -0.799  -0.703  -0.671
  9 A'   10 A'   11 A'   12 A'   13 A'   14 A'   15 A'   16 A'                 
 -0.656  -0.611  -0.560  -0.540  -0.503  -0.499  -0.494  -0.479
 17 A'   18 A'   19 A'   20 A'   21 A'   22 A'    1 A"   23 A'                 
 -0.462  -0.420  -0.402  -0.397  -0.344  -0.272  -0.261
 24 A'   25 A'   26 A'    2 A"    3 A"    4 A"    5 A"                         
 -- Virtual --                   
  0.018   0.024   0.043   0.047   0.059   0.062   0.063   0.080
  6 A"   27 A'   28 A'   29 A'    7 A"   30 A'   31 A'    8 A"                 
  0.086   0.090   0.090   0.094   0.113   0.119   0.130   0.131
 32 A'   33 A'    9 A"   34 A'   10 A"   11 A"   35 A'   36 A'                 
  0.141   0.154   0.166   0.167   0.181   0.186   0.193   0.197
 37 A'   12 A"   13 A"   38 A'   39 A'   14 A"   40 A'   15 A"                 
  0.202   0.217   0.218   0.219   0.229   0.234   0.236   0.244
 41 A'   42 A'   16 A"   43 A'   44 A'   45 A'   46 A'   17 A"                 
  0.249   0.260   0.262   0.269   0.270   0.277   0.291   0.295
 47 A'   48 A'   49 A'   18 A"   50 A'   51 A'   52 A'   53 A'                 
  0.301   0.308   0.324   0.334   0.344   0.354   0.356   0.372
 54 A'   55 A'   56 A'   57 A'   58 A'   59 A'   60 A'   61 A'                 
  0.388   0.415   0.423   0.446   0.483   0.506   0.565   0.625
 62 A'   63 A'   64 A'   65 A'   66 A'   67 A'   68 A'   69 A'                 
  0.659   0.730   0.730   0.755   0.762   0.776   0.787   0.793
 70 A'   19 A"   71 A'   20 A"   72 A'   21 A"   73 A'   74 A'                 
  0.793   0.809   0.810   0.833   0.848   0.849   0.870   0.908
[...]
  0.301   0.308   0.324   0.334   0.344   0.354   0.356   0.372
 54 A'   55 A'   56 A'   57 A'   58 A'   59 A'   60 A'   61 A'                 
  0.388   0.415   0.423   0.446   0.483   0.506   0.565   0.625
 62 A'   63 A'   64 A'   65 A'   66 A'   67 A'   68 A'   69 A'                 
  0.659   0.730   0.730   0.755   0.762   0.776   0.787   0.793
 70 A'   19 A"   71 A'   20 A"   72 A'   21 A"   73 A'   74 A'                 
  0.793   0.809   0.810   0.833   0.848   0.849   0.870   0.908
 22 A"   23 A"   75 A'   24 A"   25 A"   76 A'   77 A'   26 A"                 
  0.948   0.955   0.966   0.995   1.001   1.010   1.019   1.043
 78 A'   79 A'   80 A'   81 A'   82 A'   83 A'   27 A"   84 A'                 
  1.052   1.086   1.107   1.121   1.151   1.170   1.175   1.226
 85 A'   86 A'   87 A'   88 A'   89 A'   90 A'   91 A'   92 A'                 
  1.240   1.266   1.282   1.305   1.312   1.374   1.399   1.418
 93 A'   94 A'   95 A'   96 A'   28 A"   97 A'   29 A"   30 A"                 
  1.427   1.469   1.484   1.499   1.538   1.547   1.572   1.573
 98 A'   99 A'   31 A"  100 A'   32 A"   33 A"   34 A"   35 A"                 
  1.593   1.652   1.707   1.860   1.898   1.950   1.966   1.974
101 A'  102 A'  103 A'  104 A'  105 A'  106 A'   36 A"  107 A'                 
  2.000   2.060   2.065   2.081   2.113   2.125   2.194   2.208
108 A'  109 A'  110 A'   37 A"  111 A'  112 A'  113 A'  114 A'                 
  2.225   2.267   2.307   2.314   2.333   2.341   2.373   2.441
 38 A"  115 A'   39 A"   40 A"  116 A'   41 A"  117 A'   42 A"                 
  2.485   2.513   2.611   2.626   2.695   2.711   2.722   2.750
 43 A"  118 A'  119 A'   44 A"  120 A'   45 A"  121 A'  122 A'                 
  2.787   2.863   2.900   2.912   3.031   3.040   3.167   3.300
123 A'  124 A'  125 A'  126 A'  127 A'  128 A'  129 A'  130 A'                 
  3.463   4.206   4.304   4.352   4.387   4.422   4.460   4.540
131 A'  132 A'  133 A'  134 A'  135 A'  136 A'  137 A'  138 A'                 
  4.581   4.836
139 A'  140 A'                                                                 
 --------------------------------------------------------------
 
          Ground-State Mulliken Net Atomic Charges

     Atom                 Charge (a.u.)
  ----------------------------------------
      1 C                    -0.006399
      2 C                    -0.416922
      3 C                    -0.174791
      4 C                    -0.710485
      5 N                    -0.532485
      6 H                     0.418111
      7 C                    -0.240731
      8 C                     0.119474
      9 C                     1.093564
     10 C                    -0.684577
     11 H                     0.177620
     12 H                     0.183301
     13 H                     0.185287
     14 H                     0.201648
     15 H                     0.197079
     16 H                     0.190306
  ----------------------------------------
  Sum of atomic charges =     0.000000

 -----------------------------------------------------------------
                    Cartesian Multipole Moments
 -----------------------------------------------------------------
    Charge (ESU x 10^10)
                -0.0000
    Dipole Moment (Debye)
         X      -1.5993      Y       1.5066      Z       0.0000
       Tot       2.1972
    Quadrupole Moments (Debye-Ang)
        XX     -45.5638     XY      -2.9610     YY     -44.5925
        XZ      -0.0000     YZ      -0.0000     ZZ     -59.3553
    Octopole Moments (Debye-Ang^2)
       XXX     -15.8268    XXY       8.4991    XYY      -7.8064
       YYY      10.2099    XXZ       0.0000    XYZ      -0.0000
       YYZ      -0.0000    XZZ      -2.3405    YZZ       2.0313
       ZZZ       0.0000
    Hexadecapole Moments (Debye-Ang^3)
      XXXX    -827.2943   XXXY     -22.3987   XXYY    -201.8397
      XYYY     -22.1956   YYYY    -381.6560   XXXZ      -0.0000
      XXYZ       0.0000   XYYZ      -0.0000   YYYZ       0.0000
      XXZZ    -193.5179   XYZZ      -4.8807   YYZZ     -96.9363
      XZZZ      -0.0000   YZZZ      -0.0000   ZZZZ     -75.6798
 -----------------------------------------------------------------
 Calculating analytic gradient of the CIS energy
 CIS relaxed dipole moment
            1
    1  -0.7204437
    2   0.4396394
    3   0.0000000
	Magnitude:	 0.844 au	 2.145 Debye
 CIS 1 State Energy is -363.4398436069
 Gradient of the state energy (including CIS Excitation Energy)
            1           2           3           4           5           6
    1  -0.0000361  -0.0001186   0.0000033  -0.0000402   0.0000073   0.0000074
    2  -0.0000762   0.0000557  -0.0000222   0.0004079  -0.0002019   0.0000149
    3   0.0000000  -0.0000000  -0.0000000   0.0000000  -0.0000000   0.0000000
            7           8           9          10          11          12
    1  -0.0000357   0.0002682  -0.0001148  -0.0000040   0.0000189   0.0000226
    2   0.0002354   0.0000385  -0.0004255   0.0000121   0.0000301  -0.0000371
    3  -0.0000000   0.0000000  -0.0000000  -0.0000000  -0.0000000   0.0000000
           13          14          15          16
    1   0.0000289   0.0000017  -0.0000282   0.0000193
    2  -0.0000127  -0.0000352   0.0000048   0.0000115
    3  -0.0000000  -0.0000000   0.0000000  -0.0000000
 Gradient time:  CPU 40.10 s  wall 10.08 s
 Geometry Optimization Parameters
   NAtoms,    NIC,     NZ,  NCons,   NDum,   NFix, NCnnct, MaxDiis
       16     116       0       0       0       0       0       0

 Cartesian Hessian Update
 Hessian updated using BFGS update


** GEOMETRY OPTIMIZATION IN DELOCALIZED INTERNAL COORDINATES **
   Searching for a Minimum

   Optimization Cycle:   5

                       Coordinates (Angstroms)
     ATOM                X               Y               Z
      1  C         2.1607780615   -0.6851369219    0.0000000000
      2  C         2.1547063074    0.7352921335    0.0000000000
      3  C         0.9347184284    1.4505163417    0.0000000000
      4  C        -0.2477251230    0.6821951306    0.0000000000
      5  N        -1.5480452505    1.0733464811    0.0000000000
      6  H        -1.8590643155    2.0336579467    0.0000000000
      7  C        -2.4097980007   -0.0400469387    0.0000000000
      8  C        -1.6358758507   -1.1720959785    0.0000000000
      9  C        -0.2612151529   -0.7732265269    0.0000000000
     10  C         0.9669157992   -1.4573587722    0.0000000000
     11  H         3.1154037952   -1.2018093588    0.0000000000
     12  H         3.0972249660    1.2704020321    0.0000000000
     13  H         0.9102755779    2.5348816555    0.0000000000
     14  H        -3.4805507960    0.0931309476    0.0000000000
     15  H        -2.0077147425   -2.1876674146    0.0000000000
     16  H         1.0118557887   -2.5406702957    0.0000000000
   Point Group: cs    Number of degrees of freedom:    29


   Energy is   -363.439843607

 Hessian updated using BFGS update

 27 Hessian modes will be used to form the next step
  Hessian Eigenvalues:
     0.114812    0.156385    0.160009    0.160138    0.160223    0.201829
     0.215944    0.226322    0.242441    0.245925    0.302462    0.351267
     0.351900    0.352579    0.353472    0.356344    0.358932    0.368162
     0.378242    0.422051    0.430830    0.454029    0.465364    0.468714
     0.475451    0.493981    0.524939

 Minimum search - taking simple RFO step
 Searching for Lamda that Minimizes Along All modes
 Value Taken    Lamda =  -0.00000093
 Step Taken.  Stepsize is  0.002260

                             Maximum     Tolerance    Cnvgd?
         Gradient           0.000223      0.000300     YES
         Displacement       0.000944      0.001200     YES
         Energy change     -0.000003      0.000001      NO

 Final energy is   -363.439843606869     


 ******************************
 **  OPTIMIZATION CONVERGED  **
 ******************************

                       Coordinates (Angstroms)
     ATOM                X               Y               Z
      1  C         2.1607780615   -0.6851369219    0.0000000000
      2  C         2.1547063074    0.7352921335    0.0000000000
      3  C         0.9347184284    1.4505163417    0.0000000000
      4  C        -0.2477251230    0.6821951306    0.0000000000
      5  N        -1.5480452505    1.0733464811    0.0000000000
      6  H        -1.8590643155    2.0336579467    0.0000000000
      7  C        -2.4097980007   -0.0400469387    0.0000000000
      8  C        -1.6358758507   -1.1720959785    0.0000000000
      9  C        -0.2612151529   -0.7732265269    0.0000000000
     10  C         0.9669157992   -1.4573587722    0.0000000000
     11  H         3.1154037952   -1.2018093588    0.0000000000
     12  H         3.0972249660    1.2704020321    0.0000000000
     13  H         0.9102755779    2.5348816555    0.0000000000
     14  H        -3.4805507960    0.0931309476    0.0000000000
     15  H        -2.0077147425   -2.1876674146    0.0000000000
     16  H         1.0118557887   -2.5406702957    0.0000000000

Z-matrix Print:
$molecule
0 1
C 
N  1 1.357878
H  2 1.009421 1 124.687640
C  2 1.407929 1 110.997533 3 -180.000000 0
H  4 1.079003 2 120.649515 1 -180.000000 0
C  4 1.371310 2 107.902217 1 -0.000000 0
H  6 1.081503 4 125.532067 2 -180.000000 0
C  1 1.410138 2 130.243336 3 -0.000000 0
H  8 1.084641 1 121.723474 2 -0.000000 0
C  8 1.414184 1 116.604047 2 -180.000000 0
H  10 1.083828 8 120.033304 1 -180.000000 0
C  10 1.420442 8 120.626099 1 -0.000000 0
H  12 1.085477 10 118.668512 8 -180.000000 0
C  12 1.421842 10 122.650948 8 -0.000000 0
H  14 1.084243 12 120.520372 10 -180.000000 0
C  14 1.405825 12 117.984076 10 -0.000000 0
$end

 
 --------------------------------------------------------------
             Orbital Energies (a.u.) and Symmetries
 --------------------------------------------------------------
 
 Alpha MOs, Restricted
 -- Occupied --                  
-14.459 -10.303 -10.301 -10.270 -10.267 -10.267 -10.265 -10.260
  1 A'    2 A'    3 A'    4 A'    5 A'    6 A'    7 A'    8 A'                 
-10.257  -1.065  -0.915  -0.867  -0.811  -0.799  -0.703  -0.671
  9 A'   10 A'   11 A'   12 A'   13 A'   14 A'   15 A'   16 A'                 
 -0.656  -0.611  -0.560  -0.540  -0.503  -0.499  -0.494  -0.479
 17 A'   18 A'   19 A'   20 A'   21 A'   22 A'    1 A"   23 A'                 
 -0.462  -0.420  -0.402  -0.397  -0.344  -0.272  -0.261
 24 A'   25 A'   26 A'    2 A"    3 A"    4 A"    5 A"                         
 -- Virtual --                   
  0.018   0.024   0.043   0.047   0.059   0.062   0.063   0.080
  6 A"   27 A'   28 A'   29 A'    7 A"   30 A'   31 A'    8 A"                 
  0.086   0.090   0.090   0.094   0.113   0.119   0.130   0.131
 32 A'   33 A'    9 A"   34 A'   10 A"   11 A"   35 A'   36 A'                 
  0.141   0.154   0.166   0.167   0.181   0.186   0.193   0.197
 37 A'   12 A"   13 A"   38 A'   39 A'   14 A"   40 A'   15 A"                 
  0.202   0.217   0.218   0.219   0.229   0.234   0.236   0.244
 41 A'   42 A'   16 A"   43 A'   44 A'   45 A'   46 A'   17 A"                 
  0.249   0.260   0.262   0.269   0.270   0.277   0.291   0.295
 47 A'   48 A'   49 A'   18 A"   50 A'   51 A'   52 A'   53 A'                 
  0.301   0.308   0.324   0.334   0.344   0.354   0.356   0.372
 54 A'   55 A'   56 A'   57 A'   58 A'   59 A'   60 A'   61 A'                 
  0.388   0.415   0.423   0.446   0.483   0.506   0.565   0.625
 62 A'   63 A'   64 A'   65 A'   66 A'   67 A'   68 A'   69 A'                 
  0.659   0.730   0.730   0.755   0.762   0.776   0.787   0.793
 70 A'   19 A"   71 A'   20 A"   72 A'   21 A"   73 A'   74 A'                 
  0.793   0.809   0.810   0.833   0.848   0.849   0.870   0.908
 22 A"   23 A"   75 A'   24 A"   25 A"   76 A'   77 A'   26 A"                 
  0.948   0.955   0.966   0.995   1.001   1.010   1.019   1.043
 78 A'   79 A'   80 A'   81 A'   82 A'   83 A'   27 A"   84 A'                 
  1.052   1.086   1.107   1.121   1.151   1.170   1.175   1.226
 85 A'   86 A'   87 A'   88 A'   89 A'   90 A'   91 A'   92 A'                 
  1.240   1.266   1.282   1.305   1.312   1.374   1.399   1.418
 93 A'   94 A'   95 A'   96 A'   28 A"   97 A'   29 A"   30 A"                 
  1.427   1.469   1.484   1.499   1.538   1.547   1.572   1.573
 98 A'   99 A'   31 A"  100 A'   32 A"   33 A"   34 A"   35 A"                 
  1.593   1.652   1.707   1.860   1.898   1.950   1.966   1.974
101 A'  102 A'  103 A'  104 A'  105 A'  106 A'   36 A"  107 A'                 
  2.000   2.060   2.065   2.081   2.113   2.125   2.194   2.208
108 A'  109 A'  110 A'   37 A"  111 A'  112 A'  113 A'  114 A'                 
  2.225   2.267   2.307   2.314   2.333   2.341   2.373   2.441
 38 A"  115 A'   39 A"   40 A"  116 A'   41 A"  117 A'   42 A"                 
  2.485   2.513   2.611   2.626   2.695   2.711   2.722   2.750
 43 A"  118 A'  119 A'   44 A"  120 A'   45 A"  121 A'  122 A'                 
  2.787   2.863   2.900   2.912   3.031   3.040   3.167   3.300
123 A'  124 A'  125 A'  126 A'  127 A'  128 A'  129 A'  130 A'                 
  3.463   4.206   4.304   4.352   4.387   4.422   4.460   4.540
131 A'  132 A'  133 A'  134 A'  135 A'  136 A'  137 A'  138 A'                 
  4.581   4.836
139 A'  140 A'                                                                 
 
 Beta MOs, Restricted
 -- Occupied --                  
-14.459 -10.303 -10.301 -10.270 -10.267 -10.267 -10.265 -10.260
  1 A'    2 A'    3 A'    4 A'    5 A'    6 A'    7 A'    8 A'                 
-10.257  -1.065  -0.915  -0.867  -0.811  -0.799  -0.703  -0.671
  9 A'   10 A'   11 A'   12 A'   13 A'   14 A'   15 A'   16 A'                 
 -0.656  -0.611  -0.560  -0.540  -0.503  -0.499  -0.494  -0.479
 17 A'   18 A'   19 A'   20 A'   21 A'   22 A'    1 A"   23 A'                 
 -0.462  -0.420  -0.402  -0.397  -0.344  -0.272  -0.261
 24 A'   25 A'   26 A'    2 A"    3 A"    4 A"    5 A"                         
 -- Virtual --                   
  0.018   0.024   0.043   0.047   0.059   0.062   0.063   0.080
  6 A"   27 A'   28 A'   29 A'    7 A"   30 A'   31 A'    8 A"                 
  0.086   0.090   0.090   0.094   0.113   0.119   0.130   0.131
 32 A'   33 A'    9 A"   34 A'   10 A"   11 A"   35 A'   36 A'                 
  0.141   0.154   0.166   0.167   0.181   0.186   0.193   0.197
 37 A'   12 A"   13 A"   38 A'   39 A'   14 A"   40 A'   15 A"                 
  0.202   0.217   0.218   0.219   0.229   0.234   0.236   0.244
 41 A'   42 A'   16 A"   43 A'   44 A'   45 A'   46 A'   17 A"                 
  0.249   0.260   0.262   0.269   0.270   0.277   0.291   0.295
 47 A'   48 A'   49 A'   18 A"   50 A'   51 A'   52 A'   53 A'                 
  0.301   0.308   0.324   0.334   0.344   0.354   0.356   0.372
 54 A'   55 A'   56 A'   57 A'   58 A'   59 A'   60 A'   61 A'                 
  0.388   0.415   0.423   0.446   0.483   0.506   0.565   0.625
 62 A'   63 A'   64 A'   65 A'   66 A'   67 A'   68 A'   69 A'                 
  0.659   0.730   0.730   0.755   0.762   0.776   0.787   0.793
 70 A'   19 A"   71 A'   20 A"   72 A'   21 A"   73 A'   74 A'                 
  0.793   0.809   0.810   0.833   0.848   0.849   0.870   0.908
 22 A"   23 A"   75 A'   24 A"   25 A"   76 A'   77 A'   26 A"                 
  0.948   0.955   0.966   0.995   1.001   1.010   1.019   1.043
 78 A'   79 A'   80 A'   81 A'   82 A'   83 A'   27 A"   84 A'                 
  1.052   1.086   1.107   1.121   1.151   1.170   1.175   1.226
 85 A'   86 A'   87 A'   88 A'   89 A'   90 A'   91 A'   92 A'                 
  1.240   1.266   1.282   1.305   1.312   1.374   1.399   1.418
 93 A'   94 A'   95 A'   96 A'   28 A"   97 A'   29 A"   30 A"                 
  1.427   1.469   1.484   1.499   1.538   1.547   1.572   1.573
 98 A'   99 A'   31 A"  100 A'   32 A"   33 A"   34 A"   35 A"                 
  1.593   1.652   1.707   1.860   1.898   1.950   1.966   1.974
101 A'  102 A'  103 A'  104 A'  105 A'  106 A'   36 A"  107 A'                 
  2.000   2.060   2.065   2.081   2.113   2.125   2.194   2.208
108 A'  109 A'  110 A'   37 A"  111 A'  112 A'  113 A'  114 A'                 
  2.225   2.267   2.307   2.314   2.333   2.341   2.373   2.441
 38 A"  115 A'   39 A"   40 A"  116 A'   41 A"  117 A'   42 A"                 
  2.485   2.513   2.611   2.626   2.695   2.711   2.722   2.750
 43 A"  118 A'  119 A'   44 A"  120 A'   45 A"  121 A'  122 A'                 
  2.787   2.863   2.900   2.912   3.031   3.040   3.167   3.300
123 A'  124 A'  125 A'  126 A'  127 A'  128 A'  129 A'  130 A'                 
  3.463   4.206   4.304   4.352   4.387   4.422   4.460   4.540
131 A'  132 A'  133 A'  134 A'  135 A'  136 A'  137 A'  138 A'                 
  4.581   4.836
139 A'  140 A'                                                                 
 --------------------------------------------------------------
 
          Ground-State Mulliken Net Atomic Charges

     Atom                 Charge (a.u.)
  ----------------------------------------
      1 C                    -0.006399
      2 C                    -0.416922
      3 C                    -0.174791
      4 C                    -0.710485
      5 N                    -0.532485
      6 H                     0.418111
      7 C                    -0.240731
      8 C                     0.119474
      9 C                     1.093564
     10 C                    -0.684577
     11 H                     0.177620
     12 H                     0.183301
     13 H                     0.185287
     14 H                     0.201648
     15 H                     0.197079
     16 H                     0.190306
  ----------------------------------------
  Sum of atomic charges =     0.000000

 -----------------------------------------------------------------
                    Cartesian Multipole Moments
 -----------------------------------------------------------------
    Charge (ESU x 10^10)
                -0.0000
    Dipole Moment (Debye)
         X      -1.5993      Y       1.5066      Z       0.0000
       Tot       2.1972
    Quadrupole Moments (Debye-Ang)
        XX     -45.5638     XY      -2.9610     YY     -44.5925
        XZ      -0.0000     YZ      -0.0000     ZZ     -59.3553
    Octopole Moments (Debye-Ang^2)
       XXX     -15.8268    XXY       8.4991    XYY      -7.8064
       YYY      10.2099    XXZ       0.0000    XYZ      -0.0000
       YYZ      -0.0000    XZZ      -2.3405    YZZ       2.0313
       ZZZ       0.0000
    Hexadecapole Moments (Debye-Ang^3)
      XXXX    -827.2943   XXXY     -22.3987   XXYY    -201.8397
      XYYY     -22.1956   YYYY    -381.6560   XXXZ      -0.0000
      XXYZ       0.0000   XYYZ      -0.0000   YYYZ       0.0000
      XXZZ    -193.5179   XYZZ      -4.8807   YYZZ     -96.9363
      XZZZ      -0.0000   YZZZ      -0.0000   ZZZZ     -75.6798
 -----------------------------------------------------------------
Archival summary:
1\1\exp-5-27\OPT\ProcedureUnspecified\6-31+G*\187\scaparas\WedJun911:10:382021WedJun911:10:382021\0\\#,OPT,ProcedureUnspecified,6-31+G*,\\0,1\C\N,1,1.35788\H,2,1.00942,1,124.688\C,2,1.40793,1,110.998,3,-180,0\H,4,1.079,2,120.65,1,-180,0\C,4,1.37131,2,107.902,1,-0,0\H,6,1.0815,4,125.532,2,-180,0\C,1,1.41014,2,130.243,3,-0,0\H,8,1.08464,1,121.723,2,-0,0\C,8,1.41418,1,116.604,2,-180,0\H,10,1.08383,8,120.033,1,-180,0\C,10,1.42044,8,120.626,1,-0,0\H,12,1.08548,10,118.669,8,-180,0\C,12,1.42184,10,122.651,8,-0,0\H,14,1.08424,12,120.52,10,-180,0\C,14,1.40582,12,117.984,10,-0,0\\\@

 Total job time:  366.68s(wall), 1456.00s(cpu) 
 Wed Jun  9 11:10:38 2021

        *************************************************************
        *                                                           *
        *  Thank you very much for using Q-Chem.  Have a nice day.  *
        *                                                           *
        *************************************************************


