
Running Job 1 of 1 !QChemInput.in
qchem !QChemInput.in_61509.0 /scratch/scaparas/job_3351515/qchem61509/ 0
/cm/shared/apps/spack/cpu/opt/spack/linux-centos8-zen2/gcc-10.2.0/qchem-5.3-5qddma6gy34jvefiv7mbcb7qm253n45r/exe/qcprog.exe_s !QChemInput.in_61509.0 /scratch/scaparas/job_3351515/qchem61509/
                  Welcome to Q-Chem
     A Quantum Leap Into The Future Of Chemistry


 Q-Chem 5.3, Q-Chem, Inc., Pleasanton, CA (2020)

 License issued to: University of California, San Diego (site)

 Yihan Shao,  Zhengting Gan,  E. Epifanovsky,  A. T. B. Gilbert,  M. Wormit,  
 J. Kussmann,  A. W. Lange,  A. Behn,  Jia Deng,  Xintian Feng,  D. Ghosh,  
 M. Goldey,  P. R. Horn,  L. D. Jacobson,  I. Kaliman,  T. Kus,  A. Landau,  
 Jie Liu,  E. I. Proynov,  R. M. Richard,  R. P. Steele,  E. J. Sundstrom,  
 H. L. Woodcock III,  P. M. Zimmerman,  D. Zuev,  B. Alam,  B. Albrecht,  
 A. Aldossary,  E. Alguire,  S. A. Baeppler,  D. Barton,  Z. Benda,  
 Y. A. Bernard,  E. J. Berquist,  K. B. Bravaya,  H. Burton,  K. Carter-Fenk,  
 D. Casanova,  Chun-Min Chang,  Yunqing Chen,  A. Chien,  K. D. Closser,  
 M. P. Coons,  S. Coriani,  S. Dasgupta,  A. L. Dempwolff,  M. Diedenhofen,  
 Hainam Do,  R. G. Edgar,  Po-Tung Fang,  S. Faraji,  S. Fatehi,  
 Qingguo Feng,  J. Fosso-Tande,  J. Gayvert,  Qinghui Ge,  A. Ghysels,  
 G. Gidofalvi,  J. Gomes,  J. Gonthier,  S. Gulania,  A. Gunina,  D. Hait,  
 M. W. D. Hanson-Heine,  S. Hammes-Schiffer,  P. H. P. Harbach,  
 A. W. Hauser,  M. F. Herbst,  J. E. Herr,  E. G. Hohenstein,  Z. C. Holden,  
 S. Houck,  Kerwin Hui,  B. C. Huynh,  M. Ivanov,  T.-C. Jagau,  Hyunjun Ji,  
 B. Kaduk,  K. Khistyaev,  Jaehoon Kim,  P. Klunzinger,  K. Koh,  
 D. Kosenkov,  L. Koulias,  T. Kowalczyk,  C. M. Krauter,  A. Kunitsa,  
 Ka Un Lao,  A. Laurent,  K. V. Lawler,  Joonho Lee,  D. Lefrancois,  
 S. Lehtola,  D. S. Levine,  Yi-Pei Li,  You-Sheng Lin,  Fenglai Liu,  
 Kuan-Yu Liu,  E. Livshits,  M. Loipersberger,  A. Luenser,  P. Manohar,  
 E. Mansoor,  S. F. Manzer,  Shan-Ping Mao,  Yuezhi Mao,  N. Mardirossian,  
 A. V. Marenich,  T. Markovich,  L. A. Martinez-Martinez,  S. A. Maurer,  
 N. J. Mayhall,  S. C. McKenzie,  J.-M. Mewes,  P. Morgante,  A. F. Morrison,  
 J. W. Mullinax,  K. Nanda,  T. S. Nguyen-Beck,  R. Olivares-Amaya,  
 K. J. Oosterbaan,  J. A. Parkhill,  S. K. Paul,  F. Pavosevic,  Zheng Pei,  
 T. M. Perrine,  F. Plasser,  P. Pokhilko,  S. Prager,  A. Prociuk,  
 E. Ramos,  B. Rana,  D. R. Rehn,  F. Rob,  E. Rossomme,  M. Scheurer,  
 M. Schneider,  N. Sergueev,  S. M. Sharada,  S. Sharma,  W. Skomorowski,  
 D. W. Small,  T. Stauch,  C. J. Stein,  T. Stein,  Yu-Chuan Su,  
 S. P. Veccham,  Zhen Tao,  A. J. W. Thom,  A. Tkatchenko,  T. Tsuchimochi,  
 N. M. Tubman,  L. Vogt,  M. L. Vidal,  O. Vydrov,  M. A. Watson,  J. Wenzel,  
 M. de Wergifosse,  T. A. Wesolowski,  A. White,  J. Witte,  A. Yamada,  
 Jun Yang,  K. Yao,  S. Yeganeh,  S. R. Yost,  Zhi-Qiang You,  A. Zech,  
 Igor Ying Zhang,  Xing Zhang,  Yan Zhao,  Ying Zhu,  B. R. Brooks,  
 G. K. L. Chan,  C. J. Cramer,  M. S. Gordon,  W. J. Hehre,  A. Klamt,  
 M. W. Schmidt,  C. D. Sherrill,  D. G. Truhlar,  A. Aspuru-Guzik,  R. Baer,  
 A. T. Bell,  N. A. Besley,  Jeng-Da Chai,  A. E. DePrince, III,  
 R. A. DiStasio Jr.,  A. Dreuw,  B. D. Dunietz,  T. R. Furlani,  
 Chao-Ping Hsu,  Yousung Jung,  Jing Kong,  D. S. Lambrecht,  WanZhen Liang,  
 C. Ochsenfeld,  V. A. Rassolov,  L. V. Slipchenko,  J. E. Subotnik,  
 T. Van Voorhis,  J. M. Herbert,  A. I. Krylov,  P. M. W. Gill,  M. Head-Gordon

 Contributors to earlier versions of Q-Chem not listed above: 
 R. D. Adamson,  B. Austin,  J. Baker,  G. J. O. Beran,  K. Brandhorst,  
 S. T. Brown,  E. F. C. Byrd,  A. K. Chakraborty,  C.-L. Cheng,  
 Siu Hung Chien,  D. M. Chipman,  D. L. Crittenden,  H. Dachsel,  
 R. J. Doerksen,  A. D. Dutoi,  L. Fusti-Molnar,  W. A. Goddard III,  
 A. Golubeva-Zadorozhnaya,  S. R. Gwaltney,  G. Hawkins,  A. Heyden,  
 S. Hirata,  G. Kedziora,  F. J. Keil,  C. Kelley,  Jihan Kim,  R. A. King,  
 R. Z. Khaliullin,  P. P. Korambath,  W. Kurlancheek,  A. M. Lee,  M. S. Lee,  
 S. V. Levchenko,  Ching Yeh Lin,  D. Liotard,  R. C. Lochan,  I. Lotan,  
 P. E. Maslen,  N. Nair,  D. P. O'Neill,  D. Neuhauser,  E. Neuscamman,  
 C. M. Oana,  R. Olson,  B. Peters,  R. Peverati,  P. A. Pieniazek,  
 Y. M. Rhee,  J. Ritchie,  M. A. Rohrdanz,  E. Rosta,  N. J. Russ,  
 H. F. Schaefer III,  N. E. Schultz,  N. Shenvi,  A. C. Simmonett,  A. Sodt,  
 D. Stuck,  K. S. Thanthiriwatte,  V. Vanovschi,  Tao Wang,  A. Warshel,  
 C. F. Williams,  Q. Wu,  X. Xu,  W. Zhang

 Please cite Q-Chem as follows:
 Y. Shao et al., Mol. Phys. 113, 184-215 (2015)
 DOI: 10.1080/00268976.2014.952696

 Q-Chem 5.3.1 for Intel X86 EM64T Linux

 Parts of Q-Chem use Armadillo 9.800.1 (Horizon Scraper).
 http://arma.sourceforge.net/

 Q-Chem begins on Fri Jun 11 07:20:24 2021  

Host: 
0

     Scratch files written to /scratch/scaparas/job_3351515/qchem61509//
 Aug2920 |scratch|qcdevops|jenkins|workspace|build_RNUM    
Processing $rem in /cm/shared/apps/spack/cpu/opt/spack/linux-centos8-zen2/gcc-10.2.0/qchem-5.3-5qddma6gy34jvefiv7mbcb7qm253n45r/config/preferences:
Processing $rem in /home/scaparas/.qchemrc:

Checking the input file for inconsistencies... 	...done.

--------------------------------------------------------------
User input:
--------------------------------------------------------------
$molecule
0 1
C   -2.1510630    0.6892080    0.0000880
C   -2.1279270   -0.7158180    0.0000750
C   -0.9322970   -1.4131000   -0.0000110
C    0.2469110   -0.6702010   -0.0000420
C    0.2481930    0.7482990    0.0000000
C   -0.9794740    1.4235260    0.0000320
N    1.5617740   -1.0775920   -0.0002850
C    1.6201330    1.1629000   -0.0001570
C    2.3820130    0.0308060    0.0002480
H    1.8763150   -2.0300110    0.0004380
H    1.9921730    2.1730100   -0.0003480
H    3.4525490   -0.0824250    0.0004080
H   -3.0615940   -1.2620200    0.0000880
H   -0.9172520   -2.4953420   -0.0000730
H   -3.1042030    1.2007850    0.0000900
H   -1.0093480    2.5054210   -0.0000150
$end

$rem
BASIS  =  6-31+G*
GUI  =  2
JOB_TYPE  =  Optimization
METHOD  = PBE
SCF_CONVERGENCE  =  8
THRESH = 12
CIS_N_ROOTS  = 3
CIS_SINGLETS = true
CIS_TRIPLETS = false
CIS_STATE_DERIV = 2
MEM_STATIC=500
MEM_TOTAL=3000   
$end
--------------------------------------------------------------
 ----------------------------------------------------------------
             Standard Nuclear Orientation (Angstroms)
    I     Atom           X                Y                Z
 ----------------------------------------------------------------
    1      C       2.1510629040    -0.6892079969     0.0000583065
    2      C       2.1279268385     0.7158180020     0.0000481775
    3      C       0.9322968051     1.4130999466    -0.0000206639
    4      C      -0.2469111607     0.6702008918    -0.0000373513
    5      C      -0.2481930942    -0.7482991083     0.0000020775
    6      C       0.9794739374    -1.4235260513     0.0000165335
    7      N      -1.5617741827     1.0775918311    -0.0002621374
    8      C      -1.6201330769    -1.1629001718    -0.0001374500
    9      C      -2.3820131241    -0.0308062080     0.0002797387
   10      H      -1.8763152174     2.0300108152     0.0004667797
   11      H      -1.9921730325    -2.1730101887    -0.0003253498
   12      H      -3.4525491271     0.0824247420     0.0004541695
   13      H       3.0615938132     1.2620200454     0.0000497686
   14      H       0.9172517540     2.4953419460    -0.0000804893
   15      H       3.1042029277    -1.2007849526     0.0000467087
   16      H       1.0093479871    -2.5054210498    -0.0000328375
 ----------------------------------------------------------------
 Molecular Point Group                 C1    NOp =  1
 Largest Abelian Subgroup              C1    NOp =  1
 Nuclear Repulsion Energy =         401.33686680 hartrees
 There are       31 alpha and       31 beta electrons
 Requested basis set is 6-31+G(d)
 There are 59 shells and 185 basis functions

 Total QAlloc Memory Limit   3000 MB
 Mega-Array Size       489 MB
 MEM_STATIC part       500 MB
 A cutoff of  1.0D-12 yielded   1657 shell pairs
 There are     17105 function pairs
 Smallest overlap matrix eigenvalue = 1.26E-06

 Scale SEOQF with 1.000000e-01/1.000000e-01/1.000000e-01

 Standard Electronic Orientation quadrupole field applied
 Nucleus-field energy     =     0.0000000117 hartrees
 Guess from superposition of atomic densities
 Warning:  Energy on first SCF cycle will be non-variational
 SAD guess density has 62.000000 electrons

 -----------------------------------------------------------------------
  General SCF calculation program by
  Eric Jon Sundstrom, Paul Horn, Yuezhi Mao, Dmitri Zuev, Alec White,
  David Stuck, Shaama M.S., Shane Yost, Joonho Lee, David Small,
  Daniel Levine, Susi Lehtola, Hugh Burton, Evgeny Epifanovsky,
  Bang C. Huynh
 -----------------------------------------------------------------------
 Exchange:  PBE      Correlation:  PBE
 Using SG-1 standard quadrature grid
 using 4 threads for integral computing
 -------------------------------------------------------
 OpenMP Integral computing Module                
 Release: version 1.0, May 2013, Q-Chem Inc. Pittsburgh 
 -------------------------------------------------------
 A restricted SCF calculation will be
 performed using DIIS
 SCF converges when DIIS error is below 1.0e-08
 ---------------------------------------
  Cycle       Energy         DIIS error
 ---------------------------------------
    1    -365.2983991168      5.45e-02  
    2    -363.1683557890      6.30e-03  
    3    -362.9168636879      9.44e-03  
    4    -363.3375867048      2.59e-03  
    5    -363.3671655607      8.18e-04  
    6    -363.3699261976      2.94e-04  
    7    -363.3702585284      1.25e-04  
    8    -363.3703251034      3.64e-05  
    9    -363.3703308991      6.17e-06  
   10    -363.3703310242      3.61e-06  
   11    -363.3703310832      7.28e-07  
   12    -363.3703310851      4.26e-07  
   13    -363.3703310859      7.42e-08  
   14    -363.3703310859      3.37e-08  
   15    -363.3703310860      3.59e-09  Convergence criterion met
 ---------------------------------------
 SCF time:   CPU 27.98s  wall 7.00s 
 SCF   energy in the final basis set =     -363.3703310860
 Total energy in the final basis set =     -363.3703310860
 
 Direct TDDFT/TDA calculation will be performed
 Exchange:  PBE      Correlation:  PBE
 Using SG-1 standard quadrature grid
 Singlet excitation energies requested
 CIS energy converged when residual is below 10e- 6
 ---------------------------------------------------
 Iter    Rts Conv    Rts Left    Ttl Dev     Max Dev
 ---------------------------------------------------
   1         0           3      0.003914    0.001939
   2         0           3      0.002977    0.001483
   3         0           3      0.002972    0.001497
   4         0           3      0.002102    0.001408
   5         0           3      0.001542    0.001282
   6         0           3      0.000402    0.000336
   7         1           2      0.000316    0.000304
   8         1           2      0.000031    0.000029
   9         2           1      0.000006    0.000006
  10         2           1      0.000002    0.000001
  11         3           0      0.000000    0.000000    Roots Converged
 ---------------------------------------------------
 
 ---------------------------------------------------
         TDDFT/TDA Excitation Energies              
 ---------------------------------------------------

 Excited state   1: excitation energy (eV) =    4.5743
 Total energy for state  1:                  -363.20222801 au
    Multiplicity: Singlet
    Trans. Mom.: -0.0302 X   0.0366 Y   0.1087 Z
    Strength   :     0.0015769029
    D(   31) --> V(    2) amplitude =  0.9975

 Excited state   2: excitation energy (eV) =    4.5774
 Total energy for state  2:                  -363.20211371 au
    Multiplicity: Singlet
    Trans. Mom.:  0.4636 X  -0.5632 Y   0.0070 Z
    Strength   :     0.0596787494
    D(   29) --> V(    1) amplitude = -0.2517
    D(   31) --> V(    1) amplitude =  0.8895

 Excited state   3: excitation energy (eV) =    4.7538
 Total energy for state  3:                  -363.19563396 au
    Multiplicity: Singlet
    Trans. Mom.: -0.3475 X  -0.1152 Y   0.0001 Z
    Strength   :     0.0156106282
    D(   30) --> V(    1) amplitude =  0.7428
    D(   31) --> V(    3) amplitude = -0.6536
 
 ---------------------------------------------------
 Calculating Relaxed Density
 ---------------------------------------------------
 Iter    Rts Conv    Rts Left    Ttl Dev     Max Dev
 ---------------------------------------------------
   1         0           3      0.002370    0.001214
   2         0           3      0.000838    0.000407
   3         0           3      0.000230    0.000113
   4         0           3      0.000082    0.000041
   5         0           3      0.000012    0.000005
   6         3           0      0.000000    0.000000    Roots Converged
 ---------------------------------------------------
  SETman timing summary (seconds)
  CPU time               106.77s
  System time              0.00s
  Wall time               26.99s
 
 --------------------------------------------------------------
 
                    Orbital Energies (a.u.)
 --------------------------------------------------------------
 
 Alpha MOs
 -- Occupied --
-14.0571  -9.9331  -9.9317  -9.9026  -9.8989  -9.8966  -9.8965  -9.8922
 -9.8907  -0.9054  -0.7664  -0.7139  -0.6688  -0.6512  -0.5679  -0.5402
 -0.5267  -0.4895  -0.4348  -0.4225  -0.3924  -0.3831  -0.3793  -0.3655
 -0.3480  -0.3121  -0.2987  -0.2934  -0.2491  -0.2007  -0.1839
 -- Virtual --
 -0.0421  -0.0160  -0.0081   0.0043   0.0111   0.0202   0.0262   0.0284
  0.0460   0.0478   0.0545   0.0570   0.0726   0.0754   0.0952   0.0981
  0.0994   0.1122   0.1203   0.1243   0.1409   0.1417   0.1480   0.1500
  0.1572   0.1621   0.1689   0.1703   0.1805   0.1823   0.1842   0.1853
  0.2016   0.2058   0.2147   0.2204   0.2211   0.2276   0.2377   0.2422
  0.2548   0.2585   0.2614   0.2721   0.2755   0.2835   0.2944   0.3079
  0.3251   0.3374   0.3465   0.3679   0.3911   0.4141   0.4743   0.5370
  0.5774   0.6311   0.6374   0.6561   0.6723   0.6775   0.6852   0.6929
  0.6950   0.7088   0.7099   0.7326   0.7469   0.7521   0.7694   0.8077
  0.8444   0.8505   0.8618   0.8860   0.8916   0.9034   0.9072   0.9346
  0.9519   0.9830   1.0018   1.0112   1.0518   1.0674   1.0694   1.1248
  1.1332   1.1581   1.1761   1.1789   1.2027   1.2595   1.2652   1.2800
  1.3183   1.3510   1.3664   1.3954   1.3977   1.4034   1.4330   1.4382
  1.4855   1.5323   1.5924   1.7229   1.7774   1.8140   1.8236   1.8524
  1.8812   1.9233   1.9268   1.9347   1.9907   2.0268   2.0710   2.0996
  2.1014   2.1257   2.1747   2.1872   2.1921   2.2160   2.2432   2.3060
  2.3333   2.3740   2.4739   2.4808   2.5628   2.5844   2.5924   2.6219
  2.6583   2.7318   2.7705   2.7786   2.8778   2.9041   3.0296   3.1596
  3.3646   4.0590   4.1727   4.2026   4.2370   4.2726   4.3076   4.3913
  4.4303   4.6989
 --------------------------------------------------------------
 
          Ground-State Mulliken Net Atomic Charges

     Atom                 Charge (a.u.)
  ----------------------------------------
      1 C                     0.081362
      2 C                    -0.533204
      3 C                    -0.131062
      4 C                    -1.223589
      5 C                     1.678458
      6 C                    -0.837629
      7 N                    -0.428708
      8 C                     0.121482
      9 C                    -0.265360
     10 H                     0.412277
     11 H                     0.194565
     12 H                     0.196344
     13 H                     0.182748
     14 H                     0.182626
     15 H                     0.181489
     16 H                     0.188202
  ----------------------------------------
  Sum of atomic charges =     0.000000

 -----------------------------------------------------------------
                    Cartesian Multipole Moments
 -----------------------------------------------------------------
    Charge (ESU x 10^10)
                -0.0000
    Dipole Moment (Debye)
         X      -1.5418      Y       1.5876      Z       0.0010
       Tot       2.2130
    Quadrupole Moments (Debye-Ang)
        XX     -45.5657     XY      -3.2213     YY     -44.6134
        XZ      -0.0030     YZ       0.0031     ZZ     -58.5216
    Octopole Moments (Debye-Ang^2)
       XXX     -14.4460    XXY       8.1516    XYY      -8.1988
       YYY      10.5035    XXZ       0.0070    XYZ      -0.0064
       YYZ       0.0019    XZZ      -1.9782    YZZ       2.0069
       ZZZ      -0.0011
    Hexadecapole Moments (Debye-Ang^3)
      XXXX    -820.6639   XXXY     -21.5319   XXYY    -197.0218
      XYYY     -19.7294   YYYY    -373.2352   XXXZ      -0.0229
      XXYZ       0.0124   XYYZ      -0.0067   YYYZ       0.0136
      XXZZ    -188.4192   XYZZ      -3.9643   YYZZ     -93.4796
      XZZZ      -0.0007   YZZZ       0.0027   ZZZZ     -72.8441
 -----------------------------------------------------------------
 Calculating analytic gradient of the CIS energy
 CIS relaxed dipole moment
            1
    1  -1.9027780
    2   0.4049561
    3   0.0622513
	Magnitude:	 1.946 au	 4.947 Debye
 CIS 2 State Energy is -363.2021137137
 Gradient of the state energy (including CIS Excitation Energy)
            1           2           3           4           5           6
    1  -0.0235382  -0.0314785   0.0213418  -0.0161587  -0.0060984   0.0114158
    2  -0.0298056   0.0323735  -0.0401470   0.0358566  -0.0289256   0.0365259
    3  -0.0000192  -0.0000196   0.0004000  -0.0002047   0.0002202   0.0003111
            7           8           9          10          11          12
    1   0.0243716  -0.0210871   0.0374342   0.0060205   0.0041986   0.0091226
    2   0.0279323   0.0239420  -0.0510199  -0.0144031   0.0092086  -0.0015812
    3  -0.0007471  -0.0002204   0.0002401   0.0003918  -0.0000195   0.0000788
           13          14          15          16
    1  -0.0081582   0.0006545  -0.0082543   0.0002137
    2  -0.0043209  -0.0090307   0.0042477   0.0091472
    3  -0.0000371  -0.0001947  -0.0000463  -0.0001334
 Gradient time:  CPU 22.15 s  wall 5.63 s
 Geometry Optimization Parameters
   NAtoms,    NIC,     NZ,  NCons,   NDum,   NFix, NCnnct, MaxDiis
       16     116       0       0       0       0       0       0


** GEOMETRY OPTIMIZATION IN DELOCALIZED INTERNAL COORDINATES **
   Searching for a Minimum

   Optimization Cycle:   1

                       Coordinates (Angstroms)
     ATOM                X               Y               Z
      1  C         2.1510629040   -0.6892079969    0.0000583065
      2  C         2.1279268385    0.7158180020    0.0000481775
      3  C         0.9322968051    1.4130999466   -0.0000206639
      4  C        -0.2469111607    0.6702008918   -0.0000373513
      5  C        -0.2481930942   -0.7482991083    0.0000020775
      6  C         0.9794739374   -1.4235260513    0.0000165335
      7  N        -1.5617741827    1.0775918311   -0.0002621374
      8  C        -1.6201330769   -1.1629001718   -0.0001374500
      9  C        -2.3820131241   -0.0308062080    0.0002797387
     10  H        -1.8763152174    2.0300108152    0.0004667797
     11  H        -1.9921730325   -2.1730101887   -0.0003253498
     12  H        -3.4525491271    0.0824247420    0.0004541695
     13  H         3.0615938132    1.2620200454    0.0000497686
     14  H         0.9172517540    2.4953419460   -0.0000804893
     15  H         3.1042029277   -1.2007849526    0.0000467087
     16  H         1.0093479871   -2.5054210498   -0.0000328375
   Point Group: c1    Number of degrees of freedom:    42


   Energy is   -363.202113714


 Attempting to generate delocalized internal coordinates
 Initial Hessian constructed with Jon Baker's OPTIMIZE code

 42 Hessian modes will be used to form the next step
  Hessian Eigenvalues:
     0.018594    0.019738    0.020011    0.020794    0.021683    0.022200
     0.022636    0.023004    0.023236    0.023608    0.023851    0.023984
     0.024127    0.160000    0.160000    0.160000    0.160000    0.160000
     0.160000    0.160000    0.220000    0.221879    0.226618    0.240111
     0.246509    0.357123    0.357170    0.357835    0.357899    0.364196
     0.364272    0.370088    0.384319    0.426334    0.434649    0.457693
     0.466917    0.471622    0.474685    0.475669    0.481247    0.509555

 Minimum search - taking simple RFO step
 Searching for Lamda that Minimizes Along All modes
 Value Taken    Lamda =  -0.02571872
 Step Taken.  Stepsize is  0.245300

                             Maximum     Tolerance    Cnvgd?
         Gradient           0.054180      0.000300      NO
         Displacement       0.114840      0.001200      NO
         Energy change     *********      0.000001      NO


 New Cartesian Coordinates Obtained by Inverse Iteration

 Displacement from previous Coordinates is:  0.382626
 ----------------------------------------------------------------
             Standard Nuclear Orientation (Angstroms)
    I     Atom           X                Y                Z
 ----------------------------------------------------------------
    1      C       2.2030844766    -0.6911682757    -0.0008876953
    2      C       2.1735553450     0.7149627037    -0.0004272654
    3      C       0.9363254214     1.4416429735    -0.0002312701
    4      C      -0.2458892007     0.6529702541     0.0008533932
    5      C      -0.2361984580    -0.7540783439     0.0000818568
    6      C       1.0057966920    -1.4643849248    -0.0012140859
    7      N      -1.5998477822     1.0592603159     0.0011261014
    8      C      -1.6403114570    -1.1577944209     0.0015653020
    9      C      -2.4572227383    -0.0048494200     0.0000264448
   10      H      -1.9099143665     2.0305397882    -0.0014061410
   11      H      -2.0159062685    -2.1811893531     0.0014069056
   12      H      -3.5387893491     0.1225467974    -0.0017873444
   13      H       3.1189834350     1.2662560615     0.0004087548
   14      H       0.9053004137     2.5360432141     0.0016655746
   15      H       3.1726057431    -1.1991871937    -0.0003643415
   16      H       1.0315230448    -2.5590176837    -0.0002902086
 ----------------------------------------------------------------
 Molecular Point Group                 C1    NOp =  1
 Largest Abelian Subgroup              C1    NOp =  1
 Nuclear Repulsion Energy =         394.84402069 hartrees
 There are       31 alpha and       31 beta electrons
 Applying Cartesian multipole field
    Component          Value
    ---------          -----
     (2,0,0)        1.00000E-11
     (0,2,0)        2.00000E-11
     (0,0,2)       -3.00000E-11
 Nucleus-field energy     =     0.0000000121 hartrees
 Requested basis set is 6-31+G(d)
 There are 59 shells and 185 basis functions
 A cutoff of  1.0D-12 yielded   1656 shell pairs
 There are     17099 function pairs
 Smallest overlap matrix eigenvalue = 1.46E-06
 Guess MOs from SCF MO coefficient file

 -----------------------------------------------------------------------
  General SCF calculation program by
  Eric Jon Sundstrom, Paul Horn, Yuezhi Mao, Dmitri Zuev, Alec White,
  David Stuck, Shaama M.S., Shane Yost, Joonho Lee, David Small,
  Daniel Levine, Susi Lehtola, Hugh Burton, Evgeny Epifanovsky,
  Bang C. Huynh
 -----------------------------------------------------------------------
 Exchange:  PBE      Correlation:  PBE
 Using SG-1 standard quadrature grid
 using 4 threads for integral computing
 -------------------------------------------------------
 OpenMP Integral computing Module                
 Release: version 1.0, May 2013, Q-Chem Inc. Pittsburgh 
 -------------------------------------------------------
 A restricted SCF calculation will be
 performed using DIIS
 SCF converges when DIIS error is below 1.0e-08
 ---------------------------------------
  Cycle       Energy         DIIS error
 ---------------------------------------
    1    -363.3597830748      1.09e-03  
    2    -363.3653286215      4.26e-04  
    3    -363.3651010406      4.85e-04  
    4    -363.3659396230      1.82e-04  
    5    -363.3660974021      4.52e-05  
    6    -363.3661065432      1.64e-05  
    7    -363.3661077478      2.40e-06  
    8    -363.3661077610      1.88e-06  
    9    -363.3661077792      1.92e-07  
   10    -363.3661077793      1.32e-07  
   11    -363.3661077794      1.47e-08  
   12    -363.3661077794      9.65e-09  Convergence criterion met
 ---------------------------------------
 SCF time:   CPU 22.05s  wall 5.00s 
 SCF   energy in the final basis set =     -363.3661077794
 Total energy in the final basis set =     -363.3661077794
 
 Direct TDDFT/TDA calculation will be performed
 Exchange:  PBE      Correlation:  PBE
 Using SG-1 standard quadrature grid
 Singlet excitation energies requested
 CIS energy converged when residual is below 10e- 6
 ---------------------------------------------------
 Iter    Rts Conv    Rts Left    Ttl Dev     Max Dev
 ---------------------------------------------------
   1         0           3      0.003896    0.001934
   2         0           3      0.003179    0.001645
   3         0           3      0.001724    0.001149
   4         0           3      0.000871    0.000656
   5         0           3      0.000229    0.000167
   6         1           2      0.000057    0.000041
   7         1           2      0.000010    0.000007
   8         2           1      0.000002    0.000001
   9         3           0      0.000001    0.000000    Roots Converged
 ---------------------------------------------------
 
 ---------------------------------------------------
         TDDFT/TDA Excitation Energies              
 ---------------------------------------------------

 Excited state   1: excitation energy (eV) =    4.0706
 Total energy for state  1:                  -363.21651683 au
    Multiplicity: Singlet
    Trans. Mom.: -0.5094 X   0.5675 Y  -0.0002 Z
    Strength   :     0.0579972926
    D(   29) --> V(    1) amplitude = -0.2896
    D(   31) --> V(    1) amplitude =  0.8992

 Excited state   2: excitation energy (eV) =    4.3678
 Total energy for state  2:                  -363.20559254 au
    Multiplicity: Singlet
    Trans. Mom.: -0.0026 X   0.0019 Y   0.1037 Z
    Strength   :     0.0011527607
    D(   31) --> V(    2) amplitude =  0.9996

 Excited state   3: excitation energy (eV) =    4.5571
 Total energy for state  3:                  -363.19863641 au
    Multiplicity: Singlet
    Trans. Mom.: -0.1146 X  -0.1692 Y   0.0001 Z
    Strength   :     0.0046653975
    D(   30) --> V(    1) amplitude =  0.7220
    D(   31) --> V(    3) amplitude =  0.6680
 
 ---------------------------------------------------
 Calculating Relaxed Density
 ---------------------------------------------------
 Iter    Rts Conv    Rts Left    Ttl Dev     Max Dev
 ---------------------------------------------------
   1         0           3      0.002731    0.001418
   2         0           3      0.000918    0.000496
   3         0           3      0.000260    0.000116
   4         0           3      0.000072    0.000039
   5         1           2      0.000009    0.000005
   6         2           1      0.000001    0.000001
   7         3           0      0.000000    0.000000    Roots Converged
 ---------------------------------------------------
  SETman timing summary (seconds)
  CPU time               100.06s
  System time              0.00s
  Wall time               25.20s
 
 --------------------------------------------------------------
 
                    Orbital Energies (a.u.)
 --------------------------------------------------------------
 
 Alpha MOs
 -- Occupied --
-14.0598  -9.9411  -9.9398  -9.9158  -9.9095  -9.9075  -9.9072  -9.9032
 -9.8974  -0.8977  -0.7595  -0.7013  -0.6686  -0.6437  -0.5672  -0.5343
 -0.5207  -0.4863  -0.4342  -0.4232  -0.3876  -0.3829  -0.3734  -0.3578
 -0.3503  -0.3112  -0.2991  -0.2960  -0.2413  -0.2070  -0.1776
 -- Virtual --
 -0.0532  -0.0173  -0.0124   0.0029   0.0109   0.0131   0.0241   0.0269
  0.0455   0.0480   0.0519   0.0545   0.0717   0.0745   0.0933   0.0954
  0.0961   0.1102   0.1183   0.1230   0.1339   0.1374   0.1452   0.1475
  0.1521   0.1545   0.1644   0.1652   0.1746   0.1800   0.1839   0.1842
  0.1967   0.1984   0.2105   0.2164   0.2191   0.2205   0.2318   0.2387
  0.2525   0.2531   0.2584   0.2617   0.2688   0.2755   0.2894   0.3032
  0.3170   0.3197   0.3274   0.3592   0.3705   0.4045   0.4563   0.5191
  0.5480   0.6300   0.6334   0.6552   0.6691   0.6742   0.6796   0.6821
  0.6906   0.7016   0.7076   0.7282   0.7361   0.7431   0.7566   0.8024
  0.8355   0.8420   0.8445   0.8827   0.8929   0.8987   0.9051   0.9285
  0.9422   0.9785   0.9955   1.0037   1.0480   1.0627   1.0673   1.1167
  1.1225   1.1555   1.1735   1.1780   1.1955   1.2552   1.2577   1.2846
  1.3036   1.3381   1.3429   1.3764   1.4035   1.4090   1.4192   1.4301
  1.4795   1.5126   1.5558   1.7194   1.7453   1.7776   1.8168   1.8233
  1.8464   1.8964   1.9064   1.9149   1.9437   1.9745   2.0396   2.0573
  2.0848   2.1154   2.1411   2.1674   2.1743   2.1801   2.2064   2.2714
  2.2920   2.3585   2.4269   2.4442   2.5383   2.5420   2.5671   2.5786
  2.6364   2.6901   2.7227   2.7528   2.8516   2.8732   2.9510   3.1242
  3.2802   4.0415   4.1408   4.1876   4.2262   4.2523   4.2997   4.3751
  4.4188   4.6690
 --------------------------------------------------------------
 
          Ground-State Mulliken Net Atomic Charges

     Atom                 Charge (a.u.)
  ----------------------------------------
      1 C                     0.030998
      2 C                    -0.444914
      3 C                    -0.301852
      4 C                    -1.276398
      5 C                     1.787477
      6 C                    -0.665190
      7 N                    -0.403990
      8 C                    -0.095063
      9 C                    -0.193542
     10 H                     0.410550
     11 H                     0.191981
     12 H                     0.204845
     13 H                     0.186580
     14 H                     0.188256
     15 H                     0.185568
     16 H                     0.194693
  ----------------------------------------
  Sum of atomic charges =     0.000000

 -----------------------------------------------------------------
                    Cartesian Multipole Moments
 -----------------------------------------------------------------
    Charge (ESU x 10^10)
                 0.0000
    Dipole Moment (Debye)
         X      -1.4404      Y       1.6803      Z      -0.0024
       Tot       2.2132
    Quadrupole Moments (Debye-Ang)
        XX     -44.8561     XY      -3.6864     YY     -44.8242
        XZ       0.0219     YZ      -0.0054     ZZ     -59.2719
    Octopole Moments (Debye-Ang^2)
       XXX     -16.2754    XXY       9.3492    XYY      -7.1796
       YYY      11.1194    XXZ      -0.0343    XYZ       0.0222
       YYZ      -0.0002    XZZ      -1.9115    YZZ       2.3274
       ZZZ      -0.0137
    Hexadecapole Moments (Debye-Ang^3)
      XXXX    -841.1744   XXXY     -23.6532   XXYY    -206.0035
      XYYY     -19.2408   YYYY    -379.0853   XXXZ       0.3222
      XXYZ      -0.0400   XYYZ       0.0949   YYYZ      -0.0415
      XXZZ    -198.0760   XYZZ      -3.7535   YYZZ     -96.3617
      XZZZ       0.1692   YZZZ      -0.0310   ZZZZ     -75.0583
 -----------------------------------------------------------------
 Calculating analytic gradient of the CIS energy
 CIS relaxed dipole moment
            1
    1   2.3159825
    2  -2.7065507
    3  -0.0003467
	Magnitude:	 3.562 au	 9.054 Debye
 CIS 2 State Energy is -363.2055925445
 Gradient of the state energy (including CIS Excitation Energy)
            1           2           3           4           5           6
    1   0.0078262   0.0113981   0.0093254  -0.0000307   0.0117935   0.0025085
    2   0.0045912  -0.0000836   0.0200922  -0.0265852   0.0203053  -0.0150548
    3   0.0000161   0.0000200  -0.0002448   0.0002006  -0.0001582  -0.0002037
            7           8           9          10          11          12
    1   0.0015879  -0.0194815  -0.0428141   0.0122389  -0.0000428   0.0038275
    2   0.0428671   0.0144690  -0.0248448  -0.0342575   0.0020389  -0.0039215
    3   0.0001536   0.0002679  -0.0002003  -0.0000034  -0.0000168  -0.0000382
           13          14          15          16
    1   0.0008272   0.0013575   0.0002754  -0.0005971
    2  -0.0009840   0.0013731   0.0010036  -0.0010090
    3   0.0000241   0.0000857   0.0000297   0.0000678
 Gradient time:  CPU 21.27 s  wall 5.35 s
 Geometry Optimization Parameters
   NAtoms,    NIC,     NZ,  NCons,   NDum,   NFix, NCnnct, MaxDiis
       16     116       0       0       0       0       0       0

 Cartesian Hessian Update
 Hessian updated using BFGS update


** GEOMETRY OPTIMIZATION IN DELOCALIZED INTERNAL COORDINATES **
   Searching for a Minimum

   Optimization Cycle:   2

                       Coordinates (Angstroms)
     ATOM                X               Y               Z
      1  C         2.2030844766   -0.6911682757   -0.0008876953
      2  C         2.1735553450    0.7149627037   -0.0004272654
      3  C         0.9363254214    1.4416429735   -0.0002312701
      4  C        -0.2458892007    0.6529702541    0.0008533932
      5  C        -0.2361984580   -0.7540783439    0.0000818568
      6  C         1.0057966920   -1.4643849248   -0.0012140859
      7  N        -1.5998477822    1.0592603159    0.0011261014
      8  C        -1.6403114570   -1.1577944209    0.0015653020
      9  C        -2.4572227383   -0.0048494200    0.0000264448
     10  H        -1.9099143665    2.0305397882   -0.0014061410
     11  H        -2.0159062685   -2.1811893531    0.0014069056
     12  H        -3.5387893491    0.1225467974   -0.0017873444
     13  H         3.1189834350    1.2662560615    0.0004087548
     14  H         0.9053004137    2.5360432141    0.0016655746
     15  H         3.1726057431   -1.1991871937   -0.0003643415
     16  H         1.0315230448   -2.5590176837   -0.0002902086
   Point Group: c1    Number of degrees of freedom:    42


   Energy is   -363.205592545

 Hessian updated using BFGS update

 39 Hessian modes will be used to form the next step
  Hessian Eigenvalues:
     0.018595    0.019738    0.020011    0.020794    0.021685    0.022636
     0.023004    0.023236    0.023609    0.023851    0.023984    0.024128
     0.158884    0.160000    0.160000    0.160000    0.160105    0.219278
     0.222292    0.239667    0.245818    0.250205    0.317263    0.357146
     0.357467    0.357871    0.360698    0.364272    0.370401    0.380198
     0.395163    0.426659    0.435448    0.461290    0.470170    0.474662
     0.475785    0.495726    0.844903

 Minimum search - taking simple RFO step
 Searching for Lamda that Minimizes Along All modes
 Value Taken    Lamda =  -0.00857210
 Step Taken.  Stepsize is  0.131783

                             Maximum     Tolerance    Cnvgd?
         Gradient           0.034369      0.000300      NO
         Displacement       0.071319      0.001200      NO
         Energy change     -0.003479      0.000001      NO


 New Cartesian Coordinates Obtained by Inverse Iteration

 Displacement from previous Coordinates is:  0.187681
 ----------------------------------------------------------------
             Standard Nuclear Orientation (Angstroms)
    I     Atom           X                Y                Z
 ----------------------------------------------------------------
    1      C       2.2007111705    -0.6965409689    -0.0006892921
    2      C       2.1584398822     0.7062862461    -0.0004554685
    3      C       0.9164713285     1.4345327842    -0.0000648571
    4      C      -0.2517546984     0.6520209562     0.0007605535
    5      C      -0.2327791336    -0.7650796309     0.0002470410
    6      C       1.0054618181    -1.4736327058    -0.0006201054
    7      N      -1.5997299461     1.0675558443     0.0012006716
    8      C      -1.6174614315    -1.1749534580     0.0008754198
    9      C      -2.4219354390     0.0113433154     0.0003251930
   10      H      -1.9325339411     2.0686887306    -0.0015931798
   11      H      -1.9992048425    -2.2023632894     0.0005291920
   12      H      -3.5089615460     0.1603557160    -0.0011620557
   13      H       3.1009401492     1.2690436303    -0.0000037970
   14      H       0.8757393193     2.5306163276     0.0015507625
   15      H       3.1744352263    -1.2047517638    -0.0004644267
   16      H       1.0352570354    -2.5705692412     0.0000903300
 ----------------------------------------------------------------
 Molecular Point Group                 C1    NOp =  1
 Largest Abelian Subgroup              C1    NOp =  1
 Nuclear Repulsion Energy =         395.58391526 hartrees
 There are       31 alpha and       31 beta electrons
 Applying Cartesian multipole field
    Component          Value
    ---------          -----
     (2,0,0)        1.00000E-11
     (0,2,0)        2.00000E-11
     (0,0,2)       -3.00000E-11
 Nucleus-field energy     =     0.0000000120 hartrees
 Requested basis set is 6-31+G(d)
 There are 59 shells and 185 basis functions
 A cutoff of  1.0D-12 yielded   1655 shell pairs
 There are     17093 function pairs
 Smallest overlap matrix eigenvalue = 1.38E-06
 Guess MOs from SCF MO coefficient file

 -----------------------------------------------------------------------
  General SCF calculation program by
  Eric Jon Sundstrom, Paul Horn, Yuezhi Mao, Dmitri Zuev, Alec White,
  David Stuck, Shaama M.S., Shane Yost, Joonho Lee, David Small,
  Daniel Levine, Susi Lehtola, Hugh Burton, Evgeny Epifanovsky,
  Bang C. Huynh
 -----------------------------------------------------------------------
 Exchange:  PBE      Correlation:  PBE
 Using SG-1 standard quadrature grid
 using 4 threads for integral computing
 -------------------------------------------------------
 OpenMP Integral computing Module                
 Release: version 1.0, May 2013, Q-Chem Inc. Pittsburgh 
 -------------------------------------------------------
 A restricted SCF calculation will be
 performed using DIIS
 SCF converges when DIIS error is below 1.0e-08
 ---------------------------------------
  Cycle       Energy         DIIS error
 ---------------------------------------
    1    -363.3625306005      5.23e-04  
    2    -363.3640184212      1.89e-04  
    3    -363.3636722838      3.34e-04  
    4    -363.3641607887      7.06e-05  
    5    -363.3641769845      3.96e-05  
    6    -363.3641842242      7.74e-06  
    7    -363.3641845078      2.61e-06  
    8    -363.3641845379      6.97e-07  
    9    -363.3641845400      2.54e-07  
   10    -363.3641845403      1.13e-07  
   11    -363.3641845403      1.61e-08  
   12    -363.3641845404      9.17e-09  Convergence criterion met
 ---------------------------------------
 SCF time:   CPU 22.16s  wall 6.00s 
 SCF   energy in the final basis set =     -363.3641845404
 Total energy in the final basis set =     -363.3641845404
 
 Direct TDDFT/TDA calculation will be performed
 Exchange:  PBE      Correlation:  PBE
 Using SG-1 standard quadrature grid
 Singlet excitation energies requested
 CIS energy converged when residual is below 10e- 6
 ---------------------------------------------------
 Iter    Rts Conv    Rts Left    Ttl Dev     Max Dev
 ---------------------------------------------------
   1         0           3      0.003951    0.001955
   2         0           3      0.003160    0.001583
   3         0           3      0.001953    0.001329
   4         0           3      0.001274    0.001052
   5         0           3      0.000328    0.000266
   6         1           2      0.000088    0.000076
   7         1           2      0.000014    0.000012
   8         2           1      0.000002    0.000002
   9         3           0      0.000001    0.000000    Roots Converged
 ---------------------------------------------------
 
 ---------------------------------------------------
         TDDFT/TDA Excitation Energies              
 ---------------------------------------------------

 Excited state   1: excitation energy (eV) =    4.0701
 Total energy for state  1:                  -363.21461103 au
    Multiplicity: Singlet
    Trans. Mom.: -0.6206 X   0.5682 Y  -0.0011 Z
    Strength   :     0.0705889366
    D(   29) --> V(    1) amplitude = -0.2721
    D(   31) --> V(    1) amplitude =  0.8932

 Excited state   2: excitation energy (eV) =    4.1419
 Total energy for state  2:                  -363.21197292 au
    Multiplicity: Singlet
    Trans. Mom.:  0.0096 X  -0.0079 Y  -0.0969 Z
    Strength   :     0.0009683109
    D(   31) --> V(    2) amplitude =  0.9995

 Excited state   3: excitation energy (eV) =    4.5648
 Total energy for state  3:                  -363.19643102 au
    Multiplicity: Singlet
    Trans. Mom.: -0.0624 X   0.1658 Y  -0.0001 Z
    Strength   :     0.0035088069
    D(   30) --> V(    1) amplitude =  0.7012
    D(   31) --> V(    3) amplitude = -0.6806
 
 ---------------------------------------------------
 Calculating Relaxed Density
 ---------------------------------------------------
 Iter    Rts Conv    Rts Left    Ttl Dev     Max Dev
 ---------------------------------------------------
   1         0           3      0.002684    0.001341
   2         0           3      0.000928    0.000514
   3         0           3      0.000235    0.000112
   4         0           3      0.000080    0.000042
   5         0           3      0.000010    0.000005
   6         3           0      0.000000    0.000000    Roots Converged
 ---------------------------------------------------
  SETman timing summary (seconds)
  CPU time                97.94s
  System time              0.00s
  Wall time               24.68s
 
 --------------------------------------------------------------
 
                    Orbital Energies (a.u.)
 --------------------------------------------------------------
 
 Alpha MOs
 -- Occupied --
-14.0655  -9.9414  -9.9384  -9.9142  -9.9077  -9.9067  -9.9058  -9.9027
 -9.8975  -0.9042  -0.7601  -0.7011  -0.6700  -0.6395  -0.5672  -0.5349
 -0.5207  -0.4858  -0.4316  -0.4214  -0.3896  -0.3843  -0.3774  -0.3569
 -0.3466  -0.3102  -0.2984  -0.2971  -0.2423  -0.2077  -0.1743
 -- Virtual --
 -0.0516  -0.0225  -0.0115   0.0026   0.0109   0.0137   0.0242   0.0267
  0.0451   0.0479   0.0501   0.0545   0.0711   0.0750   0.0933   0.0948
  0.0960   0.1106   0.1185   0.1190   0.1349   0.1356   0.1453   0.1467
  0.1531   0.1557   0.1644   0.1656   0.1760   0.1786   0.1838   0.1841
  0.1967   0.1984   0.2106   0.2173   0.2177   0.2211   0.2312   0.2387
  0.2516   0.2530   0.2589   0.2624   0.2686   0.2752   0.2926   0.3046
  0.3192   0.3212   0.3298   0.3544   0.3716   0.4045   0.4590   0.5194
  0.5490   0.6306   0.6336   0.6539   0.6723   0.6785   0.6793   0.6819
  0.6906   0.7054   0.7089   0.7288   0.7377   0.7435   0.7615   0.8037
  0.8314   0.8407   0.8454   0.8828   0.8916   0.9012   0.9043   0.9300
  0.9431   0.9717   0.9848   0.9948   1.0455   1.0611   1.0689   1.1220
  1.1247   1.1541   1.1758   1.1780   1.1912   1.2552   1.2630   1.2853
  1.3058   1.3448   1.3454   1.3793   1.4008   1.4056   1.4225   1.4313
  1.4831   1.5189   1.5690   1.7007   1.7463   1.7832   1.8200   1.8224
  1.8443   1.8938   1.8971   1.9239   1.9507   1.9799   2.0383   2.0730
  2.0825   2.0829   2.1438   2.1588   2.1843   2.1962   2.2195   2.2787
  2.3091   2.3628   2.4283   2.4511   2.5397   2.5465   2.5629   2.5826
  2.6347   2.6974   2.7336   2.7468   2.8456   2.8852   2.9546   3.1224
  3.2866   4.0436   4.1426   4.1890   4.2202   4.2542   4.2985   4.3776
  4.4215   4.6711
 --------------------------------------------------------------
 
          Ground-State Mulliken Net Atomic Charges

     Atom                 Charge (a.u.)
  ----------------------------------------
      1 C                     0.020926
      2 C                    -0.447753
      3 C                    -0.319863
      4 C                    -1.287796
      5 C                     1.789134
      6 C                    -0.628172
      7 N                    -0.362356
      8 C                    -0.115164
      9 C                    -0.204972
     10 H                     0.410151
     11 H                     0.193492
     12 H                     0.200107
     13 H                     0.184938
     14 H                     0.187242
     15 H                     0.185704
     16 H                     0.194381
  ----------------------------------------
  Sum of atomic charges =     0.000000

 -----------------------------------------------------------------
                    Cartesian Multipole Moments
 -----------------------------------------------------------------
    Charge (ESU x 10^10)
                 0.0000
    Dipole Moment (Debye)
         X      -1.5418      Y       1.8227      Z      -0.0030
       Tot       2.3873
    Quadrupole Moments (Debye-Ang)
        XX     -45.3038     XY      -4.2052     YY     -44.4990
        XZ       0.0180     YZ      -0.0058     ZZ     -59.2974
    Octopole Moments (Debye-Ang^2)
       XXX     -15.6311    XXY      10.2646    XYY      -8.3239
       YYY      12.1591    XXZ      -0.0377    XYZ       0.0207
       YYZ      -0.0110    XZZ      -2.0472    YZZ       2.6162
       ZZZ      -0.0238
    Hexadecapole Moments (Debye-Ang^3)
      XXXX    -840.1709   XXXY     -24.7437   XXYY    -202.9472
      XYYY     -18.5003   YYYY    -380.2589   XXXZ       0.2454
      XXYZ      -0.0389   XYYZ       0.0923   YYYZ      -0.0415
      XXZZ    -196.1835   XYZZ      -2.9140   YYZZ     -97.1741
      XZZZ       0.1395   YZZZ      -0.0286   ZZZZ     -75.1673
 -----------------------------------------------------------------
 Calculating analytic gradient of the CIS energy
 CIS relaxed dipole moment
            1
    1   2.3256530
    2  -2.7221236
    3  -0.0080525
	Magnitude:	 3.580 au	 9.100 Debye
 CIS 2 State Energy is -363.2119729223
 Gradient of the state energy (including CIS Excitation Energy)
            1           2           3           4           5           6
    1   0.0081667   0.0088840   0.0019666  -0.0016325   0.0125419  -0.0044882
    2   0.0099908  -0.0069670   0.0162662  -0.0221587   0.0151656  -0.0135790
    3   0.0000045  -0.0000228  -0.0002170   0.0001924  -0.0001589  -0.0001582
            7           8           9          10          11          12
    1  -0.0064584  -0.0103509  -0.0210113   0.0083284  -0.0005696   0.0002935
    2   0.0281015   0.0060318  -0.0083169  -0.0214279  -0.0025654  -0.0006384
    3   0.0002476   0.0001317  -0.0000782  -0.0001254  -0.0000042  -0.0000530
           13          14          15          16
    1   0.0022703  -0.0001577   0.0024205  -0.0002032
    2   0.0005753   0.0029915  -0.0008503  -0.0026192
    3   0.0000215   0.0001086   0.0000332   0.0000784
 Gradient time:  CPU 21.37 s  wall 5.38 s
 Geometry Optimization Parameters
   NAtoms,    NIC,     NZ,  NCons,   NDum,   NFix, NCnnct, MaxDiis
       16     116       0       0       0       0       0       0

 Cartesian Hessian Update
 Hessian updated using BFGS update


** GEOMETRY OPTIMIZATION IN DELOCALIZED INTERNAL COORDINATES **
   Searching for a Minimum

   Optimization Cycle:   3

                       Coordinates (Angstroms)
     ATOM                X               Y               Z
      1  C         2.2007111705   -0.6965409689   -0.0006892921
      2  C         2.1584398822    0.7062862461   -0.0004554685
      3  C         0.9164713285    1.4345327842   -0.0000648571
      4  C        -0.2517546984    0.6520209562    0.0007605535
      5  C        -0.2327791336   -0.7650796309    0.0002470410
      6  C         1.0054618181   -1.4736327058   -0.0006201054
      7  N        -1.5997299461    1.0675558443    0.0012006716
      8  C        -1.6174614315   -1.1749534580    0.0008754198
      9  C        -2.4219354390    0.0113433154    0.0003251930
     10  H        -1.9325339411    2.0686887306   -0.0015931798
     11  H        -1.9992048425   -2.2023632894    0.0005291920
     12  H        -3.5089615460    0.1603557160   -0.0011620557
     13  H         3.1009401492    1.2690436303   -0.0000037970
     14  H         0.8757393193    2.5306163276    0.0015507625
     15  H         3.1744352263   -1.2047517638   -0.0004644267
     16  H         1.0352570354   -2.5705692412    0.0000903300
   Point Group: c1    Number of degrees of freedom:    42


   Energy is   -363.211972922

 Hessian updated using BFGS update

 40 Hessian modes will be used to form the next step
  Hessian Eigenvalues:
     0.018596    0.019738    0.020011    0.020794    0.021685    0.022200
     0.022636    0.023004    0.023236    0.023609    0.023851    0.023984
     0.024128    0.156711    0.160000    0.160000    0.160021    0.162164
     0.217082    0.221657    0.228509    0.245219    0.256117    0.279273
     0.357163    0.357410    0.357911    0.359370    0.365117    0.368754
     0.370741    0.390954    0.426877    0.435466    0.461854    0.473951
     0.475569    0.487524    0.493521    0.519549

 Minimum search - taking simple RFO step
 Searching for Lamda that Minimizes Along All modes
 Value Taken    Lamda =  -0.00691806
 Step Taken.  Stepsize is  0.157230

                             Maximum     Tolerance    Cnvgd?
         Gradient           0.022228      0.000300      NO
         Displacement       0.080754      0.001200      NO
         Energy change     -0.006380      0.000001      NO


 New Cartesian Coordinates Obtained by Inverse Iteration

 Displacement from previous Coordinates is:  0.200717
 ----------------------------------------------------------------
             Standard Nuclear Orientation (Angstroms)
    I     Atom           X                Y                Z
 ----------------------------------------------------------------
    1      C       2.1853855441    -0.7031100616     0.0001355612
    2      C       2.1387524638     0.6983854490     0.0002245537
    3      C       0.9039735224     1.4199190422    -0.0001786363
    4      C      -0.2520758232     0.6614779156    -0.0003395985
    5      C      -0.2367868860    -0.7709808074     0.0002861066
    6      C       1.0000783348    -1.4658512894     0.0002428767
    7      N      -1.5911921128     1.0706100059     0.0003157999
    8      C      -1.5882305435    -1.1912922919    -0.0001416502
    9      C      -2.3775528957     0.0186583321    -0.0001413152
   10      H      -1.9653009036     2.1082268899     0.0007505946
   11      H      -1.9774986280    -2.2121594598    -0.0000338426
   12      H      -3.4679504261     0.1716045430     0.0000061433
   13      H       3.0744790450     1.2677727958     0.0000943902
   14      H       0.8690658611     2.5118882741    -0.0003232479
   15      H       3.1543862363    -1.2132086815    -0.0002671633
   16      H       1.0335621628    -2.5593881634    -0.0001045911
 ----------------------------------------------------------------
 Molecular Point Group                 C1    NOp =  1
 Largest Abelian Subgroup              C1    NOp =  1
 Nuclear Repulsion Energy =         397.89570158 hartrees
 There are       31 alpha and       31 beta electrons
 Applying Cartesian multipole field
    Component          Value
    ---------          -----
     (2,0,0)        1.00000E-11
     (0,2,0)        2.00000E-11
     (0,0,2)       -3.00000E-11
 Nucleus-field energy     =     0.0000000119 hartrees
 Requested basis set is 6-31+G(d)
 There are 59 shells and 185 basis functions
 A cutoff of  1.0D-12 yielded   1655 shell pairs
 There are     17095 function pairs
 Smallest overlap matrix eigenvalue = 1.27E-06
 Guess MOs from SCF MO coefficient file

 -----------------------------------------------------------------------
  General SCF calculation program by
  Eric Jon Sundstrom, Paul Horn, Yuezhi Mao, Dmitri Zuev, Alec White,
  David Stuck, Shaama M.S., Shane Yost, Joonho Lee, David Small,
  Daniel Levine, Susi Lehtola, Hugh Burton, Evgeny Epifanovsky,
  Bang C. Huynh
 -----------------------------------------------------------------------
 Exchange:  PBE      Correlation:  PBE
 Using SG-1 standard quadrature grid
 using 4 threads for integral computing
 -------------------------------------------------------
 OpenMP Integral computing Module                
 Release: version 1.0, May 2013, Q-Chem Inc. Pittsburgh 
 -------------------------------------------------------
 A restricted SCF calculation will be
 performed using DIIS
 SCF converges when DIIS error is below 1.0e-08
 ---------------------------------------
  Cycle       Energy         DIIS error
 ---------------------------------------
    1    -363.3556473706      6.75e-04  
    2    -363.3579246152      2.61e-04  
    3    -363.3571965188      4.79e-04  
    4    -363.3581966125      8.63e-05  
    5    -363.3582186730      4.98e-05  
    6    -363.3582305742      1.16e-05  
    7    -363.3582312439      2.82e-06  
    8    -363.3582312769      1.12e-06  
    9    -363.3582312824      3.73e-07  
   10    -363.3582312830      1.32e-07  
   11    -363.3582312831      3.13e-08  
   12    -363.3582312831      1.10e-08  
   13    -363.3582312831      2.31e-09  Convergence criterion met
 ---------------------------------------
 SCF time:   CPU 24.21s  wall 6.00s 
 SCF   energy in the final basis set =     -363.3582312831
 Total energy in the final basis set =     -363.3582312831
 
 Direct TDDFT/TDA calculation will be performed
 Exchange:  PBE      Correlation:  PBE
 Using SG-1 standard quadrature grid
 Singlet excitation energies requested
 CIS energy converged when residual is below 10e- 6
 ---------------------------------------------------
 Iter    Rts Conv    Rts Left    Ttl Dev     Max Dev
 ---------------------------------------------------
   1         0           3      0.004007    0.001987
   2         0           3      0.003220    0.001622
   3         0           3      0.002621    0.001414
   4         0           3      0.001868    0.001363
   5         1           2      0.000582    0.000404
   6         1           2      0.000135    0.000088
   7         1           2      0.000034    0.000022
   8         1           2      0.000007    0.000004
   9         3           0      0.000001    0.000001    Roots Converged
 ---------------------------------------------------
 
 ---------------------------------------------------
         TDDFT/TDA Excitation Energies              
 ---------------------------------------------------

 Excited state   1: excitation energy (eV) =    3.8648
 Total energy for state  1:                  -363.21620327 au
    Multiplicity: Singlet
    Trans. Mom.: -0.0004 X   0.0007 Y   0.0827 Z
    Strength   :     0.0006473863
    D(   31) --> V(    2) amplitude =  0.9995

 Excited state   2: excitation energy (eV) =    4.1876
 Total energy for state  2:                  -363.20433927 au
    Multiplicity: Singlet
    Trans. Mom.:  0.7376 X  -0.5700 Y   0.0003 Z
    Strength   :     0.0891439485
    D(   29) --> V(    1) amplitude = -0.2413
    D(   31) --> V(    1) amplitude =  0.8824
    D(   31) --> V(    3) amplitude = -0.2478

 Excited state   3: excitation energy (eV) =    4.6185
 Total energy for state  3:                  -363.18850634 au
    Multiplicity: Singlet
    Trans. Mom.:  0.2271 X  -0.1505 Y   0.0002 Z
    Strength   :     0.0083988037
    D(   30) --> V(    1) amplitude =  0.6866
    D(   31) --> V(    3) amplitude =  0.6870
 
 ---------------------------------------------------
 Calculating Relaxed Density
 ---------------------------------------------------
 Iter    Rts Conv    Rts Left    Ttl Dev     Max Dev
 ---------------------------------------------------
   1         0           3      0.002677    0.001316
   2         0           3      0.000948    0.000513
   3         0           3      0.000236    0.000112
   4         0           3      0.000082    0.000044
   5         0           3      0.000011    0.000005
   6         3           0      0.000000    0.000000    Roots Converged
 ---------------------------------------------------
  SETman timing summary (seconds)
  CPU time                98.91s
  System time              0.00s
  Wall time               25.23s
 
 --------------------------------------------------------------
 
                    Orbital Energies (a.u.)
 --------------------------------------------------------------
 
 Alpha MOs
 -- Occupied --
-14.0715  -9.9400  -9.9352  -9.9089  -9.9036  -9.9018  -9.9013  -9.8986
 -9.8950  -0.9120  -0.7624  -0.7034  -0.6721  -0.6374  -0.5675  -0.5351
 -0.5216  -0.4856  -0.4309  -0.4197  -0.3927  -0.3844  -0.3826  -0.3573
 -0.3426  -0.3090  -0.2988  -0.2968  -0.2450  -0.2075  -0.1717
 -- Virtual --
 -0.0472  -0.0303  -0.0093   0.0029   0.0111   0.0165   0.0247   0.0266
  0.0442   0.0477   0.0490   0.0553   0.0712   0.0754   0.0924   0.0956
  0.0965   0.1115   0.1139   0.1193   0.1348   0.1384   0.1461   0.1481
  0.1535   0.1574   0.1659   0.1671   0.1769   0.1802   0.1833   0.1850
  0.1968   0.2025   0.2117   0.2171   0.2187   0.2250   0.2322   0.2397
  0.2520   0.2539   0.2603   0.2671   0.2713   0.2764   0.2948   0.3090
  0.3243   0.3255   0.3395   0.3529   0.3790   0.4069   0.4673   0.5240
  0.5586   0.6313   0.6356   0.6531   0.6731   0.6788   0.6831   0.6890
  0.6913   0.7106   0.7135   0.7306   0.7445   0.7454   0.7695   0.8064
  0.8293   0.8428   0.8506   0.8847   0.8914   0.9040   0.9049   0.9297
  0.9479   0.9525   0.9828   0.9978   1.0456   1.0616   1.0698   1.1273
  1.1297   1.1538   1.1776   1.1779   1.1915   1.2530   1.2743   1.2866
  1.3127   1.3529   1.3566   1.3867   1.3947   1.4070   1.4292   1.4348
  1.4883   1.5209   1.5894   1.6827   1.7512   1.8017   1.8244   1.8301
  1.8537   1.8878   1.9068   1.9345   1.9708   1.9952   2.0517   2.0621
  2.0794   2.0955   2.1523   2.1668   2.1926   2.2239   2.2417   2.2943
  2.3347   2.3739   2.4400   2.4684   2.5522   2.5640   2.5648   2.5952
  2.6381   2.7121   2.7517   2.7544   2.8518   2.9004   2.9753   3.1346
  3.3157   4.0493   4.1544   4.1948   4.2178   4.2619   4.3018   4.3839
  4.4257   4.6808
 --------------------------------------------------------------
 
          Ground-State Mulliken Net Atomic Charges

     Atom                 Charge (a.u.)
  ----------------------------------------
      1 C                     0.033756
      2 C                    -0.474820
      3 C                    -0.226956
      4 C                    -1.233060
      5 C                     1.665594
      6 C                    -0.693196
      7 N                    -0.321570
      8 C                    -0.044109
      9 C                    -0.243490
     10 H                     0.404198
     11 H                     0.194557
     12 H                     0.194903
     13 H                     0.182661
     14 H                     0.185202
     15 H                     0.184643
     16 H                     0.191688
  ----------------------------------------
  Sum of atomic charges =     0.000000

 -----------------------------------------------------------------
                    Cartesian Multipole Moments
 -----------------------------------------------------------------
    Charge (ESU x 10^10)
                -0.0000
    Dipole Moment (Debye)
         X      -1.6979      Y       1.9370      Z       0.0002
       Tot       2.5758
    Quadrupole Moments (Debye-Ang)
        XX     -45.6272     XY      -4.5436     YY     -44.2373
        XZ      -0.0040     YZ       0.0027     ZZ     -59.1233
    Octopole Moments (Debye-Ang^2)
       XXX     -15.5121    XXY      10.8633    XYY      -9.6572
       YYY      13.0777    XXZ      -0.0019    XYZ      -0.0027
       YYZ       0.0005    XZZ      -2.2010    YZZ       2.7389
       ZZZ      -0.0066
    Hexadecapole Moments (Debye-Ang^3)
      XXXX    -832.6192   XXXY     -25.3754   XXYY    -197.6166
      XYYY     -18.4678   YYYY    -379.4163   XXXZ      -0.0383
      XXYZ       0.0187   XYYZ      -0.0223   YYYZ       0.0210
      XXZZ    -192.4704   XYZZ      -2.3378   YYZZ     -96.9385
      XZZZ      -0.0172   YZZZ       0.0070   ZZZZ     -74.7116
 -----------------------------------------------------------------
 Calculating analytic gradient of the CIS energy
 CIS relaxed dipole moment
            1
    1  -2.0222270
    2   0.5599599
    3   0.0006261
	Magnitude:	 2.098 au	 5.333 Debye
 CIS 2 State Energy is -363.2043392667
 Gradient of the state energy (including CIS Excitation Energy)
            1           2           3           4           5           6
    1  -0.0125163  -0.0019122  -0.0270339   0.0012401  -0.0221036   0.0089073
    2  -0.0135396   0.0035472  -0.0318043   0.0460102  -0.0323685   0.0215626
    3  -0.0000004   0.0000442  -0.0000111  -0.0001159   0.0000887   0.0000081
            7           8           9          10          11          12
    1   0.0098783   0.0220022   0.0494253  -0.0212403   0.0011831  -0.0058663
    2  -0.0611410  -0.0067461   0.0223960   0.0497243  -0.0021981   0.0065815
    3   0.0000194  -0.0000226  -0.0000253   0.0000400   0.0000074   0.0000017
           13          14          15          16
    1  -0.0003469  -0.0025162  -0.0002796   0.0011789
    2  -0.0001402  -0.0012688  -0.0008331   0.0002179
    3  -0.0000084  -0.0000010  -0.0000173  -0.0000075
 Gradient time:  CPU 21.45 s  wall 5.40 s
 Geometry Optimization Parameters
   NAtoms,    NIC,     NZ,  NCons,   NDum,   NFix, NCnnct, MaxDiis
       16     116       0       0       0       0       0       0

 Cartesian Hessian Update
 Hessian updated using BFGS update


** GEOMETRY OPTIMIZATION IN DELOCALIZED INTERNAL COORDINATES **
   Searching for a Minimum

   Optimization Cycle:   4

                       Coordinates (Angstroms)
     ATOM                X               Y               Z
      1  C         2.1853855441   -0.7031100616    0.0001355612
      2  C         2.1387524638    0.6983854490    0.0002245537
      3  C         0.9039735224    1.4199190422   -0.0001786363
      4  C        -0.2520758232    0.6614779156   -0.0003395985
      5  C        -0.2367868860   -0.7709808074    0.0002861066
      6  C         1.0000783348   -1.4658512894    0.0002428767
      7  N        -1.5911921128    1.0706100059    0.0003157999
      8  C        -1.5882305435   -1.1912922919   -0.0001416502
      9  C        -2.3775528957    0.0186583321   -0.0001413152
     10  H        -1.9653009036    2.1082268899    0.0007505946
     11  H        -1.9774986280   -2.2121594598   -0.0000338426
     12  H        -3.4679504261    0.1716045430    0.0000061433
     13  H         3.0744790450    1.2677727958    0.0000943902
     14  H         0.8690658611    2.5118882741   -0.0003232479
     15  H         3.1543862363   -1.2132086815   -0.0002671633
     16  H         1.0335621628   -2.5593881634   -0.0001045911
   Point Group: c1    Number of degrees of freedom:    42


   Energy is   -363.204339267

 Hessian updated using BFGS update

 41 Hessian modes will be used to form the next step
  Hessian Eigenvalues:
     0.018596    0.019738    0.020011    0.020794    0.021684    0.022200
     0.022636    0.023005    0.023236    0.023609    0.023851    0.023984
     0.024128    0.159215    0.160000    0.160000    0.160002    0.160533
     0.161533    0.219725    0.228167    0.237754    0.246264    0.260875
     0.356676    0.357165    0.357702    0.358024    0.363571    0.365557
     0.370385    0.388755    0.419463    0.426808    0.435891    0.462555
     0.467492    0.474385    0.487085    0.495858    0.998413

 Minimum search - taking simple RFO step
 Searching for Lamda that Minimizes Along All modes
 Value Taken    Lamda =  -0.00989121
 Step Taken.  Stepsize is  0.106803

                             Maximum     Tolerance    Cnvgd?
         Gradient           0.042960      0.000300      NO
         Displacement       0.055564      0.001200      NO
         Energy change      0.007634      0.000001      NO


 New Cartesian Coordinates Obtained by Inverse Iteration

 Displacement from previous Coordinates is:  0.140959
 ----------------------------------------------------------------
             Standard Nuclear Orientation (Angstroms)
    I     Atom           X                Y                Z
 ----------------------------------------------------------------
    1      C       2.1876142676    -0.6969769686     0.0001719502
    2      C       2.1477125130     0.7049631811     0.0001521378
    3      C       0.9191802366     1.4317943246    -0.0000427593
    4      C      -0.2478143959     0.6583591929    -0.0002808112
    5      C      -0.2361272600    -0.7632185271     0.0002056043
    6      C       0.9977066778    -1.4649072339     0.0003402896
    7      N      -1.5931624484     1.0663384350     0.0001203951
    8      C      -1.6056027384    -1.1823242804    -0.0003772866
    9      C      -2.4035790196     0.0086890320     0.0001091074
   10      H      -1.9397503304     2.0771701772     0.0004856398
   11      H      -1.9915270528    -2.2034086660    -0.0003563799
   12      H      -3.4903286759     0.1482715559     0.0004349157
   13      H       3.0864718705     1.2683147672    -0.0000340176
   14      H       0.8894596973     2.5243144304    -0.0002504378
   15      H       3.1563572860    -1.2066487800    -0.0001671657
   16      H       1.0264843239    -2.5581781476     0.0000147995
 ----------------------------------------------------------------
 Molecular Point Group                 C1    NOp =  1
 Largest Abelian Subgroup              C1    NOp =  1
 Nuclear Repulsion Energy =         396.96160270 hartrees
 There are       31 alpha and       31 beta electrons
 Applying Cartesian multipole field
    Component          Value
    ---------          -----
     (2,0,0)        1.00000E-11
     (0,2,0)        2.00000E-11
     (0,0,2)       -3.00000E-11
 Nucleus-field energy     =     0.0000000120 hartrees
 Requested basis set is 6-31+G(d)
 There are 59 shells and 185 basis functions
 A cutoff of  1.0D-12 yielded   1656 shell pairs
 There are     17099 function pairs
 Smallest overlap matrix eigenvalue = 1.36E-06
 Guess MOs from SCF MO coefficient file

 -----------------------------------------------------------------------
  General SCF calculation program by
  Eric Jon Sundstrom, Paul Horn, Yuezhi Mao, Dmitri Zuev, Alec White,
  David Stuck, Shaama M.S., Shane Yost, Joonho Lee, David Small,
  Daniel Levine, Susi Lehtola, Hugh Burton, Evgeny Epifanovsky,
  Bang C. Huynh
 -----------------------------------------------------------------------
 Exchange:  PBE      Correlation:  PBE
 Using SG-1 standard quadrature grid
 using 4 threads for integral computing
 -------------------------------------------------------
 OpenMP Integral computing Module                
 Release: version 1.0, May 2013, Q-Chem Inc. Pittsburgh 
 -------------------------------------------------------
 A restricted SCF calculation will be
 performed using DIIS
 SCF converges when DIIS error is below 1.0e-08
 ---------------------------------------
  Cycle       Energy         DIIS error
 ---------------------------------------
    1    -363.3634155207      4.69e-04  
    2    -363.3645169760      2.00e-04  
    3    -363.3641753786      3.44e-04  
    4    -363.3646709637      6.41e-05  
    5    -363.3646830612      3.85e-05  
    6    -363.3646901221      7.56e-06  
    7    -363.3646903980      2.01e-06  
    8    -363.3646904157      6.91e-07  
    9    -363.3646904179      2.16e-07  
   10    -363.3646904181      9.33e-08  
   11    -363.3646904182      1.78e-08  
   12    -363.3646904182      8.10e-09  Convergence criterion met
 ---------------------------------------
 SCF time:   CPU 22.32s  wall 6.00s 
 SCF   energy in the final basis set =     -363.3646904182
 Total energy in the final basis set =     -363.3646904182
 
 Direct TDDFT/TDA calculation will be performed
 Exchange:  PBE      Correlation:  PBE
 Using SG-1 standard quadrature grid
 Singlet excitation energies requested
 CIS energy converged when residual is below 10e- 6
 ---------------------------------------------------
 Iter    Rts Conv    Rts Left    Ttl Dev     Max Dev
 ---------------------------------------------------
   1         0           3      0.003961    0.001962
   2         0           3      0.003111    0.001551
   3         0           3      0.002122    0.001365
   4         0           3      0.001356    0.000947
   5         1           2      0.000412    0.000258
   6         1           2      0.000114    0.000076
   7         1           2      0.000020    0.000012
   8         1           2      0.000003    0.000002
   9         3           0      0.000001    0.000000    Roots Converged
 ---------------------------------------------------
 
 ---------------------------------------------------
         TDDFT/TDA Excitation Energies              
 ---------------------------------------------------

 Excited state   1: excitation energy (eV) =    4.0977
 Total energy for state  1:                  -363.21410144 au
    Multiplicity: Singlet
    Trans. Mom.: -0.0030 X   0.0031 Y   0.0945 Z
    Strength   :     0.0008976751
    D(   31) --> V(    2) amplitude =  0.9996

 Excited state   2: excitation energy (eV) =    4.1457
 Total energy for state  2:                  -363.21233988 au
    Multiplicity: Singlet
    Trans. Mom.:  0.6412 X  -0.5636 Y   0.0006 Z
    Strength   :     0.0740164472
    D(   29) --> V(    1) amplitude = -0.2598
    D(   31) --> V(    1) amplitude =  0.8909
    D(   31) --> V(    3) amplitude = -0.2156

 Excited state   3: excitation energy (eV) =    4.6000
 Total energy for state  3:                  -363.19564466 au
    Multiplicity: Singlet
    Trans. Mom.:  0.0838 X  -0.1700 Y   0.0001 Z
    Strength   :     0.0040498220
    D(   30) --> V(    1) amplitude =  0.7025
    D(   31) --> V(    3) amplitude =  0.6770
 
 ---------------------------------------------------
 Calculating Relaxed Density
 ---------------------------------------------------
 Iter    Rts Conv    Rts Left    Ttl Dev     Max Dev
 ---------------------------------------------------
   1         0           3      0.002652    0.001317
   2         0           3      0.000920    0.000506
   3         0           3      0.000236    0.000111
   4         0           3      0.000080    0.000042
   5         0           3      0.000010    0.000005
   6         3           0      0.000000    0.000000    Roots Converged
 ---------------------------------------------------
  SETman timing summary (seconds)
  CPU time                98.59s
  System time              0.00s
  Wall time               24.82s
 
 --------------------------------------------------------------
 
                    Orbital Energies (a.u.)
 --------------------------------------------------------------
 
 Alpha MOs
 -- Occupied --
-14.0670  -9.9400  -9.9370  -9.9114  -9.9046  -9.9042  -9.9030  -9.9001
 -9.8957  -0.9063  -0.7618  -0.7027  -0.6702  -0.6402  -0.5673  -0.5353
 -0.5213  -0.4863  -0.4317  -0.4211  -0.3909  -0.3844  -0.3790  -0.3580
 -0.3453  -0.3095  -0.2982  -0.2980  -0.2439  -0.2068  -0.1742
 -- Virtual --
 -0.0492  -0.0241  -0.0104   0.0028   0.0110   0.0152   0.0247   0.0268
  0.0450   0.0479   0.0502   0.0550   0.0713   0.0751   0.0933   0.0955
  0.0965   0.1111   0.1178   0.1190   0.1358   0.1369   0.1457   0.1481
  0.1540   0.1568   0.1656   0.1664   0.1773   0.1792   0.1836   0.1845
  0.1975   0.2008   0.2115   0.2179   0.2185   0.2229   0.2323   0.2392
  0.2522   0.2540   0.2600   0.2652   0.2699   0.2765   0.2936   0.3071
  0.3211   0.3241   0.3340   0.3546   0.3760   0.4067   0.4630   0.5235
  0.5555   0.6309   0.6346   0.6542   0.6731   0.6790   0.6802   0.6855
  0.6911   0.7080   0.7096   0.7297   0.7410   0.7446   0.7652   0.8051
  0.8321   0.8425   0.8489   0.8835   0.8918   0.9028   0.9045   0.9300
  0.9465   0.9672   0.9843   0.9967   1.0459   1.0625   1.0692   1.1228
  1.1279   1.1545   1.1763   1.1776   1.1924   1.2548   1.2675   1.2852
  1.3093   1.3477   1.3505   1.3825   1.3987   1.4056   1.4253   1.4327
  1.4851   1.5178   1.5780   1.6984   1.7533   1.7948   1.8216   1.8287
  1.8498   1.8950   1.9038   1.9294   1.9628   1.9894   2.0489   2.0761
  2.0847   2.0849   2.1531   2.1613   2.1882   2.2059   2.2279   2.2872
  2.3182   2.3690   2.4351   2.4595   2.5459   2.5574   2.5654   2.5897
  2.6393   2.7047   2.7431   2.7530   2.8518   2.8922   2.9685   3.1290
  3.3053   4.0455   4.1513   4.1935   4.2203   4.2579   4.3002   4.3806
  4.4246   4.6767
 --------------------------------------------------------------
 
          Ground-State Mulliken Net Atomic Charges

     Atom                 Charge (a.u.)
  ----------------------------------------
      1 C                     0.026510
      2 C                    -0.457012
      3 C                    -0.253236
      4 C                    -1.245478
      5 C                     1.701019
      6 C                    -0.686786
      7 N                    -0.356387
      8 C                    -0.047085
      9 C                    -0.230586
     10 H                     0.408469
     11 H                     0.193927
     12 H                     0.198380
     13 H                     0.183739
     14 H                     0.186924
     15 H                     0.184761
     16 H                     0.192842
  ----------------------------------------
  Sum of atomic charges =     0.000000

 -----------------------------------------------------------------
                    Cartesian Multipole Moments
 -----------------------------------------------------------------
    Charge (ESU x 10^10)
                 0.0000
    Dipole Moment (Debye)
         X      -1.5857      Y       1.8398      Z       0.0002
       Tot       2.4289
    Quadrupole Moments (Debye-Ang)
        XX     -45.4398     XY      -4.1629     YY     -44.4017
        XZ      -0.0047     YZ       0.0022     ZZ     -59.1622
    Octopole Moments (Debye-Ang^2)
       XXX     -15.6843    XXY      10.1970    XYY      -8.6604
       YYY      12.3051    XXZ       0.0010    XYZ      -0.0032
       YYZ      -0.0028    XZZ      -2.0439    YZZ       2.5787
       ZZZ      -0.0070
    Hexadecapole Moments (Debye-Ang^3)
      XXXX    -835.0067   XXXY     -24.8484   XXYY    -200.4392
      XYYY     -18.8908   YYYY    -379.1932   XXXZ      -0.0580
      XXYZ       0.0142   XYYZ      -0.0166   YYYZ       0.0153
      XXZZ    -194.0100   XYZZ      -3.0953   YYZZ     -96.7484
      XZZZ      -0.0215   YZZZ       0.0044   ZZZZ     -74.7972
 -----------------------------------------------------------------
 Calculating analytic gradient of the CIS energy
 CIS relaxed dipole moment
            1
    1  -2.1069815
    2   0.5035826
    3   0.0037370
	Magnitude:	 2.166 au	 5.506 Debye
 CIS 2 State Energy is -363.2123398757
 Gradient of the state energy (including CIS Excitation Energy)
            1           2           3           4           5           6
    1  -0.0084575  -0.0028246  -0.0129613  -0.0037169  -0.0136667   0.0046363
    2  -0.0114056   0.0063375  -0.0243500   0.0361739  -0.0271182   0.0186392
    3   0.0000013   0.0000369   0.0000084  -0.0000990   0.0001198   0.0000328
            7           8           9          10          11          12
    1   0.0148889   0.0117061   0.0283475  -0.0132220   0.0007951  -0.0035271
    2  -0.0358125  -0.0021865   0.0053927   0.0323728  -0.0010662   0.0038796
    3  -0.0000568  -0.0000841   0.0000217   0.0000566   0.0000073   0.0000177
           13          14          15          16
    1  -0.0006906  -0.0014292  -0.0004155   0.0005375
    2  -0.0002375  -0.0005229  -0.0002580   0.0001617
    3  -0.0000065  -0.0000160  -0.0000187  -0.0000213
 Gradient time:  CPU 21.56 s  wall 5.43 s
 Geometry Optimization Parameters
   NAtoms,    NIC,     NZ,  NCons,   NDum,   NFix, NCnnct, MaxDiis
       16     116       0       0       0       0       0       0

 Cartesian Hessian Update
 Hessian updated using BFGS update


** GEOMETRY OPTIMIZATION IN DELOCALIZED INTERNAL COORDINATES **
   Searching for a Minimum

   Optimization Cycle:   5

                       Coordinates (Angstroms)
     ATOM                X               Y               Z
      1  C         2.1876142676   -0.6969769686    0.0001719502
      2  C         2.1477125130    0.7049631811    0.0001521378
      3  C         0.9191802366    1.4317943246   -0.0000427593
      4  C        -0.2478143959    0.6583591929   -0.0002808112
      5  C        -0.2361272600   -0.7632185271    0.0002056043
      6  C         0.9977066778   -1.4649072339    0.0003402896
      7  N        -1.5931624484    1.0663384350    0.0001203951
      8  C        -1.6056027384   -1.1823242804   -0.0003772866
      9  C        -2.4035790196    0.0086890320    0.0001091074
     10  H        -1.9397503304    2.0771701772    0.0004856398
     11  H        -1.9915270528   -2.2034086660   -0.0003563799
     12  H        -3.4903286759    0.1482715559    0.0004349157
     13  H         3.0864718705    1.2683147672   -0.0000340176
     14  H         0.8894596973    2.5243144304   -0.0002504378
     15  H         3.1563572860   -1.2066487800   -0.0001671657
     16  H         1.0264843239   -2.5581781476    0.0000147995
   Point Group: c1    Number of degrees of freedom:    42


   Energy is   -363.212339876

 Hessian updated using BFGS update

 42 Hessian modes will be used to form the next step
  Hessian Eigenvalues:
     0.018596    0.019738    0.020011    0.020794    0.021685    0.022200
     0.022636    0.023004    0.023236    0.023609    0.023851    0.023984
     0.024128    0.158619    0.159621    0.160000    0.160000    0.160007
     0.160163    0.161342    0.212648    0.219786    0.231207    0.245923
     0.260552    0.324845    0.357126    0.357415    0.357876    0.358307
     0.365056    0.366037    0.372584    0.394297    0.427987    0.434658
     0.459815    0.467347    0.469486    0.483481    0.496996    0.556367

 Minimum search - taking simple RFO step
 Searching for Lamda that Minimizes Along All modes
 Value Taken    Lamda =  -0.01181673
 Step Taken.  Stepsize is  0.199257

                             Maximum     Tolerance    Cnvgd?
         Gradient           0.029089      0.000300      NO
         Displacement       0.113167      0.001200      NO
         Energy change     -0.008001      0.000001      NO


 New Cartesian Coordinates Obtained by Inverse Iteration

 Displacement from previous Coordinates is:  0.230344
 ----------------------------------------------------------------
             Standard Nuclear Orientation (Angstroms)
    I     Atom           X                Y                Z
 ----------------------------------------------------------------
    1      C       2.1962702129    -0.6892669728    -0.0002181393
    2      C       2.1594361763     0.7107869259    -0.0001442465
    3      C       0.9352181202     1.4570422726     0.0005075441
    4      C      -0.2391306341     0.6429265009     0.0002441165
    5      C      -0.2261414010    -0.7477160418     0.0001918703
    6      C       1.0023350477    -1.4802006309     0.0001631207
    7      N      -1.6066291596     1.0566656421     0.0002796680
    8      C      -1.6294860681    -1.1587064152     0.0002968738
    9      C      -2.4484455060     0.0076481732    -0.0001223354
   10      H      -1.9062090193     2.0181079931    -0.0000094401
   11      H      -2.0116000550    -2.1804260778     0.0002356912
   12      H      -3.5290292245     0.1280153433    -0.0006543601
   13      H       3.1051072125     1.2642885067    -0.0004569962
   14      H       0.9073265936     2.5493596802     0.0005697116
[...]
    Trans. Mom.:  0.7098 X  -0.5635 Y   0.0170 Z
    Strength   :     0.0852422044
    D(   29) --> V(    1) amplitude =  0.2408
    D(   31) --> V(    1) amplitude =  0.8753
    D(   31) --> V(    3) amplitude = -0.2443

 Excited state   3: excitation energy (eV) =    4.6123
 Total energy for state  3:                  -363.19329967 au
    Multiplicity: Singlet
    Trans. Mom.: -0.1395 X   0.1661 Y  -0.0010 Z
    Strength   :     0.0053168455
    D(   30) --> V(    1) amplitude =  0.6996
    D(   31) --> V(    3) amplitude = -0.6773
 
 ---------------------------------------------------
 Calculating Relaxed Density
 ---------------------------------------------------
 Iter    Rts Conv    Rts Left    Ttl Dev     Max Dev
 ---------------------------------------------------
   1         0           3      0.002594    0.001275
   2         0           3      0.000918    0.000501
   3         0           3      0.000233    0.000110
   4         0           3      0.000079    0.000043
   5         0           3      0.000010    0.000005
   6         3           0      0.000000    0.000000    Roots Converged
 ---------------------------------------------------
  SETman timing summary (seconds)
  CPU time                98.36s
  System time              0.00s
  Wall time               24.75s
 
 --------------------------------------------------------------
 
                    Orbital Energies (a.u.)
 --------------------------------------------------------------
 
 Alpha MOs
 -- Occupied --
-14.0698  -9.9398  -9.9358  -9.9090  -9.9038  -9.9022  -9.9016  -9.8988
 -9.8954  -0.9097  -0.7620  -0.7040  -0.6710  -0.6395  -0.5673  -0.5358
 -0.5220  -0.4857  -0.4323  -0.4207  -0.3919  -0.3836  -0.3808  -0.3572
 -0.3450  -0.3106  -0.2987  -0.2951  -0.2453  -0.2064  -0.1738
 -- Virtual --
 -0.0474  -0.0269  -0.0102   0.0030   0.0109   0.0164   0.0248   0.0268
  0.0448   0.0476   0.0498   0.0553   0.0713   0.0749   0.0931   0.0959
  0.0967   0.1110   0.1160   0.1192   0.1352   0.1382   0.1462   0.1485
  0.1536   0.1579   0.1659   0.1669   0.1771   0.1797   0.1823   0.1855
  0.1976   0.2029   0.2122   0.2175   0.2187   0.2244   0.2325   0.2399
  0.2524   0.2539   0.2600   0.2669   0.2706   0.2762   0.2939   0.3074
  0.3228   0.3256   0.3372   0.3521   0.3778   0.4061   0.4656   0.5234
  0.5585   0.6300   0.6380   0.6544   0.6734   0.6787   0.6820   0.6874
  0.6917   0.7097   0.7110   0.7306   0.7435   0.7453   0.7676   0.8058
  0.8311   0.8432   0.8506   0.8840   0.8908   0.9023   0.9063   0.9305
  0.9470   0.9568   0.9834   0.9977   1.0464   1.0606   1.0674   1.1221
  1.1284   1.1518   1.1722   1.1774   1.1928   1.2528   1.2698   1.2842
  1.3098   1.3453   1.3552   1.3898   1.3951   1.4076   1.4303   1.4339
  1.4904   1.5222   1.5854   1.6883   1.7530   1.8029   1.8215   1.8310
  1.8546   1.8921   1.9053   1.9326   1.9668   1.9946   2.0515   2.0682
  2.0816   2.0891   2.1570   2.1686   2.1882   2.2146   2.2328   2.2909
  2.3320   2.3713   2.4404   2.4663   2.5533   2.5643   2.5653   2.5941
  2.6358   2.7094   2.7476   2.7568   2.8554   2.8921   2.9761   3.1371
  3.3129   4.0466   4.1545   4.1939   4.2190   4.2599   4.3023   4.3830
  4.4249   4.6804
 --------------------------------------------------------------
 
          Ground-State Mulliken Net Atomic Charges

     Atom                 Charge (a.u.)
  ----------------------------------------
      1 C                     0.039733
      2 C                    -0.484744
      3 C                    -0.213075
      4 C                    -1.210315
      5 C                     1.637832
      6 C                    -0.709891
      7 N                    -0.339980
      8 C                    -0.024297
      9 C                    -0.236218
     10 H                     0.405666
     11 H                     0.194186
     12 H                     0.196953
     13 H                     0.183140
     14 H                     0.184835
     15 H                     0.184983
     16 H                     0.191193
  ----------------------------------------
  Sum of atomic charges =     0.000000

 -----------------------------------------------------------------
                    Cartesian Multipole Moments
 -----------------------------------------------------------------
    Charge (ESU x 10^10)
                -0.0000
    Dipole Moment (Debye)
         X      -1.6620      Y       1.8711      Z       0.0420
       Tot       2.5030
    Quadrupole Moments (Debye-Ang)
        XX     -45.4736     XY      -4.3033     YY     -44.4104
        XZ      -0.3384     YZ       0.1677     ZZ     -59.0960
    Octopole Moments (Debye-Ang^2)
       XXX     -15.4701    XXY      10.3118    XYY      -9.2717
       YYY      12.5836    XXZ       0.5898    XYZ      -0.4726
       YYZ       0.0263    XZZ      -2.1358    YZZ       2.6130
       ZZZ       0.1293
    Hexadecapole Moments (Debye-Ang^3)
      XXXX    -832.8316   XXXY     -24.5568   XXYY    -198.6859
      XYYY     -18.4576   YYYY    -379.6332   XXXZ      -4.2096
      XXYZ       1.1189   XYYZ      -1.7323   YYYZ       1.2287
      XXZZ    -193.0265   XYZZ      -2.6106   YYZZ     -96.5319
      XZZZ      -2.2873   YZZZ       0.6952   ZZZZ     -74.6748
 -----------------------------------------------------------------
 Calculating analytic gradient of the CIS energy
 CIS relaxed dipole moment
            1
    1  -1.9643823
    2   0.5073125
    3   0.0759689
	Magnitude:	 2.030 au	 5.160 Debye
 CIS 2 State Energy is -363.2071923025
 Gradient of the state energy (including CIS Excitation Energy)
            1           2           3           4           5           6
    1  -0.0121371  -0.0052974  -0.0171487  -0.0042434  -0.0192857   0.0089108
    2  -0.0171867   0.0095522  -0.0327334   0.0468723  -0.0343878   0.0247024
    3   0.0001076   0.0011898   0.0002308  -0.0022680   0.0032149   0.0012527
            7           8           9          10          11          12
    1   0.0170455   0.0175557   0.0370870  -0.0169528   0.0008314  -0.0041292
    2  -0.0470351  -0.0025311   0.0104302   0.0406283  -0.0011260   0.0044526
    3  -0.0048944  -0.0023186   0.0009430   0.0038819   0.0000625   0.0008344
           13          14          15          16
    1  -0.0006935  -0.0018964  -0.0005098   0.0008637
    2  -0.0004639  -0.0010045  -0.0002609   0.0000913
    3  -0.0002495  -0.0005275  -0.0006119  -0.0008477
 Gradient time:  CPU 21.66 s  wall 5.45 s
 Geometry Optimization Parameters
   NAtoms,    NIC,     NZ,  NCons,   NDum,   NFix, NCnnct, MaxDiis
       16     116       0       0       0       0       0       0

 Cartesian Hessian Update
 Hessian updated using BFGS update


** GEOMETRY OPTIMIZATION IN DELOCALIZED INTERNAL COORDINATES **
   Searching for a Minimum

   Optimization Cycle:  48

                       Coordinates (Angstroms)
     ATOM                X               Y               Z
      1  C         2.1871377454   -0.7026753120    0.0139888733
      2  C         2.1419409548    0.7023364547    0.0102417366
      3  C         0.9125881492    1.4189240299   -0.0026765671
      4  C        -0.2545863782    0.6657002785   -0.0164062001
      5  C        -0.2396028470   -0.7686696926    0.0018343963
      6  C         0.9997162785   -1.4583680151    0.0161240843
      7  N        -1.5906407378    1.0711807432   -0.0158703745
      8  C        -1.5951251389   -1.1852213049   -0.0169081252
      9  C        -2.3895612677    0.0120711760   -0.0014987892
     10  H        -1.9518807816    2.0930046656    0.0404042944
     11  H        -1.9866582716   -2.2042182923   -0.0197336338
     12  H        -3.4775367849    0.1522082527    0.0241706667
     13  H         3.0780066724    1.2695699496    0.0040599004
     14  H         0.8838613520    2.5112891006   -0.0392842663
     15  H         3.1553815819   -1.2122300487    0.0074464815
     16  H         1.0300544249   -2.5523494923   -0.0053664963
   Point Group: c1    Number of degrees of freedom:    42


   Energy is   -363.207192302

 Hessian updated using BFGS update

 42 Hessian modes will be used to form the next step
  Hessian Eigenvalues:
     0.020088    0.020560    0.021240    0.021774    0.022650    0.023196
     0.023240    0.023560    0.023830    0.024106    0.025113    0.031602
     0.061609    0.159302    0.159980    0.160007    0.160058    0.160125
     0.161414    0.162746    0.219789    0.232091    0.246341    0.246840
     0.263163    0.356912    0.357630    0.357904    0.358327    0.364346
     0.366168    0.379305    0.392281    0.428685    0.439734    0.449633
     0.465132    0.470997    0.487213    0.505130    0.628739    1.263705

 Minimum search - taking simple RFO step
 Searching for Lamda that Minimizes Along All modes
 Value Taken    Lamda =  -0.00693213
 Step Taken.  Stepsize is  0.163227

                             Maximum     Tolerance    Cnvgd?
         Gradient           0.036737      0.000300      NO
         Displacement       0.079604      0.001200      NO
         Energy change      0.004518      0.000001      NO


 New Cartesian Coordinates Obtained by Inverse Iteration

 Displacement from previous Coordinates is:  0.150841
 ----------------------------------------------------------------
             Standard Nuclear Orientation (Angstroms)
    I     Atom           X                Y                Z
 ----------------------------------------------------------------
    1      C       2.1890561601    -0.6983064374     0.0019598374
    2      C       2.1473347132     0.7050686631     0.0018694165
    3      C       0.9208061968     1.4324060579     0.0029962900
    4      C      -0.2481995382     0.6584391376    -0.0027123246
    5      C      -0.2353458531    -0.7614820732     0.0001368273
    6      C       0.9995002936    -1.4656597987     0.0032987132
    7      N      -1.5963214589     1.0671633709    -0.0026440699
    8      C      -1.6057242558    -1.1795511398    -0.0016229847
    9      C      -2.4070315943     0.0103482899    -0.0002427481
   10      H      -1.9377681578     2.0738389211     0.0074561953
   11      H      -1.9940589179    -2.1995636263    -0.0026755462
   12      H      -3.4936394454     0.1426053559     0.0023359954
   13      H       3.0871937330     1.2671316404     0.0000719000
   14      H       0.8918770977     2.5249635702    -0.0083245382
   15      H       3.1589828400    -1.2057044484     0.0007855959
   16      H       1.0264331383    -2.5591449904    -0.0021625782
 ----------------------------------------------------------------
 Molecular Point Group                 C1    NOp =  1
 Largest Abelian Subgroup              C1    NOp =  1
 Nuclear Repulsion Energy =         396.82678263 hartrees
 There are       31 alpha and       31 beta electrons
 Applying Cartesian multipole field
    Component          Value
    ---------          -----
     (2,0,0)        1.00000E-11
     (0,2,0)        2.00000E-11
     (0,0,2)       -3.00000E-11
 Nucleus-field energy     =     0.0000000120 hartrees
 Requested basis set is 6-31+G(d)
 There are 59 shells and 185 basis functions
 A cutoff of  1.0D-12 yielded   1656 shell pairs
 There are     17099 function pairs
 Smallest overlap matrix eigenvalue = 1.37E-06
 Guess MOs from SCF MO coefficient file

 -----------------------------------------------------------------------
  General SCF calculation program by
  Eric Jon Sundstrom, Paul Horn, Yuezhi Mao, Dmitri Zuev, Alec White,
  David Stuck, Shaama M.S., Shane Yost, Joonho Lee, David Small,
  Daniel Levine, Susi Lehtola, Hugh Burton, Evgeny Epifanovsky,
  Bang C. Huynh
 -----------------------------------------------------------------------
 Exchange:  PBE      Correlation:  PBE
 Using SG-1 standard quadrature grid
 using 4 threads for integral computing
 -------------------------------------------------------
 OpenMP Integral computing Module                
 Release: version 1.0, May 2013, Q-Chem Inc. Pittsburgh 
 -------------------------------------------------------
 A restricted SCF calculation will be
 performed using DIIS
 SCF converges when DIIS error is below 1.0e-08
 ---------------------------------------
  Cycle       Energy         DIIS error
 ---------------------------------------
    1    -363.3626771689      6.26e-04  
    2    -363.3647889484      1.53e-04  
    3    -363.3644079361      3.31e-04  
    4    -363.3648778316      5.20e-05  
    5    -363.3648864146      2.92e-05  
    6    -363.3648905671      5.56e-06  
    7    -363.3648907110      1.53e-06  
    8    -363.3648907211      5.63e-07  
    9    -363.3648907226      1.59e-07  
   10    -363.3648907227      7.23e-08  
   11    -363.3648907227      1.95e-08  
   12    -363.3648907227      5.81e-09  Convergence criterion met
 ---------------------------------------
 SCF time:   CPU 21.99s  wall 6.00s 
 SCF   energy in the final basis set =     -363.3648907227
 Total energy in the final basis set =     -363.3648907227
 
 Direct TDDFT/TDA calculation will be performed
 Exchange:  PBE      Correlation:  PBE
 Using SG-1 standard quadrature grid
 Singlet excitation energies requested
 CIS energy converged when residual is below 10e- 6
 ---------------------------------------------------
 Iter    Rts Conv    Rts Left    Ttl Dev     Max Dev
 ---------------------------------------------------
   1         0           3      0.003953    0.001956
   2         0           3      0.003214    0.001636
   3         0           3      0.001986    0.001247
   4         0           3      0.001254    0.000862
   5         0           3      0.000327    0.000197
   6         0           3      0.000068    0.000045
   7         1           2      0.000013    0.000009
   8         2           1      0.000002    0.000002
   9         3           0      0.000001    0.000001    Roots Converged
 ---------------------------------------------------
 
 ---------------------------------------------------
         TDDFT/TDA Excitation Energies              
 ---------------------------------------------------

 Excited state   1: excitation energy (eV) =    4.1131
 Total energy for state  1:                  -363.21373612 au
    Multiplicity: Singlet
    Trans. Mom.: -0.1469 X   0.1315 Y   0.0938 Z
    Strength   :     0.0048026466
    D(   31) --> V(    1) amplitude =  0.2134
    D(   31) --> V(    2) amplitude =  0.9713

 Excited state   2: excitation energy (eV) =    4.1320
 Total energy for state  2:                  -363.21304212 au
    Multiplicity: Singlet
    Trans. Mom.: -0.6232 X   0.5417 Y  -0.0229 Z
    Strength   :     0.0690838835
    D(   29) --> V(    1) amplitude = -0.2531
    D(   31) --> V(    1) amplitude =  0.8650
    D(   31) --> V(    2) amplitude = -0.2358
    D(   31) --> V(    3) amplitude =  0.2151

 Excited state   3: excitation energy (eV) =    4.5986
 Total energy for state  3:                  -363.19589540 au
    Multiplicity: Singlet
    Trans. Mom.: -0.0955 X   0.1702 Y   0.0006 Z
    Strength   :     0.0042910115
    D(   30) --> V(    1) amplitude =  0.7008
    D(   31) --> V(    3) amplitude = -0.6770
 
 ---------------------------------------------------
 Calculating Relaxed Density
 ---------------------------------------------------
 Iter    Rts Conv    Rts Left    Ttl Dev     Max Dev
 ---------------------------------------------------
   1         0           3      0.002509    0.001227
   2         0           3      0.000892    0.000484
   3         0           3      0.000226    0.000107
   4         0           3      0.000075    0.000040
   5         0           3      0.000009    0.000005
   6         3           0      0.000000    0.000000    Roots Converged
 ---------------------------------------------------
  SETman timing summary (seconds)
  CPU time                95.77s
  System time              0.00s
  Wall time               24.11s
 
 --------------------------------------------------------------
 
                    Orbital Energies (a.u.)
 --------------------------------------------------------------
 
 Alpha MOs
 -- Occupied --
-14.0667  -9.9399  -9.9373  -9.9117  -9.9048  -9.9045  -9.9031  -9.9004
 -9.8956  -0.9060  -0.7619  -0.7025  -0.6703  -0.6403  -0.5672  -0.5356
 -0.5212  -0.4866  -0.4318  -0.4215  -0.3910  -0.3845  -0.3786  -0.3574
 -0.3454  -0.3099  -0.2984  -0.2979  -0.2436  -0.2070  -0.1741
 -- Virtual --
 -0.0494  -0.0233  -0.0107   0.0028   0.0110   0.0151   0.0247   0.0269
  0.0451   0.0479   0.0504   0.0550   0.0713   0.0750   0.0933   0.0954
  0.0965   0.1110   0.1183   0.1190   0.1359   0.1368   0.1457   0.1481
  0.1540   0.1566   0.1655   0.1663   0.1773   0.1790   0.1836   0.1846
  0.1977   0.2007   0.2113   0.2179   0.2184   0.2226   0.2322   0.2393
  0.2521   0.2540   0.2599   0.2650   0.2697   0.2765   0.2933   0.3071
  0.3210   0.3238   0.3331   0.3546   0.3758   0.4063   0.4626   0.5234
  0.5550   0.6307   0.6349   0.6542   0.6728   0.6791   0.6803   0.6855
  0.6911   0.7073   0.7095   0.7295   0.7405   0.7445   0.7645   0.8048
  0.8323   0.8424   0.8488   0.8832   0.8922   0.9025   0.9045   0.9300
  0.9464   0.9691   0.9852   0.9964   1.0461   1.0623   1.0692   1.1222
  1.1271   1.1545   1.1760   1.1775   1.1927   1.2547   1.2664   1.2851
  1.3081   1.3465   1.3495   1.3821   1.3994   1.4057   1.4248   1.4325
  1.4847   1.5174   1.5767   1.6992   1.7532   1.7935   1.8206   1.8282
  1.8492   1.8966   1.9031   1.9286   1.9609   1.9896   2.0485   2.0781
  2.0847   2.0849   2.1528   2.1616   2.1881   2.2046   2.2263   2.2862
  2.3164   2.3689   2.4333   2.4584   2.5456   2.5563   2.5650   2.5898
  2.6395   2.7039   2.7417   2.7527   2.8512   2.8907   2.9680   3.1284
  3.3036   4.0459   4.1507   4.1935   4.2199   4.2571   4.3005   4.3800
  4.4243   4.6762
 --------------------------------------------------------------
 
          Ground-State Mulliken Net Atomic Charges

     Atom                 Charge (a.u.)
  ----------------------------------------
      1 C                     0.024229
      2 C                    -0.455378
      3 C                    -0.261999
      4 C                    -1.242039
      5 C                     1.703421
      6 C                    -0.676755
      7 N                    -0.359865
      8 C                    -0.052289
      9 C                    -0.229849
     10 H                     0.409220
     11 H                     0.193572
     12 H                     0.198911
     13 H                     0.183698
     14 H                     0.187078
     15 H                     0.184998
     16 H                     0.193047
  ----------------------------------------
  Sum of atomic charges =     0.000000

 -----------------------------------------------------------------
                    Cartesian Multipole Moments
 -----------------------------------------------------------------
    Charge (ESU x 10^10)
                 0.0000
    Dipole Moment (Debye)
         X      -1.5718      Y       1.8354      Z       0.0001
       Tot       2.4164
    Quadrupole Moments (Debye-Ang)
        XX     -45.3968     XY      -4.1465     YY     -44.4322
        XZ      -0.0596     YZ       0.0235     ZZ     -59.1685
    Octopole Moments (Debye-Ang^2)
       XXX     -15.7262    XXY      10.0644    XYY      -8.5519
       YYY      12.2469    XXZ       0.0391    XYZ      -0.0948
       YYZ      -0.0529    XZZ      -2.0268    YZZ       2.5633
       ZZZ      -0.0628
    Hexadecapole Moments (Debye-Ang^3)
      XXXX    -835.2217   XXXY     -24.4536   XXYY    -200.8609
      XYYY     -18.6579   YYYY    -379.2066   XXXZ      -0.6831
      XXYZ       0.1623   XYYZ      -0.3504   YYYZ       0.1196
      XXZZ    -194.2631   XYZZ      -3.0372   YYZZ     -96.7200
      XZZZ      -0.4047   YZZZ       0.0564   ZZZZ     -74.8279
 -----------------------------------------------------------------
 Calculating analytic gradient of the CIS energy
 CIS relaxed dipole moment
            1
    1  -1.8719867
    2   0.3241017
    3   0.1685065
	Magnitude:	 1.907 au	 4.848 Debye
