 Entering Gaussian System, Link 0=/opt/gaussian/16.C.01/g16/g16
 Initial command:
 /opt/gaussian/16.C.01/g16/l1.exe "/scratch/scaparas/33842233/Gau-14388.inp" -scrdir="/scratch/scaparas/33842233/"
 Entering Link 1 = /opt/gaussian/16.C.01/g16/l1.exe PID=     14389.
  
 Copyright (c) 1988-2019, Gaussian, Inc.  All Rights Reserved.
  
 This is part of the Gaussian(R) 16 program.  It is based on
 the Gaussian(R) 09 system (copyright 2009, Gaussian, Inc.),
 the Gaussian(R) 03 system (copyright 2003, Gaussian, Inc.),
 the Gaussian(R) 98 system (copyright 1998, Gaussian, Inc.),
 the Gaussian(R) 94 system (copyright 1995, Gaussian, Inc.),
 the Gaussian 92(TM) system (copyright 1992, Gaussian, Inc.),
 the Gaussian 90(TM) system (copyright 1990, Gaussian, Inc.),
 the Gaussian 88(TM) system (copyright 1988, Gaussian, Inc.),
 the Gaussian 86(TM) system (copyright 1986, Carnegie Mellon
 University), and the Gaussian 82(TM) system (copyright 1983,
 Carnegie Mellon University). Gaussian is a federally registered
 trademark of Gaussian, Inc.
  
 This software contains proprietary and confidential information,
 including trade secrets, belonging to Gaussian, Inc.
  
 This software is provided under written license and may be
 used, copied, transmitted, or stored only in accord with that
 written license.
  
 The following legend is applicable only to US Government
 contracts under FAR:
  
                    RESTRICTED RIGHTS LEGEND
  
 Use, reproduction and disclosure by the US Government is
 subject to restrictions as set forth in subparagraphs (a)
 and (c) of the Commercial Computer Software - Restricted
 Rights clause in FAR 52.227-19.
  
 Gaussian, Inc.
 340 Quinnipiac St., Bldg. 40, Wallingford CT 06492
  
  
 ---------------------------------------------------------------
 Warning -- This program may not be used in any manner that
 competes with the business of Gaussian, Inc. or will provide
 assistance to any competitor of Gaussian, Inc.  The licensee
 of this program is prohibited from giving any competitor of
 Gaussian, Inc. access to this program.  By using this program,
 the user acknowledges that Gaussian, Inc. is engaged in the
 business of creating and licensing software in the field of
 computational chemistry and represents and warrants to the
 licensee that it is not a competitor of Gaussian, Inc. and that
 it will not use this program in any manner prohibited above.
 ---------------------------------------------------------------
  

 Cite this work as:
 Gaussian 16, Revision C.01,
 M. J. Frisch, G. W. Trucks, H. B. Schlegel, G. E. Scuseria, 
 M. A. Robb, J. R. Cheeseman, G. Scalmani, V. Barone, 
 G. A. Petersson, H. Nakatsuji, X. Li, M. Caricato, A. V. Marenich, 
 J. Bloino, B. G. Janesko, R. Gomperts, B. Mennucci, H. P. Hratchian, 
 J. V. Ortiz, A. F. Izmaylov, J. L. Sonnenberg, D. Williams-Young, 
 F. Ding, F. Lipparini, F. Egidi, J. Goings, B. Peng, A. Petrone, 
 T. Henderson, D. Ranasinghe, V. G. Zakrzewski, J. Gao, N. Rega, 
 G. Zheng, W. Liang, M. Hada, M. Ehara, K. Toyota, R. Fukuda, 
 J. Hasegawa, M. Ishida, T. Nakajima, Y. Honda, O. Kitao, H. Nakai, 
 T. Vreven, K. Throssell, J. A. Montgomery, Jr., J. E. Peralta, 
 F. Ogliaro, M. J. Bearpark, J. J. Heyd, E. N. Brothers, K. N. Kudin, 
 V. N. Staroverov, T. A. Keith, R. Kobayashi, J. Normand, 
 K. Raghavachari, A. P. Rendell, J. C. Burant, S. S. Iyengar, 
 J. Tomasi, M. Cossi, J. M. Millam, M. Klene, C. Adamo, R. Cammi, 
 J. W. Ochterski, R. L. Martin, K. Morokuma, O. Farkas, 
 J. B. Foresman, and D. J. Fox, Gaussian, Inc., Wallingford CT, 2019.
 
 ******************************************
 Gaussian 16:  ES64L-G16RevC.01  3-Jul-2019
                 2-Jun-2020 
 ******************************************
 %Chk=IndoleJune5.chk
 ------------------------------
 #n B3LYP/6-31G(d) Opt pop=full
 ------------------------------
 1/18=20,19=15,26=3,38=1/1,3;
 2/9=110,12=2,17=6,18=5,40=1/2;
 3/5=1,6=6,7=1,11=2,25=1,30=1,71=1,74=-5/1,2,3;
 4//1;
 5/5=2,38=5/2;
 6/7=3,28=1/1;
 7//1,2,3,16;
 1/18=20,19=15,26=3/3(2);
 2/9=110/2;
 99//99;
 2/9=110/2;
 3/5=1,6=6,7=1,11=2,25=1,30=1,71=1,74=-5/1,2,3;
 4/5=5,16=3,69=1/1;
 5/5=2,38=5/2;
 7//1,2,3,16;
 1/18=20,19=15,26=3/3(-5);
 2/9=110/2;
 6/7=3,19=2,28=1/1;
 99/9=1/99;
 -----------
 IndoleJune5
 -----------
 Symbolic Z-matrix:
 Charge =  0 Multiplicity = 1
 C                     2.16837   0.80144  -0.79471 
 C                     2.16361  -0.72131   0. 
 C                     0.96023  -1.4357    0. 
 C                    -0.24088  -0.68325   0. 
 C                    -0.2526    0.75559   0. 
 C                     0.95155   1.53123   0.00034 
 N                    -1.59211  -1.10241   0. 
 C                    -1.64553   1.17738   0. 
 C                    -2.42776   0.04275   0. 
 H                    -1.92141  -2.0902    0. 
 H                    -2.01114   2.20675   0. 
 H                    -3.51722  -0.0757    0. 
 H                     3.05767  -1.23674   0. 
 H                     0.94789  -2.46762   0. 
 H                     3.6631    1.3135   -0.03779 
 H                     0.79423   2.55115  -0.00531 
 
 Add virtual bond connecting atoms H15        and C1         Dist= 3.31D+00.

 GradGradGradGradGradGradGradGradGradGradGradGradGradGradGradGradGradGrad
 Berny optimization.
 Initialization pass.
                           ----------------------------
                           !    Initial Parameters    !
                           ! (Angstroms and Degrees)  !
 --------------------------                            --------------------------
 ! Name  Definition              Value          Derivative Info.                !
 --------------------------------------------------------------------------------
 ! R1    R(1,2)                  1.7177         estimate D2E/DX2                !
 ! R2    R(1,6)                  1.6265         estimate D2E/DX2                !
 ! R3    R(1,15)                 1.752          estimate D2E/DX2                !
 ! R4    R(2,3)                  1.3995         estimate D2E/DX2                !
 ! R5    R(2,13)                 1.032          estimate D2E/DX2                !
 ! R6    R(3,4)                  1.4173         estimate D2E/DX2                !
 ! R7    R(3,14)                 1.032          estimate D2E/DX2                !
 ! R8    R(4,5)                  1.4389         estimate D2E/DX2                !
 ! R9    R(4,7)                  1.4148         estimate D2E/DX2                !
 ! R10   R(5,6)                  1.4323         estimate D2E/DX2                !
 ! R11   R(5,8)                  1.4554         estimate D2E/DX2                !
 ! R12   R(6,16)                 1.032          estimate D2E/DX2                !
 ! R13   R(7,9)                  1.4176         estimate D2E/DX2                !
 ! R14   R(7,10)                 1.0412         estimate D2E/DX2                !
 ! R15   R(8,9)                  1.3781         estimate D2E/DX2                !
 ! R16   R(8,11)                 1.0924         estimate D2E/DX2                !
 ! R17   R(9,12)                 1.0959         estimate D2E/DX2                !
 ! A1    A(2,1,6)               99.7615         estimate D2E/DX2                !
 ! A2    A(2,1,15)              93.5307         estimate D2E/DX2                !
 ! A3    A(6,1,15)             107.2151         estimate D2E/DX2                !
 ! A4    A(1,2,3)              117.0607         estimate D2E/DX2                !
 ! A5    A(1,2,13)             116.1278         estimate D2E/DX2                !
 ! A6    A(3,2,13)             119.3407         estimate D2E/DX2                !
 ! A7    A(2,3,4)              117.2388         estimate D2E/DX2                !
 ! A8    A(2,3,14)             121.3807         estimate D2E/DX2                !
 ! A9    A(4,3,14)             121.3805         estimate D2E/DX2                !
 ! A10   A(3,4,5)              122.5323         estimate D2E/DX2                !
 ! A11   A(3,4,7)              130.7002         estimate D2E/DX2                !
 ! A12   A(5,4,7)              106.7675         estimate D2E/DX2                !
 ! A13   A(4,5,6)              122.3205         estimate D2E/DX2                !
 ! A14   A(4,5,8)              107.3134         estimate D2E/DX2                !
 ! A15   A(6,5,8)              130.3661         estimate D2E/DX2                !
 ! A16   A(1,6,5)              112.6971         estimate D2E/DX2                !
 ! A17   A(1,6,16)             123.6984         estimate D2E/DX2                !
 ! A18   A(5,6,16)             114.0181         estimate D2E/DX2                !
 ! A19   A(4,7,9)              108.8849         estimate D2E/DX2                !
 ! A20   A(4,7,10)             125.6711         estimate D2E/DX2                !
 ! A21   A(9,7,10)             125.444          estimate D2E/DX2                !
 ! A22   A(5,8,9)              107.7362         estimate D2E/DX2                !
 ! A23   A(5,8,11)             126.4007         estimate D2E/DX2                !
 ! A24   A(9,8,11)             125.8631         estimate D2E/DX2                !
 ! A25   A(7,9,8)              109.298          estimate D2E/DX2                !
 ! A26   A(7,9,12)             119.9141         estimate D2E/DX2                !
 ! A27   A(8,9,12)             130.788          estimate D2E/DX2                !
 ! D1    D(6,1,2,3)             55.9498         estimate D2E/DX2                !
 ! D2    D(6,1,2,13)          -154.345          estimate D2E/DX2                !
 ! D3    D(15,1,2,3)           164.0991         estimate D2E/DX2                !
 ! D4    D(15,1,2,13)          -46.1957         estimate D2E/DX2                !
 ! D5    D(2,1,6,5)            -52.9572         estimate D2E/DX2                !
 ! D6    D(2,1,6,16)           163.023          estimate D2E/DX2                !
 ! D7    D(15,1,6,5)          -149.7757         estimate D2E/DX2                !
 ! D8    D(15,1,6,16)           66.2046         estimate D2E/DX2                !
 ! D9    D(1,2,3,4)            -31.3019         estimate D2E/DX2                !
 ! D10   D(1,2,3,14)           148.6981         estimate D2E/DX2                !
 ! D11   D(13,2,3,4)           180.0            estimate D2E/DX2                !
 ! D12   D(13,2,3,14)            0.0            estimate D2E/DX2                !
 ! D13   D(2,3,4,5)              0.0            estimate D2E/DX2                !
 ! D14   D(2,3,4,7)            180.0            estimate D2E/DX2                !
 ! D15   D(14,3,4,5)           180.0            estimate D2E/DX2                !
 ! D16   D(14,3,4,7)             0.0            estimate D2E/DX2                !
 ! D17   D(3,4,5,6)             -0.0161         estimate D2E/DX2                !
 ! D18   D(3,4,5,8)            180.0            estimate D2E/DX2                !
 ! D19   D(7,4,5,6)            179.9839         estimate D2E/DX2                !
 ! D20   D(7,4,5,8)              0.0            estimate D2E/DX2                !
 ! D21   D(3,4,7,9)            180.0            estimate D2E/DX2                !
 ! D22   D(3,4,7,10)             0.0            estimate D2E/DX2                !
 ! D23   D(5,4,7,9)              0.0            estimate D2E/DX2                !
 ! D24   D(5,4,7,10)           180.0            estimate D2E/DX2                !
 ! D25   D(4,5,6,1)             32.0112         estimate D2E/DX2                !
 ! D26   D(4,5,6,16)           179.6591         estimate D2E/DX2                !
 ! D27   D(8,5,6,1)           -148.009          estimate D2E/DX2                !
 ! D28   D(8,5,6,16)            -0.361          estimate D2E/DX2                !
 ! D29   D(4,5,8,9)              0.0            estimate D2E/DX2                !
 ! D30   D(4,5,8,11)           180.0            estimate D2E/DX2                !
 ! D31   D(6,5,8,9)           -179.9821         estimate D2E/DX2                !
 ! D32   D(6,5,8,11)             0.0179         estimate D2E/DX2                !
 ! D33   D(4,7,9,8)              0.0            estimate D2E/DX2                !
 ! D34   D(4,7,9,12)           180.0            estimate D2E/DX2                !
 ! D35   D(10,7,9,8)           180.0            estimate D2E/DX2                !
 ! D36   D(10,7,9,12)            0.0            estimate D2E/DX2                !
 ! D37   D(5,8,9,7)              0.0            estimate D2E/DX2                !
 ! D38   D(5,8,9,12)           180.0            estimate D2E/DX2                !
 ! D39   D(11,8,9,7)           180.0            estimate D2E/DX2                !
 ! D40   D(11,8,9,12)            0.0            estimate D2E/DX2                !
 --------------------------------------------------------------------------------
 Trust Radius=3.00D-01 FncErr=1.00D-07 GrdErr=1.00D-06 EigMax=2.50D+02 EigMin=1.00D-04
 Number of steps in this run=     94 maximum allowed number of steps=    100.
 GradGradGradGradGradGradGradGradGradGradGradGradGradGradGradGradGradGrad

                          Input orientation:                          
 ---------------------------------------------------------------------
 Center     Atomic      Atomic             Coordinates (Angstroms)
 Number     Number       Type             X           Y           Z
 ---------------------------------------------------------------------
      1          6           0        2.168370    0.801440   -0.794710
      2          6           0        2.163610   -0.721310    0.000000
      3          6           0        0.960230   -1.435700    0.000000
      4          6           0       -0.240880   -0.683250    0.000000
      5          6           0       -0.252600    0.755590    0.000000
      6          6           0        0.951550    1.531230    0.000340
      7          7           0       -1.592110   -1.102410    0.000000
      8          6           0       -1.645530    1.177380    0.000000
      9          6           0       -2.427760    0.042750    0.000000
     10          1           0       -1.921410   -2.090200    0.000000
     11          1           0       -2.011140    2.206750    0.000000
     12          1           0       -3.517220   -0.075700    0.000000
     13          1           0        3.057670   -1.236740    0.000000
     14          1           0        0.947890   -2.467620    0.000000
     15          1           0        3.663100    1.313500   -0.037790
     16          1           0        0.794230    2.551150   -0.005310
 ---------------------------------------------------------------------
                    Distance matrix (angstroms):
                    1          2          3          4          5
     1  C    0.000000
     2  C    1.717660   0.000000
     3  C    2.663825   1.399456   0.000000
     4  C    2.939448   2.404791   1.417338   0.000000
     5  C    2.548482   2.831838   2.504538   1.438888   0.000000
     6  C    1.626453   2.557934   2.966943   2.515117   1.432339
     7  N    4.289221   3.775006   2.574009   1.414750   2.290513
     8  C    3.913915   4.256122   3.690281   2.331306   1.455390
     9  C    4.725631   4.654510   3.696524   2.304240   2.288987
    10  H    5.071434   4.308277   2.955033   2.191732   3.299007
    11  H    4.480487   5.099223   4.700689   3.389088   2.279984
    12  H    5.807484   5.717398   4.679440   3.332195   3.368796
    13  H    2.361482   1.031994   2.106855   3.344665   3.863582
    14  H    3.578811   2.127810   1.031994   2.144097   3.439514
    15  H    1.751956   2.527914   3.855520   4.385145   3.955426
    16  H    2.360699   3.547425   3.990308   3.396001   2.078441
                    6          7          8          9         10
     6  C    0.000000
     7  N    3.661457   0.000000
     8  C    2.621075   2.280416   0.000000
     9  C    3.692602   1.417640   1.378140   0.000000
    10  H    4.622624   1.041234   3.279206   2.192229   0.000000
    11  H    3.038727   3.335585   1.092370   2.203740   4.297887
    12  H    4.748908   2.181784   2.252428   1.095880   2.569984
    13  H    3.478132   4.651720   5.286593   5.632676   5.051696
    14  H    3.998852   2.883643   4.473461   4.206777   2.894016
    15  H    2.720545   5.784054   5.310509   6.222123   6.540134
    16  H    1.031997   4.363845   2.799947   4.083297   5.377440
                   11         12         13         14         15
    11  H    0.000000
    12  H    2.734567   0.000000
    13  H    6.127843   6.676615   0.000000
    14  H    5.532232   5.065421   2.442588   0.000000
    15  H    5.744243   7.313570   2.621392   4.655176   0.000000
    16  H    2.826436   5.048660   4.412630   5.021125   3.124620
                   16
    16  H    0.000000
 Stoichiometry    C8H7N
 Framework group  C1[X(C8H7N)]
 Deg. of freedom    42
 Full point group                 C1      NOp   1
 Largest Abelian subgroup         C1      NOp   1
 Largest concise Abelian subgroup C1      NOp   1
                         Standard orientation:                         
 ---------------------------------------------------------------------
 Center     Atomic      Atomic             Coordinates (Angstroms)
 Number     Number       Type             X           Y           Z
 ---------------------------------------------------------------------
      1          6           0       -2.224465    0.758782    0.553457
      2          6           0       -2.139726   -0.797604   -0.168232
      3          6           0       -0.923165   -1.481638   -0.065494
      4          6           0        0.259186   -0.700810   -0.030857
      5          6           0        0.239549    0.736429   -0.096849
      6          6           0       -0.979094    1.481598   -0.202809
      7          7           0        1.616876   -1.086386    0.066757
      8          6           0        1.620543    1.191720   -0.035790
      9          6           0        2.425937    0.077702    0.062050
     10          1           0        1.967037   -2.064830    0.131583
     11          1           0        1.963014    2.228678   -0.062331
     12          1           0        3.515825   -0.013958    0.130581
     13          1           0       -3.020795   -1.334216   -0.196085
     14          1           0       -0.888377   -2.511903   -0.016965
     15          1           0       -3.682794    1.199578   -0.311602
     16          1           0       -0.844629    2.504281   -0.235330
 ---------------------------------------------------------------------
 Rotational constants (GHZ):           3.5214507           1.5505743           1.1000175
 Standard basis: 6-31G(d) (6D, 7F)
 There are   149 symmetry adapted cartesian basis functions of A   symmetry.
 There are   149 symmetry adapted basis functions of A   symmetry.
   149 basis functions,   280 primitive gaussians,   149 cartesian basis functions
    31 alpha electrons       31 beta electrons
       nuclear repulsion energy       386.7806255399 Hartrees.
 NAtoms=   16 NActive=   16 NUniq=   16 SFac= 1.00D+00 NAtFMM=   60 NAOKFM=F Big=F
 Integral buffers will be    131072 words long.
 Raffenetti 2 integral format.
 Two-electron integral symmetry is turned on.
 One-electron integrals computed using PRISM.
 NBasis=   149 RedAO= T EigKep=  1.07D-03  NBF=   149
 NBsUse=   149 1.00D-06 EigRej= -1.00D+00 NBFU=   149
 ExpMin= 1.61D-01 ExpMax= 4.17D+03 ExpMxC= 6.27D+02 IAcc=3 IRadAn=         5 AccDes= 0.00D+00
 Harris functional with IExCor=  402 and IRadAn=       5 diagonalized for initial guess.
 HarFok:  IExCor=  402 AccDes= 0.00D+00 IRadAn=         5 IDoV= 1 UseB2=F ITyADJ=14
 ICtDFT=  3500011 ScaDFX=  1.000000  1.000000  1.000000  1.000000
 FoFCou: FMM=F IPFlag=           0 FMFlag=      100000 FMFlg1=           0
         NFxFlg=           0 DoJE=T BraDBF=F KetDBF=T FulRan=T
         wScrn=  0.000000 ICntrl=       500 IOpCl=  0 I1Cent=   200000004 NGrid=           0
         NMat0=    1 NMatS0=      1 NMatT0=    0 NMatD0=    1 NMtDS0=    0 NMtDT0=    0
 Petite list used in FoFCou.
 Keep R1 ints in memory in canonical form, NReq=64134723.
 Requested convergence on RMS density matrix=1.00D-08 within 128 cycles.
 Requested convergence on MAX density matrix=1.00D-06.
 Requested convergence on             energy=1.00D-06.
 No special actions if energy rises.
 Integral accuracy reduced to 1.0D-05 until final iterations.
 Initial convergence to 1.0D-05 achieved.  Increase integral accuracy.
 SCF Done:  E(RB3LYP) =  -363.579965724     A.U. after   16 cycles
            NFock= 16  Conv=0.51D-08     -V/T= 2.0123

 **********************************************************************

            Population analysis using the SCF Density.

 **********************************************************************

 Orbital symmetries:
       Occupied  (A) (A) (A) (A) (A) (A) (A) (A) (A) (A) (A) (A)
                 (A) (A) (A) (A) (A) (A) (A) (A) (A) (A) (A) (A)
                 (A) (A) (A) (A) (A) (A) (A)
       Virtual   (A) (A) (A) (A) (A) (A) (A) (A) (A) (A) (A) (A)
                 (A) (A) (A) (A) (A) (A) (A) (A) (A) (A) (A) (A)
                 (A) (A) (A) (A) (A) (A) (A) (A) (A) (A) (A) (A)
                 (A) (A) (A) (A) (A) (A) (A) (A) (A) (A) (A) (A)
                 (A) (A) (A) (A) (A) (A) (A) (A) (A) (A) (A) (A)
                 (A) (A) (A) (A) (A) (A) (A) (A) (A) (A) (A) (A)
                 (A) (A) (A) (A) (A) (A) (A) (A) (A) (A) (A) (A)
                 (A) (A) (A) (A) (A) (A) (A) (A) (A) (A) (A) (A)
                 (A) (A) (A) (A) (A) (A) (A) (A) (A) (A) (A) (A)
                 (A) (A) (A) (A) (A) (A) (A) (A) (A) (A)
 The electronic state is 1-A.
 Alpha  occ. eigenvalues --  -14.40070 -10.24437 -10.24179 -10.23694 -10.21564
 Alpha  occ. eigenvalues --  -10.20411 -10.20030 -10.19399 -10.19334  -0.97281
 Alpha  occ. eigenvalues --   -0.81773  -0.78407  -0.71866  -0.69969  -0.60857
 Alpha  occ. eigenvalues --   -0.59562  -0.56242  -0.54262  -0.48885  -0.45817
 Alpha  occ. eigenvalues --   -0.43568  -0.41839  -0.41805  -0.40266  -0.38571
 Alpha  occ. eigenvalues --   -0.32385  -0.31496  -0.27389  -0.26313  -0.22438
 Alpha  occ. eigenvalues --   -0.20713
 Alpha virt. eigenvalues --   -0.07202  -0.02311   0.01995   0.04869   0.05823
 Alpha virt. eigenvalues --    0.11693   0.12172   0.13151   0.14026   0.16433
 Alpha virt. eigenvalues --    0.17662   0.19082   0.20521   0.23364   0.24700
 Alpha virt. eigenvalues --    0.29540   0.32130   0.34170   0.38363   0.41844
 Alpha virt. eigenvalues --    0.44782   0.50958   0.52232   0.52538   0.54373
 Alpha virt. eigenvalues --    0.55700   0.56482   0.57277   0.57715   0.59035
 Alpha virt. eigenvalues --    0.59635   0.60564   0.61886   0.63313   0.65398
 Alpha virt. eigenvalues --    0.66240   0.69205   0.74587   0.77141   0.78910
 Alpha virt. eigenvalues --    0.79531   0.80693   0.81606   0.82354   0.84733
 Alpha virt. eigenvalues --    0.87036   0.89080   0.91420   0.92349   0.95932
 Alpha virt. eigenvalues --    0.97993   1.00680   1.01638   1.04599   1.08408
 Alpha virt. eigenvalues --    1.13685   1.17641   1.20326   1.28507   1.30816
 Alpha virt. eigenvalues --    1.32545   1.33011   1.37224   1.41923   1.42990
 Alpha virt. eigenvalues --    1.44787   1.46530   1.47664   1.53127   1.60143
 Alpha virt. eigenvalues --    1.62909   1.67625   1.73805   1.75820   1.77972
 Alpha virt. eigenvalues --    1.81487   1.82139   1.86805   1.90994   1.92829
 Alpha virt. eigenvalues --    1.94969   1.98476   2.00529   2.04002   2.06654
 Alpha virt. eigenvalues --    2.10269   2.14474   2.16704   2.20676   2.21623
 Alpha virt. eigenvalues --    2.27072   2.31636   2.33503   2.34756   2.37121
 Alpha virt. eigenvalues --    2.46093   2.48148   2.49595   2.52133   2.59035
 Alpha virt. eigenvalues --    2.64405   2.66515   2.69708   2.73959   2.78927
 Alpha virt. eigenvalues --    2.85298   2.98996   3.11090   3.18972   3.95034
 Alpha virt. eigenvalues --    4.01272   4.09298   4.15246   4.17476   4.31003
 Alpha virt. eigenvalues --    4.33569   4.43010   4.63766
     Molecular Orbital Coefficients:
                           1         2         3         4         5
                           O         O         O         O         O
     Eigenvalues --   -14.40070 -10.24437 -10.24179 -10.23694 -10.21564
   1 1   C  1S         -0.00000  -0.00111   0.99327   0.00005  -0.00261
   2        2S          0.00000  -0.00016   0.04706  -0.00002  -0.00001
   3        2PX        -0.00000  -0.00003   0.00028  -0.00002  -0.00004
   4        2PY        -0.00000   0.00003  -0.00014  -0.00001  -0.00000
   5        2PZ         0.00000  -0.00000  -0.00121   0.00001  -0.00000
   6        3S          0.00001   0.00084  -0.01347   0.00011   0.00184
   7        3PX         0.00000   0.00026  -0.00148   0.00001   0.00121
   8        3PY        -0.00000  -0.00015   0.00099  -0.00007   0.00098
   9        3PZ        -0.00000  -0.00024   0.00335  -0.00004  -0.00002
  10        4XX        -0.00000  -0.00004  -0.00858  -0.00001  -0.00013
  11        4YY         0.00000  -0.00002  -0.00873   0.00000  -0.00019
  12        4ZZ        -0.00000  -0.00005  -0.00862  -0.00001  -0.00016
  13        4XY         0.00000   0.00002  -0.00002   0.00000  -0.00003
  14        4XZ        -0.00000  -0.00003   0.00007  -0.00000   0.00016
  15        4YZ         0.00000   0.00002  -0.00009   0.00001   0.00006
  16 2   C  1S         -0.00000  -0.00001   0.00103  -0.00001  -0.00037
  17        2S          0.00000  -0.00012  -0.00003  -0.00002  -0.00027
  18        2PX        -0.00002  -0.00014   0.00004  -0.00005  -0.00001
  19        2PY         0.00000   0.00002  -0.00000   0.00004  -0.00017
  20        2PZ        -0.00000  -0.00000  -0.00003  -0.00000   0.00002
  21        3S         -0.00031  -0.00202   0.00330  -0.00017   0.00143
  22        3PX        -0.00011  -0.00045  -0.00031  -0.00015   0.00090
  23        3PY         0.00004   0.00003   0.00233  -0.00030   0.00106
  24        3PZ        -0.00001  -0.00017   0.00069  -0.00003   0.00006
  25        4XX        -0.00001   0.00007  -0.00013  -0.00002  -0.00005
  26        4YY         0.00001   0.00004  -0.00023   0.00001  -0.00003
  27        4ZZ        -0.00001  -0.00007  -0.00024  -0.00003  -0.00013
  28        4XY        -0.00000   0.00001   0.00004   0.00002   0.00005
  29        4XZ        -0.00000  -0.00000   0.00005  -0.00000  -0.00004
  30        4YZ        -0.00000  -0.00003  -0.00010  -0.00001   0.00001
  31 3   C  1S         -0.00000   0.00439  -0.00006  -0.00002  -0.00002
  32        2S          0.00001  -0.00030  -0.00011  -0.00018   0.00014
  33        2PX         0.00002  -0.00020   0.00005   0.00009  -0.00002
  34        2PY        -0.00001  -0.00027  -0.00005   0.00002   0.00001
  35        2PZ         0.00000   0.00001  -0.00005   0.00000   0.00001
  36        3S          0.00052   0.00705   0.00011   0.00379  -0.00175
  37        3PX        -0.00010   0.00103  -0.00069   0.00154  -0.00031
  38        3PY         0.00045   0.00388  -0.00056   0.00123  -0.00156
  39        3PZ        -0.00003  -0.00007  -0.00005   0.00004   0.00006
  40        4XX        -0.00004  -0.00050  -0.00001   0.00005   0.00002
  41        4YY         0.00000  -0.00027  -0.00004   0.00001  -0.00003
  42        4ZZ        -0.00000  -0.00024  -0.00007  -0.00005   0.00004
  43        4XY        -0.00001  -0.00012  -0.00003   0.00000  -0.00002
  44        4XZ        -0.00000  -0.00002   0.00003   0.00001   0.00001
  45        4YZ        -0.00000  -0.00000   0.00005  -0.00000   0.00000
  46 4   C  1S          0.00003   0.99286   0.00105   0.00050  -0.00010
  47        2S          0.00016   0.04905  -0.00009  -0.00029  -0.00018
  48        2PX         0.00029   0.00062   0.00006  -0.00010   0.00004
  49        2PY        -0.00009  -0.00016  -0.00001  -0.00013  -0.00002
  50        2PZ         0.00002   0.00007  -0.00008   0.00000   0.00004
  51        3S         -0.00059  -0.01494   0.00179   0.00199   0.00138
  52        3PX         0.00053   0.00588  -0.00047   0.00458  -0.00142
  53        3PY        -0.00001  -0.00243   0.00054   0.00380   0.00016
  54        3PZ         0.00003   0.00040   0.00016   0.00010  -0.00031
  55        4XX         0.00020  -0.00850  -0.00008   0.00016   0.00002
  56        4YY         0.00005  -0.00914  -0.00000   0.00010   0.00007
  57        4ZZ        -0.00000  -0.00938  -0.00010  -0.00009  -0.00004
  58        4XY        -0.00006   0.00007   0.00007  -0.00003   0.00004
  59        4XZ         0.00002   0.00006  -0.00002   0.00002   0.00000
  60        4YZ        -0.00001  -0.00001  -0.00000  -0.00001  -0.00002
  61 5   C  1S         -0.00000   0.00440  -0.00008   0.00002   0.01364
  62        2S          0.00003  -0.00029  -0.00021   0.00007   0.00034
  63        2PX        -0.00001   0.00008   0.00012   0.00004   0.00029
  64        2PY         0.00003   0.00033  -0.00008   0.00004  -0.00026
  65        2PZ        -0.00000  -0.00000  -0.00007   0.00000   0.00002
  66        3S          0.00017   0.00706   0.00077  -0.00368   0.00557
  67        3PX        -0.00023  -0.00178  -0.00139  -0.00197  -0.00183
  68        3PY        -0.00009  -0.00333   0.00179   0.00226   0.00232
  69        3PZ        -0.00001   0.00006   0.00009  -0.00023   0.00017
  70        4XX        -0.00003  -0.00027   0.00002   0.00013  -0.00050
  71        4YY        -0.00005  -0.00043  -0.00008  -0.00006  -0.00047
  72        4ZZ        -0.00002  -0.00025  -0.00009   0.00003  -0.00028
  73        4XY         0.00004   0.00015  -0.00006   0.00003   0.00015
  74        4XZ        -0.00000  -0.00001  -0.00005   0.00001  -0.00005
  75        4YZ         0.00000   0.00002  -0.00004   0.00001   0.00005
  76 6   C  1S         -0.00000   0.00002   0.00249  -0.00003   0.99284
  77        2S         -0.00001  -0.00005   0.00025  -0.00003   0.04898
  78        2PX         0.00000  -0.00004   0.00007  -0.00003   0.00050
  79        2PY         0.00001   0.00010   0.00001   0.00006   0.00007
  80        2PZ        -0.00000  -0.00000  -0.00006  -0.00001   0.00034
  81        3S         -0.00009  -0.00144   0.00177  -0.00100  -0.01537
  82        3PX        -0.00002  -0.00006  -0.00285  -0.00040  -0.00181
  83        3PY         0.00001   0.00059  -0.00066  -0.00022   0.00122
  84        3PZ        -0.00000  -0.00017   0.00051   0.00000  -0.00137
  85        4XX         0.00001   0.00007  -0.00033  -0.00003  -0.00918
  86        4YY        -0.00001   0.00002  -0.00017  -0.00002  -0.00889
  87        4ZZ        -0.00001  -0.00005  -0.00023  -0.00002  -0.00927
  88        4XY        -0.00000   0.00001  -0.00004  -0.00001  -0.00005
  89        4XZ         0.00000   0.00002   0.00017  -0.00000   0.00004
  90        4YZ        -0.00000   0.00002   0.00008  -0.00000   0.00004
  91 7   N  1S          0.99268  -0.00002  -0.00001  -0.00008  -0.00002
  92        2S          0.03471   0.00054  -0.00004   0.00023  -0.00008
  93        2PX         0.00001   0.00014   0.00001  -0.00007  -0.00000
  94        2PY        -0.00004   0.00003  -0.00000  -0.00004  -0.00002
  95        2PZ         0.00000   0.00000   0.00003  -0.00000  -0.00001
  96        3S          0.00372  -0.00349   0.00008  -0.00064   0.00065
  97        3PX         0.00027   0.00206  -0.00017   0.00090  -0.00041
  98        3PY        -0.00026  -0.00230  -0.00002  -0.00183   0.00020
  99        3PZ         0.00003   0.00025  -0.00015   0.00014   0.00004
 100        4XX        -0.00840  -0.00065   0.00002  -0.00033  -0.00001
 101        4YY        -0.00832  -0.00004  -0.00001  -0.00047  -0.00003
 102        4ZZ        -0.00829   0.00032  -0.00003   0.00015  -0.00005
 103        4XY        -0.00003   0.00025  -0.00002  -0.00026  -0.00003
 104        4XZ        -0.00001  -0.00008   0.00002  -0.00002  -0.00001
 105        4YZ        -0.00000   0.00004  -0.00002   0.00002  -0.00000
 106 8   C  1S          0.00000   0.00002   0.00000   0.00699   0.00007
 107        2S          0.00005   0.00009  -0.00000  -0.00015   0.00004
 108        2PX        -0.00001  -0.00010  -0.00001  -0.00024   0.00005
 109        2PY         0.00004   0.00001  -0.00001   0.00028  -0.00005
 110        2PZ        -0.00000  -0.00001   0.00005  -0.00003  -0.00002
 111        3S         -0.00017  -0.00284   0.00010   0.00606  -0.00099
 112        3PX        -0.00007  -0.00063  -0.00003   0.00090   0.00048
 113        3PY         0.00022   0.00252  -0.00044  -0.00263   0.00012
 114        3PZ        -0.00001  -0.00014  -0.00020   0.00018  -0.00001
 115        4XX        -0.00001   0.00009  -0.00001  -0.00028  -0.00002
 116        4YY        -0.00007   0.00003   0.00002  -0.00035   0.00003
 117        4ZZ        -0.00001   0.00005   0.00000  -0.00020  -0.00000
 118        4XY         0.00001   0.00009   0.00004   0.00003   0.00006
 119        4XZ        -0.00000  -0.00000   0.00001  -0.00001   0.00001
 120        4YZ         0.00000   0.00001   0.00002   0.00001   0.00001
 121 9   C  1S          0.00002  -0.00058  -0.00006   0.99279   0.00001
 122        2S          0.00013  -0.00038  -0.00007   0.04883  -0.00009
 123        2PX        -0.00020  -0.00001   0.00002  -0.00057   0.00001
 124        2PY        -0.00027  -0.00011  -0.00001  -0.00080   0.00004
 125        2PZ         0.00000   0.00000   0.00000   0.00001   0.00001
 126        3S         -0.00023   0.00380   0.00011  -0.01242   0.00045
 127        3PX        -0.00019  -0.00333  -0.00025   0.00167  -0.00054
 128        3PY         0.00030   0.00112  -0.00004  -0.00118  -0.00003
 129        3PZ        -0.00002  -0.00026   0.00008   0.00015  -0.00007
 130        4XX         0.00008   0.00017   0.00001  -0.00899   0.00002
 131        4YY         0.00015   0.00008   0.00001  -0.00911   0.00000
 132        4ZZ        -0.00002  -0.00010  -0.00003  -0.00953  -0.00003
 133        4XY         0.00009   0.00005  -0.00000   0.00009  -0.00002
 134        4XZ         0.00000   0.00002  -0.00001   0.00003   0.00001
 135        4YZ        -0.00000  -0.00001  -0.00000  -0.00002   0.00000
 136 10  H  1S          0.00028  -0.00023  -0.00001  -0.00027   0.00001
 137        2S         -0.00065  -0.00080   0.00006  -0.00064   0.00010
 138 11  H  1S         -0.00000  -0.00011   0.00001  -0.00004   0.00001
 139        2S         -0.00007  -0.00057   0.00024   0.00027  -0.00007
 140 12  H  1S          0.00002   0.00014   0.00001  -0.00049   0.00003
 141        2S          0.00013   0.00118   0.00011   0.00156   0.00020
 142 13  H  1S          0.00001   0.00002  -0.00011  -0.00003   0.00004
 143        2S          0.00001   0.00028  -0.00001  -0.00001   0.00053
 144 14  H  1S          0.00002   0.00004  -0.00006  -0.00005  -0.00007
 145        2S          0.00018   0.00106  -0.00017   0.00025  -0.00054
 146 15  H  1S          0.00000  -0.00001   0.00030  -0.00000  -0.00003
 147        2S         -0.00001  -0.00003   0.00101  -0.00001   0.00010
 148 16  H  1S          0.00001   0.00003  -0.00002   0.00003  -0.00037
 149        2S          0.00001   0.00004   0.00013   0.00026   0.00234
                           6         7         8         9        10
                           O         O         O         O         O
     Eigenvalues --   -10.20411 -10.20030 -10.19399 -10.19334  -0.97281
   1 1   C  1S         -0.00117   0.00004   0.00005  -0.00001  -0.00294
   2        2S         -0.00001  -0.00017  -0.00008  -0.00001   0.00573
   3        2PX        -0.00003  -0.00010  -0.00003   0.00001   0.00370
   4        2PY        -0.00003  -0.00002   0.00015  -0.00000  -0.00119
   5        2PZ        -0.00002  -0.00002  -0.00002   0.00002  -0.00168
   6        3S          0.00166   0.00046   0.00009  -0.00017   0.00481
   7        3PX        -0.00015   0.00035   0.00013  -0.00003  -0.00070
   8        3PY        -0.00146  -0.00001  -0.00013  -0.00000   0.00034
   9        3PZ        -0.00002   0.00001   0.00010   0.00005  -0.00187
  10        4XX        -0.00016   0.00002   0.00000   0.00003   0.00017
  11        4YY        -0.00017  -0.00006  -0.00005   0.00000   0.00013
  12        4ZZ        -0.00017  -0.00009  -0.00007  -0.00001  -0.00000
  13        4XY        -0.00005  -0.00001  -0.00001  -0.00000  -0.00001
  14        4XZ         0.00003  -0.00003   0.00000   0.00000  -0.00036
  15        4YZ        -0.00011  -0.00001   0.00001   0.00000   0.00008
  16 2   C  1S          0.99255   0.00040  -0.02674   0.00000  -0.00605
  17        2S          0.04885   0.00000  -0.00170  -0.00005   0.01244
  18        2PX         0.00017  -0.00000  -0.00025  -0.00006   0.00878
  19        2PY        -0.00035  -0.00001   0.00010  -0.00001  -0.00125
  20        2PZ         0.00026   0.00000  -0.00002  -0.00001   0.00092
  21        3S         -0.01399   0.00038   0.00543  -0.00034   0.02185
  22        3PX        -0.00154   0.00009   0.00247   0.00008   0.00255
  23        3PY         0.00022  -0.00027  -0.00057   0.00021  -0.00624
  24        3PZ        -0.00114  -0.00002   0.00015   0.00003   0.00058
  25        4XX        -0.00885   0.00000  -0.00004  -0.00001   0.00091
  26        4YY        -0.00927  -0.00002  -0.00005  -0.00000  -0.00010
  27        4ZZ        -0.00935  -0.00002   0.00015  -0.00003  -0.00037
  28        4XY         0.00003  -0.00001   0.00008   0.00001  -0.00048
  29        4XZ         0.00000  -0.00001  -0.00002   0.00000   0.00016
  30        4YZ        -0.00009  -0.00000   0.00002   0.00000   0.00008
  31 3   C  1S          0.02637  -0.00026   0.99241  -0.00038  -0.02115
  32        2S          0.00092  -0.00010   0.04979  -0.00008   0.04172
  33        2PX         0.00031  -0.00001   0.00024   0.00004   0.02056
  34        2PY        -0.00020  -0.00002   0.00018  -0.00003   0.01219
  35        2PZ         0.00002   0.00001  -0.00007   0.00001   0.00064
  36        3S          0.00414   0.00026  -0.01673   0.00075  -0.01137
  37        3PX        -0.00197   0.00071  -0.00018  -0.00016   0.00906
  38        3PY         0.00080  -0.00013  -0.00295   0.00074  -0.02420
  39        3PZ         0.00020   0.00004   0.00015  -0.00006   0.00169
  40        4XX        -0.00067   0.00009  -0.00924  -0.00003   0.00305
  41        4YY        -0.00050   0.00007  -0.00917   0.00001  -0.00037
  42        4ZZ        -0.00041  -0.00002  -0.00959  -0.00002  -0.00222
  43        4XY         0.00011   0.00003   0.00001  -0.00000   0.00179
  44        4XZ        -0.00007   0.00001   0.00002   0.00000   0.00029
  45        4YZ         0.00003  -0.00001  -0.00002  -0.00000   0.00002
  46 4   C  1S         -0.00016  -0.00477  -0.00478   0.00014  -0.09062
  47        2S         -0.00019  -0.00062  -0.00064  -0.00006   0.17752
  48        2PX         0.00005  -0.00001   0.00033   0.00004   0.09370
  49        2PY         0.00003  -0.00034   0.00021  -0.00006   0.00028
  50        2PZ         0.00004   0.00003   0.00002   0.00000   0.00556
  51        3S          0.00023   0.00650   0.00646  -0.00061   0.04025
  52        3PX        -0.00125   0.00108  -0.00236   0.00104  -0.06674
  53        3PY         0.00023   0.00354  -0.00084  -0.00049   0.00392
  54        3PZ        -0.00026  -0.00013  -0.00012   0.00010  -0.00399
  55        4XX         0.00005  -0.00019  -0.00039   0.00015   0.01113
  56        4YY         0.00002  -0.00048  -0.00032   0.00011  -0.00323
  57        4ZZ        -0.00006  -0.00014  -0.00012   0.00000  -0.01195
  58        4XY         0.00002  -0.00006  -0.00016  -0.00000  -0.00181
  59        4XZ         0.00001  -0.00000  -0.00002   0.00001   0.00167
  60        4YZ         0.00001   0.00002  -0.00000  -0.00000  -0.00057
  61 5   C  1S         -0.00039   0.99242   0.00024  -0.02571  -0.04747
  62        2S         -0.00001   0.04948  -0.00003  -0.00170   0.08984
  63        2PX         0.00000   0.00012   0.00006  -0.00030   0.02918
  64        2PY        -0.00000  -0.00023   0.00003  -0.00006  -0.03826
  65        2PZ         0.00003  -0.00002   0.00001  -0.00001   0.00341
  66        3S         -0.00052  -0.01787  -0.00081   0.00751   0.03599
  67        3PX         0.00107  -0.00142  -0.00095   0.00382   0.02881
  68        3PY         0.00039   0.00223   0.00055   0.00020  -0.01789
  69        3PZ        -0.00002  -0.00017  -0.00011   0.00019   0.00268
  70        4XX        -0.00001  -0.00892   0.00005  -0.00021   0.00151
  71        4YY         0.00002  -0.00913   0.00007  -0.00004   0.00408
  72        4ZZ        -0.00001  -0.00937  -0.00001   0.00006  -0.00576
  73        4XY        -0.00003  -0.00016  -0.00003  -0.00003  -0.00351
  74        4XZ         0.00001   0.00003   0.00001  -0.00002   0.00059
  75        4YZ        -0.00001  -0.00002  -0.00000   0.00000  -0.00076
  76 6   C  1S          0.00026  -0.01396   0.00005   0.00030  -0.00959
  77        2S         -0.00026  -0.00092   0.00011  -0.00002   0.01816
  78        2PX         0.00013  -0.00033  -0.00004  -0.00001   0.01009
  79        2PY         0.00013   0.00020  -0.00002  -0.00003  -0.00815
  80        2PZ         0.00002  -0.00003  -0.00000  -0.00000   0.00162
  81        3S          0.00129   0.00293  -0.00083   0.00029   0.03114
  82        3PX        -0.00049   0.00120  -0.00018  -0.00017   0.01102
  83        3PY        -0.00131  -0.00066   0.00069  -0.00052  -0.00102
  84        3PZ         0.00013  -0.00003  -0.00006   0.00005   0.00098
  85        4XX        -0.00008  -0.00034   0.00001   0.00002   0.00095
  86        4YY        -0.00001  -0.00014  -0.00002   0.00008   0.00029
  87        4ZZ        -0.00014   0.00002   0.00004  -0.00002  -0.00104
  88        4XY         0.00003   0.00016   0.00001  -0.00005  -0.00113
  89        4XZ        -0.00004  -0.00002  -0.00000   0.00000   0.00009
  90        4YZ         0.00002   0.00004   0.00001  -0.00001  -0.00031
  91 7   N  1S         -0.00002   0.00004   0.00001   0.00008  -0.17106
  92        2S         -0.00009   0.00008  -0.00001   0.00028   0.34877
  93        2PX         0.00004   0.00001   0.00000  -0.00005  -0.02064
  94        2PY         0.00001   0.00008   0.00002   0.00007   0.05056
  95        2PZ        -0.00001  -0.00001  -0.00000  -0.00001  -0.00348
  96        3S          0.00082  -0.00136  -0.00011  -0.00328   0.41834
  97        3PX        -0.00061   0.00037   0.00021   0.00035  -0.03371
  98        3PY        -0.00003  -0.00082   0.00012  -0.00139   0.04720
  99        3PZ         0.00003   0.00008   0.00002   0.00008  -0.00421
 100        4XX        -0.00001   0.00009   0.00005   0.00012   0.00247
 101        4YY        -0.00006   0.00012   0.00005   0.00021   0.00917
 102        4ZZ        -0.00006   0.00007  -0.00001   0.00018  -0.01931
 103        4XY        -0.00002  -0.00003  -0.00003  -0.00001  -0.00434
 104        4XZ        -0.00001   0.00000   0.00000  -0.00000   0.00166
 105        4YZ         0.00001  -0.00000  -0.00000  -0.00000  -0.00176
 106 8   C  1S         -0.00002   0.02537   0.00036   0.99249  -0.04545
 107        2S          0.00000   0.00098  -0.00005   0.04970   0.08201
 108        2PX         0.00002   0.00024  -0.00003  -0.00009  -0.00335
 109        2PY        -0.00000   0.00017   0.00000  -0.00038  -0.05170
 110        2PZ        -0.00001   0.00000  -0.00001   0.00001   0.00219
 111        3S         -0.00055   0.00467   0.00090  -0.01925   0.06936
 112        3PX         0.00024  -0.00174  -0.00034   0.00184  -0.00262
 113        3PY         0.00016  -0.00135  -0.00063   0.00504  -0.02507
 114        3PZ         0.00005  -0.00002   0.00003  -0.00011   0.00081
 115        4XX        -0.00001  -0.00074   0.00000  -0.00930  -0.00018
 116        4YY        -0.00001  -0.00052   0.00001  -0.00907   0.00552
 117        4ZZ        -0.00001  -0.00040  -0.00002  -0.00944  -0.00622
 118        4XY         0.00001  -0.00014   0.00002  -0.00001  -0.00025
 119        4XZ        -0.00001  -0.00002  -0.00000   0.00001   0.00044
 120        4YZ        -0.00001  -0.00000  -0.00000  -0.00002  -0.00064
 121 9   C  1S         -0.00000  -0.00019  -0.00002  -0.00742  -0.08396
 122        2S         -0.00003  -0.00011  -0.00002  -0.00092   0.16465
 123        2PX        -0.00000  -0.00003  -0.00000   0.00023  -0.07728
 124        2PY         0.00000  -0.00012  -0.00003  -0.00027  -0.05708
 125        2PZ        -0.00000   0.00001   0.00000   0.00002  -0.00194
 126        3S          0.00030  -0.00037  -0.00028   0.00834   0.03042
 127        3PX        -0.00011   0.00005   0.00004  -0.00401   0.03822
 128        3PY        -0.00014  -0.00014   0.00002   0.00154  -0.00167
 129        3PZ        -0.00001  -0.00000  -0.00000  -0.00031   0.00239
 130        4XX         0.00000   0.00011   0.00002  -0.00019   0.00482
 131        4YY         0.00002   0.00004  -0.00002  -0.00026   0.00535
 132        4ZZ        -0.00001  -0.00001  -0.00000  -0.00011  -0.01111
 133        4XY         0.00000  -0.00001   0.00001   0.00012   0.00866
 134        4XZ         0.00000   0.00001   0.00000  -0.00001   0.00069
 135        4YZ        -0.00000  -0.00000   0.00000   0.00001  -0.00033
 136 10  H  1S         -0.00005  -0.00009  -0.00000  -0.00008   0.08275
 137        2S          0.00008  -0.00013   0.00002  -0.00018   0.00941
 138 11  H  1S         -0.00000  -0.00004   0.00002  -0.00054   0.01054
 139        2S         -0.00005   0.00022   0.00023   0.00070   0.00498
 140 12  H  1S         -0.00001  -0.00002   0.00000   0.00004   0.02307
 141        2S          0.00001   0.00009   0.00003   0.00080  -0.01379
 142 13  H  1S         -0.00044  -0.00003  -0.00000   0.00002   0.00119
 143        2S          0.00209  -0.00005   0.00014   0.00018  -0.00409
 144 14  H  1S         -0.00011  -0.00003  -0.00047   0.00004   0.00770
 145        2S         -0.00006   0.00005   0.00156   0.00028  -0.00818
 146 15  H  1S         -0.00004  -0.00001  -0.00001   0.00001   0.00001
 147        2S          0.00005   0.00012   0.00015  -0.00001  -0.00009
 148 16  H  1S          0.00004  -0.00005  -0.00002   0.00002   0.00272
 149        2S          0.00062  -0.00017  -0.00028   0.00024  -0.00288
                          11        12        13        14        15
                           O         O         O         O         O
     Eigenvalues --    -0.81773  -0.78407  -0.71866  -0.69969  -0.60857
   1 1   C  1S         -0.04243   0.00601  -0.02446   0.08523  -0.06650
   2        2S          0.08135  -0.01118   0.04961  -0.16839   0.13565
   3        2PX         0.03434   0.00563   0.03929  -0.04417  -0.00523
   4        2PY        -0.01200   0.02138   0.04013   0.01185  -0.05676
   5        2PZ        -0.02404   0.00296  -0.01475   0.04560  -0.03001
   6        3S          0.06228  -0.01110   0.03951  -0.15508   0.13642
   7        3PX         0.00593  -0.00108   0.00535  -0.01023  -0.00142
   8        3PY        -0.00346   0.00198   0.00406   0.00505  -0.01436
   9        3PZ        -0.00855   0.00164  -0.00379   0.01746  -0.01136
  10        4XX         0.00069   0.00185   0.00412   0.00184  -0.00570
  11        4YY         0.00058  -0.00225  -0.00467  -0.00030   0.00183
  12        4ZZ        -0.00287   0.00043  -0.00131   0.00519  -0.00397
  13        4XY         0.00099   0.00164   0.00407  -0.00353  -0.00106
  14        4XZ        -0.00368  -0.00051  -0.00381   0.00476   0.00035
  15        4YZ         0.00132  -0.00220  -0.00369  -0.00156   0.00502
  16 2   C  1S         -0.07370   0.06281   0.07734   0.08839  -0.08262
  17        2S          0.14231  -0.12232  -0.15364  -0.17532   0.16889
  18        2PX         0.05297  -0.04414  -0.03517   0.01284  -0.08433
  19        2PY        -0.01602   0.03582   0.06780  -0.00371   0.03509
  20        2PZ         0.01077  -0.00721  -0.00506  -0.01714   0.01891
  21        3S          0.10241  -0.10190  -0.11787  -0.14737   0.14746
  22        3PX         0.01532  -0.01268  -0.00264  -0.00461  -0.02546
  23        3PY        -0.00061   0.00453   0.00808  -0.00076   0.01439
  24        3PZ         0.00338  -0.00275  -0.00239  -0.00395   0.00550
  25        4XX         0.00508  -0.00475  -0.00461   0.00053  -0.00231
  26        4YY        -0.00037   0.00137   0.00236  -0.00268   0.00133
  27        4ZZ        -0.00755   0.00652   0.00783   0.00738  -0.00548
  28        4XY        -0.00157   0.00270   0.00254  -0.00309   0.00903
  29        4XZ         0.00124  -0.00099  -0.00091  -0.00052  -0.00021
  30        4YZ         0.00155  -0.00057   0.00003  -0.00339   0.00443
  31 3   C  1S         -0.09925   0.10130   0.08601  -0.00590   0.08483
  32        2S          0.19342  -0.19987  -0.17076   0.01021  -0.17229
  33        2PX        -0.00046  -0.00733   0.06256   0.11945  -0.10470
  34        2PY         0.05364  -0.02237  -0.00001   0.00176   0.07260
  35        2PZ        -0.00156   0.00044   0.00436   0.00341  -0.00322
  36        3S          0.11769  -0.11975  -0.13202   0.03140  -0.16380
  37        3PX         0.00163  -0.00721   0.01785   0.02579  -0.04156
  38        3PY        -0.00571   0.02110   0.00651   0.00946   0.02138
  39        3PZ        -0.00042  -0.00084   0.00161   0.00066  -0.00150
  40        4XX         0.00083  -0.00323   0.00092   0.00024   0.00619
  41        4YY         0.00336  -0.00145  -0.00155   0.00050  -0.00534
  42        4ZZ        -0.01043   0.01001   0.00818  -0.00116   0.00764
  43        4XY         0.00109   0.00018   0.00436   0.00900  -0.00457
  44        4XZ         0.00078  -0.00103  -0.00089  -0.00010  -0.00032
  45        4YZ        -0.00058   0.00057   0.00082   0.00013   0.00078
  46 4   C  1S         -0.08043   0.05237  -0.02148  -0.10826  -0.01589
  47        2S          0.16044  -0.10793   0.04601   0.22792   0.03504
  48        2PX        -0.09859   0.03262   0.06919   0.02677   0.14844
  49        2PY         0.04785   0.11359   0.03164   0.02026   0.14770
  50        2PZ        -0.00739  -0.00332   0.00332  -0.00154   0.00541
  51        3S          0.10882  -0.07512   0.03462   0.14717   0.02193
  52        3PX        -0.02111   0.03086   0.00170   0.01214   0.00620
  53        3PY         0.00902   0.00869   0.02486   0.01072   0.02975
  54        3PZ        -0.00036   0.00126  -0.00075  -0.00102   0.00055
  55        4XX        -0.00474  -0.00670  -0.00298  -0.00397   0.00402
  56        4YY         0.00641   0.00757   0.00255   0.00060  -0.00361
  57        4ZZ        -0.00844   0.00534  -0.00231  -0.01071  -0.00263
  58        4XY         0.00698   0.00206  -0.01111   0.00401  -0.00228
  59        4XZ        -0.00019  -0.00087   0.00044   0.00049   0.00033
  60        4YZ        -0.00029   0.00005  -0.00081  -0.00051   0.00007
  61 5   C  1S         -0.10844  -0.08139  -0.05967  -0.03255  -0.00492
  62        2S          0.21272   0.15993   0.12196   0.06506   0.01141
  63        2PX        -0.03350   0.06051  -0.11052   0.08907   0.05115
  64        2PY        -0.01953   0.04268   0.02472  -0.11216  -0.13338
  65        2PZ         0.00049   0.00140  -0.00527   0.00518   0.01357
  66        3S          0.13103   0.11529   0.07232   0.06830   0.00226
  67        3PX        -0.00066   0.01993  -0.01271   0.01504   0.01302
  68        3PY        -0.00733  -0.00352   0.02019  -0.01210  -0.03388
  69        3PZ        -0.00025   0.00088  -0.00162   0.00068   0.00423
  70        4XX         0.00163   0.00860  -0.00323  -0.00630  -0.00319
  71        4YY         0.00179  -0.00651   0.00151   0.00686   0.00207
  72        4ZZ        -0.01131  -0.00838  -0.00495  -0.00350  -0.00082
  73        4XY        -0.00115  -0.00122  -0.00759   0.00338  -0.00276
  74        4XZ         0.00065   0.00114   0.00020   0.00020  -0.00053
  75        4YZ        -0.00085  -0.00026  -0.00084  -0.00040  -0.00032
  76 6   C  1S         -0.08027  -0.03904  -0.10934   0.09437   0.04772
  77        2S          0.15692   0.07599   0.21920  -0.18959  -0.09935
  78        2PX         0.04253   0.04446   0.05033   0.02179  -0.08124
  79        2PY        -0.03667   0.00185  -0.00538  -0.00590  -0.06859
  80        2PZ         0.01505   0.00382   0.01800  -0.02524   0.01325
  81        3S          0.11393   0.06767   0.17875  -0.16324  -0.08557
  82        3PX         0.01187   0.00913   0.00801  -0.00591  -0.01791
  83        3PY        -0.00739  -0.00501  -0.00196  -0.00250  -0.01806
  84        3PZ         0.00472   0.00261   0.00621  -0.00619   0.00319
  85        4XX         0.00212   0.00256  -0.00062   0.00180   0.00181
  86        4YY         0.00243  -0.00035   0.00315  -0.00278  -0.00215
  87        4ZZ        -0.00771  -0.00428  -0.00962   0.00692   0.00553
  88        4XY        -0.00276  -0.00205  -0.00180  -0.00526   0.00108
  89        4XZ        -0.00097   0.00031  -0.00142   0.00354  -0.00191
  90        4YZ        -0.00248  -0.00058  -0.00249   0.00294  -0.00109
  91 7   N  1S          0.07456   0.05412  -0.04249   0.03460  -0.00069
  92        2S         -0.16267  -0.11737   0.09392  -0.07730   0.00030
  93        2PX        -0.06427   0.04884  -0.06006  -0.18503  -0.09254
  94        2PY         0.01868   0.09874  -0.08987   0.03597   0.17989
  95        2PZ        -0.00453  -0.00158   0.00065  -0.01298  -0.01257
  96        3S         -0.17527  -0.14812   0.11547  -0.10111   0.01885
  97        3PX        -0.03122   0.02635  -0.02841  -0.08613  -0.04606
  98        3PY         0.01293   0.04460  -0.05184   0.01681   0.09778
  99        3PZ        -0.00274  -0.00044   0.00069  -0.00586  -0.00679
 100        4XX         0.00359  -0.00412   0.00116   0.00602  -0.00151
 101        4YY        -0.00547   0.00306  -0.00211  -0.00651  -0.00375
 102        4ZZ         0.00523   0.00365  -0.00260   0.00166  -0.00074
 103        4XY        -0.00117   0.00429  -0.00800  -0.00586  -0.00340
 104        4XZ        -0.00003  -0.00072   0.00060   0.00059   0.00003
 105        4YZ         0.00049   0.00029  -0.00049   0.00006  -0.00001
 106 8   C  1S         -0.03737  -0.12053   0.07795  -0.01333   0.04379
 107        2S          0.07173   0.23617  -0.15469   0.02707  -0.09091
 108        2PX        -0.04832  -0.01285  -0.08036  -0.04806  -0.03867
 109        2PY        -0.00458  -0.05981   0.05558  -0.01190  -0.07704
 110        2PZ        -0.00246   0.00200  -0.00701  -0.00294   0.00199
 111        3S          0.04789   0.15271  -0.12498   0.00802  -0.07772
 112        3PX        -0.00628  -0.00330  -0.01174   0.00010  -0.01085
 113        3PY         0.00467   0.01004   0.00104   0.00350  -0.04086
 114        3PZ        -0.00058  -0.00080  -0.00061  -0.00063   0.00151
 115        4XX         0.00470   0.00144   0.00539   0.00035  -0.00111
 116        4YY        -0.00150   0.00408  -0.00544  -0.00042   0.00080
 117        4ZZ        -0.00421  -0.01247   0.00753  -0.00143   0.00290
 118        4XY         0.00474   0.00146   0.00437   0.00655   0.00258
 119        4XZ         0.00035   0.00091  -0.00042  -0.00004  -0.00048
 120        4YZ         0.00011  -0.00084   0.00095   0.00037   0.00024
 121 9   C  1S          0.02831  -0.07825   0.09768   0.06043   0.02135
 122        2S         -0.05802   0.15619  -0.19883  -0.12638  -0.04432
 123        2PX         0.00099  -0.04942   0.01878  -0.03670  -0.09335
 124        2PY         0.06578   0.07798  -0.06978   0.06625  -0.04443
 125        2PZ        -0.00290  -0.00639   0.00421  -0.00537  -0.00314
 126        3S         -0.02753   0.11516  -0.14710  -0.08698  -0.07044
 127        3PX        -0.00541  -0.00763  -0.00991  -0.02429  -0.01963
 128        3PY         0.00381   0.01711  -0.01522   0.00613  -0.00643
 129        3PZ        -0.00037  -0.00110   0.00014  -0.00167  -0.00078
 130        4XX         0.00124   0.00461  -0.00280   0.00321   0.00459
 131        4YY        -0.00428  -0.00240   0.00287  -0.00441  -0.00393
 132        4ZZ         0.00358  -0.00839   0.00967   0.00617   0.00059
 133        4XY        -0.00700  -0.00876   0.00722  -0.00302   0.00730
 134        4XZ         0.00014   0.00127  -0.00119  -0.00005  -0.00011
 135        4YZ        -0.00001  -0.00080   0.00076   0.00038   0.00065
 136 10  H  1S         -0.06659  -0.06879   0.06026  -0.07092  -0.10151
 137        2S         -0.00600  -0.01085   0.01012  -0.01768  -0.04203
 138 11  H  1S          0.01633   0.05622  -0.04372  -0.00012  -0.07245
 139        2S          0.00134   0.00515  -0.00722  -0.00404  -0.02789
 140 12  H  1S         -0.01873   0.03353  -0.06156  -0.05990  -0.05741
 141        2S         -0.00378   0.00605  -0.01404  -0.01680  -0.02871
 142 13  H  1S          0.03478  -0.03488  -0.05740  -0.06910   0.09455
 143        2S          0.00822  -0.00726  -0.01539  -0.02325   0.03993
 144 14  H  1S          0.04600  -0.06027  -0.06225   0.00507  -0.10880
 145        2S          0.00053  -0.00463  -0.01380   0.00279  -0.04930
 146 15  H  1S          0.00518  -0.00133   0.00273  -0.01664   0.01997
 147        2S          0.00098  -0.00054   0.00128  -0.00858   0.01348
 148 16  H  1S          0.04112   0.02878   0.07982  -0.07198  -0.07629
 149        2S          0.00633   0.00804   0.02046  -0.01966  -0.03475
                          16        17        18        19        20
                           O         O         O         O         O
     Eigenvalues --    -0.59562  -0.56242  -0.54262  -0.48885  -0.45817
   1 1   C  1S         -0.01594  -0.11252   0.03640   0.07569   0.04415
   2        2S          0.03471   0.23312  -0.07676  -0.15862  -0.09117
   3        2PX         0.03486   0.03322  -0.00840  -0.03926   0.01435
   4        2PY         0.03515   0.02120   0.05129  -0.02586  -0.00655
   5        2PZ        -0.00892  -0.04590   0.01313   0.01643   0.00300
   6        3S          0.02623   0.24970  -0.07897  -0.19607  -0.12578
   7        3PX         0.00803   0.00560  -0.00588  -0.01303   0.01001
   8        3PY         0.00681   0.00494   0.01444  -0.00560   0.00417
   9        3PZ        -0.00007  -0.01862   0.00326   0.01032   0.00525
  10        4XX         0.00245  -0.00480   0.00159   0.00212   0.00039
  11        4YY        -0.00434  -0.00475   0.00247   0.00667   0.00477
  12        4ZZ        -0.00105  -0.00653   0.00273   0.00515   0.00302
  13        4XY         0.00088   0.00360   0.00413   0.00057  -0.00286
  14        4XZ        -0.00263  -0.00261   0.00034   0.00231  -0.00158
  15        4YZ        -0.00289  -0.00135  -0.00371   0.00162  -0.00018
  16 2   C  1S          0.06555   0.03066  -0.00150  -0.05538  -0.02383
  17        2S         -0.13548  -0.06469   0.00580   0.11710   0.05106
  18        2PX         0.06309  -0.02469  -0.03553  -0.13801   0.21389
  19        2PY         0.06064   0.12450  -0.10341  -0.08408   0.00131
  20        2PZ        -0.00002   0.02421  -0.01805  -0.03132  -0.00761
  21        3S         -0.12975  -0.05087   0.00211   0.12961   0.06894
  22        3PX         0.01952  -0.00533  -0.01670  -0.03567   0.06430
  23        3PY         0.01944   0.02857  -0.04397  -0.01930   0.01008
  24        3PZ        -0.00015   0.00745  -0.00757  -0.01049  -0.00147
  25        4XX        -0.00034  -0.00441  -0.00057   0.00583   0.00519
  26        4YY         0.00049   0.00572   0.00193  -0.00704  -0.01029
  27        4ZZ         0.00551   0.00473  -0.00122  -0.00576  -0.00199
  28        4XY        -0.00403  -0.00012  -0.00182   0.01223  -0.00580
  29        4XZ         0.00011  -0.00031  -0.00024  -0.00061   0.00101
  30        4YZ        -0.00040   0.00385  -0.00297  -0.00113  -0.00069
  31 3   C  1S         -0.01911   0.01243  -0.03272   0.05324  -0.00865
  32        2S          0.03700  -0.02702   0.06706  -0.10710   0.02228
  33        2PX         0.10947   0.13014  -0.06027   0.00160  -0.05718
  34        2PY         0.04262  -0.00411  -0.17928   0.11617   0.33742
  35        2PZ         0.00486   0.01743  -0.00216  -0.01709  -0.02837
  36        3S          0.05621  -0.01525   0.06371  -0.17010   0.03855
  37        3PX         0.02942   0.04792  -0.01130  -0.02151  -0.00148
  38        3PY         0.02267   0.00766  -0.05758   0.00725   0.08286
  39        3PZ         0.00100   0.00679  -0.00044  -0.00784  -0.00956
  40        4XX        -0.00411   0.00287  -0.00144   0.01411   0.00518
  41        4YY         0.00225  -0.00125   0.00271  -0.01143  -0.01348
  42        4ZZ        -0.00231   0.00056  -0.00270   0.00470   0.00043
  43        4XY         0.00664   0.00301  -0.00510   0.00284  -0.00084
  44        4XZ        -0.00043  -0.00058   0.00064   0.00075   0.00076
  45        4YZ         0.00022   0.00115  -0.00090  -0.00012  -0.00037
  46 4   C  1S         -0.04788  -0.03802   0.02431  -0.05550  -0.00778
  47        2S          0.10083   0.08795  -0.05107   0.12329   0.01165
  48        2PX        -0.10647   0.06547   0.18046   0.08304  -0.11665
  49        2PY         0.02142  -0.17183  -0.08835  -0.03702  -0.04053
  50        2PZ        -0.00610   0.01937   0.01049  -0.00824  -0.01836
  51        3S          0.09296   0.01276  -0.06578   0.15183   0.05504
  52        3PX         0.00393   0.00853   0.02598  -0.04310  -0.03745
  53        3PY         0.01021  -0.05176  -0.02224  -0.02166   0.05871
  54        3PZ         0.00059   0.00631   0.00019  -0.00871  -0.01096
  55        4XX        -0.00143   0.00447   0.01340  -0.00063   0.01226
  56        4YY        -0.00342  -0.01045  -0.00681  -0.00735  -0.01368
  57        4ZZ        -0.00364  -0.00356  -0.00008  -0.00464  -0.00100
  58        4XY         0.00730  -0.00379   0.00427  -0.01220   0.00309
  59        4XZ        -0.00025   0.00032   0.00102   0.00107   0.00069
  60        4YZ         0.00054   0.00047   0.00050  -0.00109   0.00051
  61 5   C  1S          0.02688   0.09193   0.03995   0.01165   0.05651
  62        2S         -0.05645  -0.19635  -0.08357  -0.02527  -0.11722
  63        2PX        -0.12844   0.03598   0.03142  -0.10601  -0.00240
  64        2PY        -0.10355   0.00128   0.09572  -0.01387   0.00887
  65        2PZ         0.00078   0.01607  -0.00690  -0.02606  -0.01510
  66        3S         -0.06206  -0.14867  -0.08472  -0.00969  -0.21562
  67        3PX        -0.05754   0.02738   0.06116   0.02792  -0.03421
  68        3PY        -0.01892  -0.02680   0.01792   0.01060   0.04489
  69        3PZ        -0.00148   0.00864  -0.00005  -0.00927  -0.01169
  70        4XX        -0.00519   0.00670   0.00387  -0.00718   0.00102
  71        4YY         0.00547   0.00355   0.00014   0.00925   0.00544
  72        4ZZ         0.00175   0.00646   0.00282   0.00100   0.00379
  73        4XY        -0.00431   0.00211  -0.01062  -0.00481   0.00206
  74        4XZ        -0.00052  -0.00134   0.00098   0.00105   0.00030
  75        4YZ        -0.00037   0.00050  -0.00034  -0.00067   0.00030
  76 6   C  1S         -0.02991  -0.01692  -0.06357  -0.02529  -0.01765
  77        2S          0.06165   0.03403   0.13182   0.05482   0.03778
  78        2PX        -0.03749  -0.17101   0.01745   0.10165  -0.01252
  79        2PY        -0.02229   0.02882   0.18284   0.09966   0.14710
  80        2PZ         0.01366   0.04051  -0.01666  -0.05037  -0.03416
  81        3S          0.04793   0.05322   0.16816   0.07299   0.01960
  82        3PX        -0.02040  -0.03743   0.01782   0.03395  -0.00936
  83        3PY        -0.00512   0.00624   0.04258   0.01627   0.03385
  84        3PZ         0.00501   0.01310  -0.00305  -0.01716  -0.01485
  85        4XX        -0.00454  -0.00310  -0.00665  -0.00559  -0.00874
  86        4YY         0.00263   0.00109   0.00700   0.00732   0.00958
  87        4ZZ        -0.00145   0.00234  -0.00623  -0.00501  -0.00332
  88        4XY        -0.00016   0.01110   0.00537  -0.00255   0.00505
  89        4XZ        -0.00190  -0.00602  -0.00004   0.00322   0.00067
  90        4YZ        -0.00152  -0.00259   0.00116   0.00225   0.00156
  91 7   N  1S          0.03502   0.00577  -0.00846   0.01016  -0.01921
  92        2S         -0.07666  -0.01503   0.02421  -0.02492   0.04122
  93        2PX         0.06507  -0.21650  -0.13698  -0.20899   0.08641
  94        2PY         0.21495  -0.03795   0.24812  -0.06121   0.09748
  95        2PZ        -0.00541  -0.00797  -0.02107  -0.01936  -0.01094
  96        3S         -0.11419  -0.00790   0.02263  -0.01413   0.10094
  97        3PX         0.03407  -0.11537  -0.07206  -0.11573   0.03883
  98        3PY         0.10622  -0.01754   0.11248  -0.03070   0.05098
  99        3PZ        -0.00269  -0.00461  -0.00992  -0.01085  -0.00727
 100        4XX         0.00663   0.00413  -0.00017   0.00967  -0.00512
 101        4YY        -0.00591  -0.00415  -0.00704  -0.00865   0.00003
 102        4ZZ         0.00254  -0.00024   0.00076   0.00065  -0.00159
 103        4XY         0.01078   0.00002   0.00489  -0.00068   0.00287
 104        4XZ        -0.00022   0.00013  -0.00021   0.00098  -0.00007
 105        4YZ         0.00110   0.00032   0.00065   0.00014  -0.00024
 106 8   C  1S          0.09194  -0.05957   0.02033   0.02062  -0.02373
 107        2S         -0.18836   0.12462  -0.03729  -0.04133   0.04569
 108        2PX         0.09459   0.14133  -0.01773   0.11497   0.06678
 109        2PY        -0.09216   0.03686  -0.05892   0.07264   0.05391
 110        2PZ         0.01049   0.00974   0.00046  -0.00337  -0.00492
 111        3S         -0.14247   0.09308  -0.10440  -0.09600   0.09748
 112        3PX         0.01447   0.04425  -0.00383   0.05882   0.00248
 113        3PY        -0.05435   0.04264   0.01347   0.03943  -0.00914
 114        3PZ         0.00380   0.00164  -0.00074  -0.00081  -0.00222
 115        4XX         0.00086  -0.00821  -0.00297   0.00289  -0.00907
 116        4YY        -0.00062   0.00515   0.00076  -0.00156   0.00876
 117        4ZZ         0.00768  -0.00431   0.00176   0.00226  -0.00244
 118        4XY        -0.01010  -0.00300  -0.00316  -0.00409   0.00030
 119        4XZ        -0.00015  -0.00043  -0.00012   0.00061  -0.00020
 120        4YZ        -0.00015  -0.00084  -0.00008   0.00032  -0.00021
 121 9   C  1S         -0.09806   0.00019   0.00256  -0.02856   0.01604
 122        2S          0.20804  -0.00301  -0.00563   0.05303  -0.02653
 123        2PX         0.07581  -0.01361  -0.13857   0.22942  -0.18686
 124        2PY        -0.08662   0.17674  -0.03936   0.09579  -0.04061
 125        2PZ         0.00870  -0.00722  -0.00728   0.00375  -0.01567
 126        3S          0.16146   0.02830   0.01933   0.10087  -0.07446
 127        3PX         0.05650  -0.01256  -0.06181   0.05922  -0.03326
 128        3PY        -0.02533   0.04675   0.00483   0.02383  -0.00580
 129        3PZ         0.00448  -0.00224  -0.00439  -0.00017  -0.00479
 130        4XX         0.00685  -0.00053   0.00341   0.00948  -0.01218
 131        4YY        -0.00847  -0.00205  -0.00250  -0.00975   0.01056
 132        4ZZ        -0.00945   0.00150  -0.00158  -0.00100   0.00074
 133        4XY         0.00563  -0.00740   0.00890  -0.00555   0.00766
 134        4XZ         0.00084   0.00001   0.00002   0.00145  -0.00077
 135        4YZ         0.00028  -0.00026   0.00059   0.00024   0.00011
 136 10  H  1S         -0.12774  -0.02740  -0.15123  -0.02359  -0.02366
 137        2S         -0.05241  -0.01272  -0.08174  -0.01544  -0.02731
 138 11  H  1S         -0.10399   0.09015  -0.04786   0.03446   0.07163
 139        2S         -0.03955   0.03692  -0.03346   0.02542   0.06337
 140 12  H  1S          0.12415  -0.01402  -0.06940   0.15534  -0.13261
 141        2S          0.04885  -0.00865  -0.03902   0.11523  -0.11456
 142 13  H  1S         -0.09505  -0.04816   0.04190   0.14654  -0.07941
 143        2S         -0.03879  -0.02450   0.01668   0.09266  -0.06499
 144 14  H  1S         -0.00172  -0.00750   0.12041  -0.12425  -0.19633
 145        2S         -0.00274   0.00033   0.06688  -0.08840  -0.17153
 146 15  H  1S          0.00023   0.03328  -0.00760  -0.01956  -0.02451
 147        2S         -0.00025   0.02595  -0.00491  -0.01510  -0.02499
 148 16  H  1S          0.01301   0.02066   0.15217   0.08911   0.10726
 149        2S          0.00263   0.01280   0.08132   0.06010   0.08651
                          21        22        23        24        25
                           O         O         O         O         O
     Eigenvalues --    -0.43568  -0.41839  -0.41805  -0.40266  -0.38571
   1 1   C  1S         -0.01325   0.02568  -0.01752  -0.02681  -0.00955
   2        2S          0.02656  -0.05413   0.03463   0.05669   0.01834
   3        2PX        -0.00147   0.08522  -0.07146   0.01768  -0.02488
   4        2PY        -0.03884   0.01479  -0.01778   0.04789  -0.12929
   5        2PZ         0.00260   0.01716   0.02116   0.00386   0.00879
   6        3S          0.04343  -0.07422   0.06157   0.07893   0.04041
   7        3PX         0.00267   0.03869  -0.02436   0.00884  -0.00178
   8        3PY        -0.01423  -0.00122  -0.00269   0.02226  -0.04484
   9        3PZ        -0.00182   0.01082   0.00864   0.00186  -0.00231
  10        4XX         0.00027   0.00605  -0.00515  -0.00339  -0.00276
  11        4YY        -0.00152  -0.00126   0.00395   0.00028   0.00277
  12        4ZZ        -0.00138  -0.00070  -0.00247  -0.00189  -0.00116
  13        4XY        -0.00162  -0.00166   0.00159  -0.00141  -0.00592
  14        4XZ         0.00012  -0.00390   0.00579  -0.00106   0.00084
  15        4YZ         0.00238  -0.00091   0.00015  -0.00301   0.00661
  16 2   C  1S          0.00288  -0.00186  -0.00163   0.00019  -0.02088
  17        2S         -0.00682   0.00739   0.00276   0.00293   0.04345
  18        2PX        -0.01637   0.14842  -0.12504   0.26969   0.11567
  19        2PY         0.03814  -0.06461   0.03478  -0.02417   0.11633
  20        2PZ         0.01604   0.02687   0.03698   0.01702   0.05205
  21        3S          0.00167   0.00879  -0.00953   0.00302   0.09880
  22        3PX        -0.00082   0.05712  -0.05712   0.07631   0.03726
  23        3PY         0.01223  -0.03076   0.01300  -0.01569   0.03873
  24        3PZ         0.00722   0.01108   0.01880   0.00779   0.02679
  25        4XX        -0.00130  -0.00246   0.00326  -0.00589  -0.00202
  26        4YY         0.00121  -0.00023  -0.00193   0.00166  -0.00268
  27        4ZZ         0.00103  -0.00018   0.00119   0.00113   0.00174
  28        4XY         0.00041  -0.00592   0.00549  -0.01644  -0.00578
  29        4XZ         0.00013   0.00364   0.00160   0.00060   0.00066
  30        4YZ         0.00109  -0.00310   0.00100  -0.00047   0.00306
  31 3   C  1S         -0.00076  -0.00181   0.00046  -0.01414  -0.00997
  32        2S          0.00153   0.00834  -0.00463   0.03370   0.02184
  33        2PX         0.03176  -0.18878   0.15620  -0.25402   0.02402
  34        2PY        -0.02787  -0.00951   0.06373   0.01352   0.12475
  35        2PZ         0.01455   0.06458   0.08163  -0.02548   0.01812
  36        3S          0.00791  -0.08198   0.09739   0.02468   0.05218
  37        3PX         0.01791  -0.08249   0.07324  -0.08890   0.05576
  38        3PY        -0.01558  -0.03798   0.05875  -0.01209   0.03149
  39        3PZ         0.00775   0.03770   0.04190  -0.01030   0.01424
  40        4XX        -0.00014  -0.00266   0.00375  -0.00525   0.00519
  41        4YY         0.00010   0.00062  -0.00276   0.00184  -0.00968
  42        4ZZ        -0.00021   0.00078  -0.00045   0.00018  -0.00052
  43        4XY        -0.00074  -0.00703   0.00709  -0.00980  -0.00651
  44        4XZ        -0.00005   0.00504   0.00320  -0.00052  -0.00041
  45        4YZ         0.00061   0.00307   0.00397  -0.00106   0.00094
  46 4   C  1S         -0.00410   0.02183  -0.02851   0.00567   0.03201
  47        2S          0.00679  -0.04841   0.06279  -0.01336  -0.07236
  48        2PX         0.04859   0.11852  -0.14026   0.17927   0.05299
  49        2PY        -0.06807   0.05514  -0.03149   0.13340  -0.29852
  50        2PZ         0.02056   0.20012   0.15996  -0.02520   0.01715
  51        3S          0.05827  -0.08020   0.11192   0.03837  -0.14650
  52        3PX         0.02307  -0.08948   0.09327   0.03736   0.01087
  53        3PY         0.01067  -0.00744   0.03157   0.07373  -0.06714
  54        3PZ         0.00786   0.09189   0.08634  -0.01561   0.00400
  55        4XX         0.00898   0.00540  -0.00708   0.00392   0.01503
  56        4YY        -0.00674  -0.00286   0.00243   0.00055  -0.00912
  57        4ZZ        -0.00136   0.00095   0.00012  -0.00111   0.00011
  58        4XY        -0.00068  -0.01075   0.01261  -0.00249  -0.00231
  59        4XZ         0.00095   0.00984   0.00620  -0.00155  -0.00019
  60        4YZ         0.00029   0.00088   0.00130   0.00009  -0.00040
  61 5   C  1S         -0.00194   0.00145  -0.00159  -0.00727  -0.01591
  62        2S          0.00905  -0.00542   0.00757   0.02111   0.03394
  63        2PX        -0.08623  -0.15500   0.20664   0.21840   0.05104
  64        2PY         0.11149  -0.00104   0.00650  -0.08300   0.33912
  65        2PZ        -0.00014   0.12663   0.11891   0.00770  -0.02549
  66        3S         -0.04354   0.01830  -0.03223  -0.00703   0.01828
  67        3PX        -0.05448   0.03158  -0.03716   0.04076   0.04666
  68        3PY         0.07128  -0.03368   0.05506   0.03147   0.08927
  69        3PZ         0.00013   0.07644   0.05360  -0.00428  -0.00616
  70        4XX        -0.00533   0.00155  -0.00425  -0.00551   0.01133
  71        4YY         0.00015  -0.00301   0.00479   0.00447  -0.01570
  72        4ZZ         0.00093   0.00049   0.00104  -0.00020  -0.00063
  73        4XY         0.00684  -0.00623   0.00749   0.00183  -0.00115
  74        4XZ        -0.00073   0.00372   0.00235  -0.00221   0.00086
  75        4YZ        -0.00005  -0.00577  -0.00454   0.00121   0.00021
  76 6   C  1S          0.01735  -0.01611   0.02358   0.01641   0.01340
  77        2S         -0.03611   0.03516  -0.04965  -0.03553  -0.02902
  78        2PX         0.06980   0.04615  -0.04831  -0.13853   0.17102
  79        2PY        -0.12881  -0.12447   0.22232   0.13917  -0.08790
  80        2PZ         0.01460   0.06580   0.01736   0.01258  -0.01546
  81        3S         -0.06656   0.09569  -0.13889  -0.08084  -0.00899
  82        3PX         0.02674   0.03286  -0.03313  -0.06416   0.09714
  83        3PY        -0.03710  -0.05427   0.09432   0.04724  -0.02665
  84        3PZ         0.00371   0.03163   0.00688   0.00503  -0.01087
  85        4XX         0.00801  -0.00065  -0.00247  -0.00331   0.01172
  86        4YY        -0.00789  -0.00366   0.00698   0.00566  -0.01025
  87        4ZZ         0.00147   0.00080   0.00111   0.00235  -0.00121
  88        4XY        -0.00374  -0.00528   0.00809   0.00724  -0.00005
  89        4XZ         0.00148   0.00399   0.00302  -0.00301   0.00326
  90        4YZ        -0.00064  -0.00356   0.00019   0.00038   0.00062
  91 7   N  1S         -0.02272  -0.01353   0.01754   0.00237  -0.00319
  92        2S          0.06174   0.02331  -0.03215  -0.00599   0.00899
  93        2PX        -0.00322  -0.13804   0.09994  -0.11581  -0.15534
  94        2PY         0.25359  -0.00810   0.01021  -0.05608   0.00660
  95        2PZ         0.00375   0.26941   0.24081  -0.05810  -0.02231
  96        3S          0.07350   0.12701  -0.15244  -0.01230   0.01242
  97        3PX         0.01452  -0.10582   0.08469  -0.05924  -0.11490
  98        3PY         0.10718   0.02124  -0.01992  -0.02802  -0.02805
  99        3PZ         0.00590   0.17812   0.16338  -0.03928  -0.01470
 100        4XX         0.00835  -0.00331   0.00529   0.00432   0.00346
 101        4YY        -0.01750  -0.00022   0.00105  -0.00458  -0.00579
 102        4ZZ         0.00214  -0.00314   0.00167   0.00000   0.00041
 103        4XY         0.00879  -0.00391   0.00202  -0.00718   0.00918
 104        4XZ        -0.00030  -0.00351  -0.00298   0.00110  -0.00037
 105        4YZ         0.00192   0.00635   0.00580  -0.00136   0.00044
 106 8   C  1S         -0.00150   0.00483  -0.00260   0.00651   0.00199
 107        2S         -0.00489  -0.00961   0.00470  -0.01793   0.00407
 108        2PX        -0.05743   0.13197  -0.19178  -0.16473  -0.16738
 109        2PY         0.37068  -0.00762   0.00760   0.08292  -0.16180
 110        2PZ        -0.01391   0.12185   0.08178  -0.03105  -0.01275
 111        3S          0.04234  -0.06524   0.07123   0.00975  -0.03692
 112        3PX        -0.03070   0.06227  -0.08809  -0.04981  -0.07356
 113        3PY         0.10284   0.01556  -0.02248  -0.01175  -0.00066
 114        3PZ        -0.00419   0.06122   0.04351  -0.01165  -0.01081
 115        4XX        -0.00140  -0.00208   0.00451   0.00675   0.01084
 116        4YY         0.00839   0.00169  -0.00488  -0.00420  -0.01593
 117        4ZZ        -0.00093   0.00083   0.00010  -0.00035   0.00132
 118        4XY         0.01046  -0.00449   0.00656   0.01081  -0.01008
 119        4XZ        -0.00060  -0.00147  -0.00095  -0.00016   0.00140
 120        4YZ        -0.00029  -0.00789  -0.00570   0.00216   0.00082
 121 9   C  1S          0.02338  -0.00463   0.00526   0.01802  -0.02028
 122        2S         -0.04910   0.00815  -0.01117  -0.04972   0.04132
 123        2PX         0.08960  -0.02396   0.05155   0.25053   0.03146
 124        2PY        -0.27289   0.11996  -0.11565  -0.05677   0.03541
 125        2PZ         0.02586   0.15127   0.14174  -0.01289  -0.01066
 126        3S         -0.05717   0.01436  -0.01645  -0.06147   0.13035
 127        3PX         0.03062  -0.00803   0.01122   0.06824  -0.01679
 128        3PY        -0.08105   0.05123  -0.05172  -0.03503   0.00860
 129        3PZ         0.00981   0.07859   0.07182  -0.01057  -0.00723
 130        4XX         0.00172  -0.00070   0.00610   0.01793   0.01026
 131        4YY         0.00717  -0.00194  -0.00125  -0.01022  -0.01067
 132        4ZZ        -0.00062  -0.00022  -0.00081   0.00067  -0.00098
 133        4XY         0.01905  -0.00144  -0.00036  -0.00277  -0.00494
 134        4XZ        -0.00124  -0.00984  -0.00779   0.00309   0.00157
 135        4YZ         0.00041  -0.00528  -0.00458   0.00154   0.00037
 136 10  H  1S         -0.14525   0.00128   0.00548   0.00465  -0.04910
 137        2S         -0.12099   0.00353   0.00137   0.00663  -0.05076
 138 11  H  1S          0.20729   0.01162  -0.02863   0.01226  -0.15095
 139        2S          0.17765   0.00497  -0.01463   0.03020  -0.16293
 140 12  H  1S          0.03873  -0.01162   0.04206   0.15399   0.05421
 141        2S          0.03635  -0.01256   0.04208   0.16012   0.05075
 142 13  H  1S         -0.00678  -0.05801   0.05803  -0.14350  -0.08075
 143        2S         -0.00254  -0.05093   0.04507  -0.13210  -0.08056
 144 14  H  1S          0.01694   0.00714  -0.03738   0.00407  -0.07647
 145        2S          0.00567  -0.00141  -0.02574  -0.00645  -0.08400
 146 15  H  1S          0.00214  -0.04045   0.02611   0.00614  -0.00548
 147        2S          0.00103  -0.04523   0.03087   0.00376  -0.00963
 148 16  H  1S         -0.09003  -0.05757   0.10846   0.06234  -0.06737
 149        2S         -0.06058  -0.05261   0.09370   0.06596  -0.07138
                          26        27        28        29        30
                           O         O         O         O         O
     Eigenvalues --    -0.32385  -0.31496  -0.27389  -0.26313  -0.22438
   1 1   C  1S          0.01051   0.01163  -0.02664  -0.04468  -0.06829
   2        2S         -0.01594  -0.02360   0.05256   0.07969   0.15132
   3        2PX         0.17618  -0.09849  -0.15208  -0.23450   0.07883
   4        2PY         0.27194  -0.00111  -0.05941   0.22864  -0.03425
   5        2PZ        -0.02835  -0.14706   0.09872   0.12948   0.29807
   6        3S         -0.05032  -0.04294   0.08691   0.19154   0.25545
   7        3PX         0.06591  -0.05932  -0.08586  -0.13392   0.03343
   8        3PY         0.10517   0.01203  -0.02169   0.12156  -0.00981
   9        3PZ        -0.01239  -0.08930   0.06441   0.08200   0.20675
  10        4XX         0.01022  -0.00278  -0.00157   0.00394  -0.00597
  11        4YY        -0.00982  -0.00253  -0.00055  -0.01268   0.00146
  12        4ZZ         0.00197   0.01132  -0.00553  -0.00744  -0.01428
  13        4XY         0.01025  -0.00273  -0.00417  -0.00239   0.00384
  14        4XZ        -0.00734  -0.00131   0.01141   0.01303   0.00127
  15        4YZ        -0.00875   0.00232   0.00528  -0.01103  -0.00014
  16 2   C  1S          0.00659  -0.00991  -0.00139   0.03624   0.01165
[...]
  40        4XX         0.00097
  41        4YY         0.01463
  42        4ZZ        -0.02469
  43        4XY         0.01068
  44        4XZ         0.00688
  45        4YZ         0.00206
  46 4   C  1S          1.99189
  47        2S          0.71581
  48        2PX         0.70379
  49        2PY         0.76562
  50        2PZ         0.61644
  51        3S          0.37213
  52        3PX        -0.01867
  53        3PY         0.13364
  54        3PZ         0.38987
  55        4XX         0.01010
  56        4YY         0.00213
  57        4ZZ        -0.02551
  58        4XY         0.01555
  59        4XZ         0.01254
  60        4YZ         0.00652
  61 5   C  1S          1.99188
  62        2S          0.71205
  63        2PX         0.76564
  64        2PY         0.73859
  65        2PZ         0.59960
  66        3S          0.44956
  67        3PX         0.06715
  68        3PY         0.13349
  69        3PZ         0.41254
  70        4XX         0.00862
  71        4YY         0.00104
  72        4ZZ        -0.02375
  73        4XY         0.00996
  74        4XZ         0.00833
  75        4YZ         0.00489
  76 6   C  1S          1.99189
  77        2S          0.70741
  78        2PX         0.75775
  79        2PY         0.74908
  80        2PZ         0.57271
  81        3S          0.52851
  82        3PX         0.22167
  83        3PY         0.22810
  84        3PZ         0.43747
  85        4XX         0.00118
  86        4YY         0.01478
  87        4ZZ        -0.02467
  88        4XY         0.01062
  89        4XZ         0.00686
  90        4YZ         0.00200
  91 7   N  1S          1.99157
  92        2S          0.76293
  93        2PX         0.80562
  94        2PY         0.81204
  95        2PZ         0.95118
  96        3S          0.91223
  97        3PX         0.38932
  98        3PY         0.36015
  99        3PZ         0.67426
 100        4XX         0.00310
 101        4YY         0.02035
 102        4ZZ        -0.02700
 103        4XY         0.01099
 104        4XZ         0.00773
 105        4YZ         0.00322
 106 8   C  1S          1.99182
 107        2S          0.69790
 108        2PX         0.72662
 109        2PY         0.75278
 110        2PZ         0.62432
 111        3S          0.52697
 112        3PX         0.23144
 113        3PY         0.18880
 114        3PZ         0.47484
 115        4XX        -0.00088
 116        4YY         0.01574
 117        4ZZ        -0.02465
 118        4XY         0.01240
 119        4XZ         0.00543
 120        4YZ         0.00370
 121 9   C  1S          1.99170
 122        2S          0.71275
 123        2PX         0.74526
 124        2PY         0.70275
 125        2PZ         0.61353
 126        3S          0.42546
 127        3PX         0.14962
 128        3PY         0.14640
 129        3PZ         0.43768
 130        4XX         0.01879
 131        4YY         0.00015
 132        4ZZ        -0.02600
 133        4XY         0.01760
 134        4XZ         0.00352
 135        4YZ         0.01173
 136 10  H  1S          0.50722
 137        2S          0.16618
 138 11  H  1S          0.52871
 139        2S          0.34282
 140 12  H  1S          0.52967
 141        2S          0.32184
 142 13  H  1S          0.53415
 143        2S          0.34462
 144 14  H  1S          0.53246
 145        2S          0.34863
 146 15  H  1S          0.53409
 147        2S          0.34689
 148 16  H  1S          0.53309
 149        2S          0.34349
          Condensed to atoms (all electrons):
               1          2          3          4          5          6
     1  C    4.899032   0.522285  -0.028162  -0.044187  -0.003635   0.510361
     2  C    0.522285   4.873698   0.531405  -0.000143  -0.036519  -0.021852
     3  C   -0.028162   0.531405   5.059459   0.482123  -0.055137  -0.061126
     4  C   -0.044187  -0.000143   0.482123   4.723343   0.487132  -0.042713
     5  C   -0.003635  -0.036519  -0.055137   0.487132   4.681031   0.487356
     6  C    0.510361  -0.021852  -0.061126  -0.042713   0.487356   5.101014
     7  N   -0.000122   0.005291  -0.092651   0.265862  -0.047083   0.012221
     8  C    0.007903  -0.000239   0.015688  -0.026444   0.427358  -0.104035
     9  C   -0.000366   0.000002   0.003696  -0.107276  -0.001330   0.010702
    10  H   -0.000007  -0.000061  -0.004272  -0.027399   0.006757  -0.000121
    11  H   -0.000022   0.000003  -0.000158   0.007106  -0.035265  -0.005818
    12  H    0.000005   0.000001  -0.000126   0.005763   0.001963  -0.000171
    13  H   -0.039882   0.356387  -0.040526   0.002806   0.001043   0.004474
    14  H    0.004316  -0.040758   0.347536  -0.040310   0.004352   0.000543
    15  H    0.357570  -0.041556   0.004733   0.000966   0.002564  -0.039309
    16  H   -0.047150   0.004666   0.000498   0.005221  -0.041011   0.353841
               7          8          9         10         11         12
     1  C   -0.000122   0.007903  -0.000366  -0.000007  -0.000022   0.000005
     2  C    0.005291  -0.000239   0.000002  -0.000061   0.000003   0.000001
     3  C   -0.092651   0.015688   0.003696  -0.004272  -0.000158  -0.000126
     4  C    0.265862  -0.026444  -0.107276  -0.027399   0.007106   0.005763
     5  C   -0.047083   0.427358  -0.001330   0.006757  -0.035265   0.001963
     6  C    0.012221  -0.104035   0.010702  -0.000121  -0.005818  -0.000171
     7  N    6.989598  -0.077135   0.350722   0.321881   0.004305  -0.048826
     8  C   -0.077135   5.109460   0.541820   0.004764   0.366628  -0.031542
     9  C    0.350722   0.541820   4.871544  -0.032320  -0.052584   0.366400
    10  H    0.321881   0.004764  -0.032320   0.403603  -0.000100  -0.002108
    11  H    0.004305   0.366628  -0.052584  -0.000100   0.586245  -0.001171
    12  H   -0.048826  -0.031542   0.366400  -0.002108  -0.001171   0.561324
    13  H   -0.000112   0.000010   0.000002  -0.000001  -0.000000  -0.000000
    14  H   -0.006152  -0.000271  -0.000027   0.002774   0.000003   0.000002
    15  H    0.000003  -0.000169   0.000005  -0.000000  -0.000001  -0.000000
    16  H   -0.000121  -0.006583  -0.000071   0.000004   0.002358  -0.000001
              13         14         15         16
     1  C   -0.039882   0.004316   0.357570  -0.047150
     2  C    0.356387  -0.040758  -0.041556   0.004666
     3  C   -0.040526   0.347536   0.004733   0.000498
     4  C    0.002806  -0.040310   0.000966   0.005221
     5  C    0.001043   0.004352   0.002564  -0.041011
     6  C    0.004474   0.000543  -0.039309   0.353841
     7  N   -0.000112  -0.006152   0.000003  -0.000121
     8  C    0.000010  -0.000271  -0.000169  -0.006583
     9  C    0.000002  -0.000027   0.000005  -0.000071
    10  H   -0.000001   0.002774  -0.000000   0.000004
    11  H   -0.000000   0.000003  -0.000001   0.002358
    12  H   -0.000000   0.000002  -0.000000  -0.000001
    13  H    0.605647  -0.005537  -0.005350  -0.000183
    14  H   -0.005537   0.614774  -0.000177   0.000019
    15  H   -0.005350  -0.000177   0.607151  -0.005447
    16  H   -0.000183   0.000019  -0.005447   0.610540
 Mulliken charges:
               1
     1  C   -0.137940
     2  C   -0.152611
     3  C   -0.162979
     4  C    0.308150
     5  C    0.120422
     6  C   -0.205366
     7  N   -0.677682
     8  C   -0.227213
     9  C    0.049083
    10  H    0.326606
    11  H    0.128472
    12  H    0.148487
    13  H    0.121222
    14  H    0.118913
    15  H    0.119017
    16  H    0.123419
 Sum of Mulliken charges =  -0.00000
 Mulliken charges with hydrogens summed into heavy atoms:
               1
     1  C   -0.018923
     2  C   -0.031390
     3  C   -0.044065
     4  C    0.308150
     5  C    0.120422
     6  C   -0.081947
     7  N   -0.351076
     8  C   -0.098742
     9  C    0.197570
 Electronic spatial extent (au):  <R**2>=           1008.5747
 Charge=             -0.0000 electrons
 Dipole moment (field-independent basis, Debye):
    X=              1.5285    Y=             -1.5446    Z=              0.0019  Tot=              2.1730
 Quadrupole moment (field-independent basis, Debye-Ang):
   XX=            -44.2926   YY=            -43.6660   ZZ=            -56.3780
   XY=             -3.1213   XZ=              0.0028   YZ=             -0.0038
 Traceless Quadrupole moment (field-independent basis, Debye-Ang):
   XX=              3.8196   YY=              4.4462   ZZ=             -8.2658
   XY=             -3.1213   XZ=              0.0028   YZ=             -0.0038
 Octapole moment (field-independent basis, Debye-Ang**2):
  XXX=             14.8713  YYY=            -10.3967  ZZZ=              0.0010  XYY=              8.0896
  XXY=             -7.9393  XXZ=              0.0113  XZZ=              1.8131  YZZ=             -1.6895
  YYZ=              0.0062  XYZ=             -0.0087
 Hexadecapole moment (field-independent basis, Debye-Ang**3):
 XXXX=           -798.8233 YYYY=           -362.6585 ZZZZ=            -57.7074 XXXY=            -20.6063
 XXXZ=              0.0122 YYYX=            -19.4075 YYYZ=             -0.0136 ZZZX=              0.0011
 ZZZY=             -0.0027 XXYY=           -191.6354 XXZZ=           -176.5421 YYZZ=            -86.3228
 XXYZ=             -0.0159 YYXZ=              0.0081 ZZXY=             -3.1530
 N-N= 3.998541376724D+02 E-N=-1.643073862418D+03  KE= 3.602833703880D+02
 Orbital energies and kinetic energies (alpha):
                                 1                 2
   1         O               -14.375640         21.955734
   2         O               -10.215730         15.880797
   3         O               -10.212096         15.881197
   4         O               -10.182915         15.879837
   5         O               -10.177610         15.875047
   6         O               -10.177543         15.880940
   7         O               -10.177092         15.884928
   8         O               -10.172741         15.882001
   9         O               -10.170134         15.880246
  10         O                -0.972558          1.814043
  11         O                -0.829655          1.543269
  12         O                -0.774301          1.616754
  13         O                -0.727342          1.664087
  14         O                -0.709382          1.665660
  15         O                -0.617000          1.446279
  16         O                -0.588810          1.530410
  17         O                -0.574314          1.476845
  18         O                -0.533003          1.269041
  19         O                -0.476943          1.470735
  20         O                -0.464689          1.241490
  21         O                -0.430637          1.460624
  22         O                -0.423226          1.279096
  23         O                -0.412688          1.117263
  24         O                -0.404717          1.425357
  25         O                -0.385845          1.407184
  26         O                -0.349491          1.483924
  27         O                -0.329499          1.448887
  28         O                -0.325584          1.083504
  29         O                -0.270408          1.144926
  30         O                -0.214981          1.259179
  31         O                -0.198457          1.292403
  32         V                -0.002420          1.401362
  33         V                 0.034835          1.530344
  34         V                 0.076871          1.514937
  35         V                 0.080223          1.106578
  36         V                 0.109474          0.991415
  37         V                 0.136955          1.051727
  38         V                 0.148697          1.132036
  39         V                 0.168853          1.097942
  40         V                 0.182310          1.114367
  41         V                 0.189641          1.768116
  42         V                 0.191935          1.196754
  43         V                 0.228553          1.667509
  44         V                 0.257723          1.896186
  45         V                 0.274670          1.766063
  46         V                 0.308984          1.498337
  47         V                 0.340686          1.591061
  48         V                 0.355743          1.706553
  49         V                 0.393463          1.696268
  50         V                 0.432518          2.346308
  51         V                 0.506372          2.178755
  52         V                 0.525850          2.042610
  53         V                 0.530323          2.001169
  54         V                 0.533525          1.910468
  55         V                 0.564280          2.023814
  56         V                 0.567975          2.120922
  57         V                 0.576404          2.365448
  58         V                 0.596120          1.916236
  59         V                 0.596618          2.094839
  60         V                 0.608787          2.470373
  61         V                 0.622271          2.092248
  62         V                 0.626496          2.129801
  63         V                 0.631134          2.273199
  64         V                 0.633179          2.191133
  65         V                 0.653076          2.385292
  66         V                 0.657074          2.164079
  67         V                 0.701060          2.197564
  68         V                 0.716295          2.222466
  69         V                 0.779579          2.571905
  70         V                 0.815941          2.617784
  71         V                 0.819410          2.343423
  72         V                 0.825986          2.840135
  73         V                 0.844869          2.642953
  74         V                 0.854017          2.766483
  75         V                 0.855456          2.921759
  76         V                 0.868593          2.935955
  77         V                 0.893540          2.662104
  78         V                 0.914493          2.634754
  79         V                 0.945173          2.543748
  80         V                 0.976280          2.820399
  81         V                 0.983851          2.524019
  82         V                 0.986476          2.386362
  83         V                 1.054959          2.278260
  84         V                 1.073857          2.299421
  85         V                 1.125827          2.236854
  86         V                 1.138978          2.376486
  87         V                 1.209409          2.400061
  88         V                 1.244689          2.378637
  89         V                 1.261938          2.538855
  90         V                 1.302711          2.406186
  91         V                 1.334813          2.485426
  92         V                 1.353849          2.482549
  93         V                 1.378635          2.515555
  94         V                 1.426554          2.595408
  95         V                 1.438675          2.549029
  96         V                 1.471286          2.656161
  97         V                 1.479423          2.636080
  98         V                 1.501290          2.740718
  99         V                 1.510884          2.686381
 100         V                 1.515930          2.703924
 101         V                 1.559500          2.803198
 102         V                 1.610009          2.740570
 103         V                 1.756627          2.942407
 104         V                 1.809783          3.206023
 105         V                 1.827932          3.310229
 106         V                 1.897464          3.050531
 107         V                 1.897990          3.311926
 108         V                 1.917145          3.255419
 109         V                 1.952404          3.334628
 110         V                 1.965187          3.484163
 111         V                 2.006757          3.614494
 112         V                 2.008601          3.190471
 113         V                 2.055945          3.678528
 114         V                 2.102940          3.707166
 115         V                 2.136639          3.568900
 116         V                 2.146889          3.698149
 117         V                 2.176591          3.369466
 118         V                 2.230812          3.610635
 119         V                 2.253933          3.475391
 120         V                 2.264704          3.482164
 121         V                 2.270936          3.496157
 122         V                 2.283722          3.812671
 123         V                 2.386197          3.639298
 124         V                 2.390893          3.835545
 125         V                 2.412642          3.671249
 126         V                 2.489789          4.026421
 127         V                 2.568037          3.834004
 128         V                 2.593533          4.185455
 129         V                 2.625367          4.313730
 130         V                 2.673061          4.405609
 131         V                 2.677526          3.954495
 132         V                 2.724837          4.481003
 133         V                 2.775284          4.615380
 134         V                 2.803340          4.492166
 135         V                 2.841647          4.595845
 136         V                 2.901980          4.691894
 137         V                 2.967321          4.752484
 138         V                 3.081650          4.756446
 139         V                 3.228404          5.155382
 140         V                 3.441040          5.271059
 141         V                 3.997522         10.362444
 142         V                 4.100108         10.192117
 143         V                 4.114222         10.208857
 144         V                 4.161022         10.166233
 145         V                 4.210249         10.390596
 146         V                 4.329444         10.237744
 147         V                 4.407114         10.126084
 148         V                 4.460982         10.189293
 149         V                 4.767810         10.463314
 Total kinetic energy from orbitals= 3.602833703880D+02
 Unable to Open any file for archive entry.
 1\1\GINC-COMET-10-01\FOpt\RB3LYP\6-31G(d)\C8H7N1\SCAPARAS\02-Jun-2020\
 0\\#n B3LYP/6-31G(d) Opt pop=full\\IndoleJune5\\0,1\C,2.1645311722,0.7
 321561362,-0.1269916095\C,2.1530555234,-0.6781224738,-0.1010758862\C,0
 .9588179962,-1.3876287269,-0.0528916218\C,-0.2299989688,-0.6503508616,
 -0.0310477085\C,-0.2441877252,0.7732371679,-0.0562653547\C,0.982157272
 4,1.4598511434,-0.1049513372\N,-1.5447654022,-1.0697852378,0.015677532
 7\C,-1.6230619108,1.1772577865,-0.0226973114\C,-2.3774363334,0.0348741
 138,0.0198668562\H,-1.8508972984,-2.0296851894,0.0410426546\H,-2.00366
 71651,2.1894631182,-0.0294278456\H,-3.4508900986,-0.0907166709,0.05377
 50257\H,3.0946361432,-1.2201283608,-0.1194165444\H,0.950837172,-2.4745
 583745,-0.0329430843\H,3.1169675292,1.2544101487,-0.1647265723\H,1.001
 902094,2.5465862811,-0.1253971934\\Version=ES64L-G16RevC.01\State=1-A\
 HF=-363.8166833\RMSD=3.007e-09\RMSF=4.133e-05\Dipole=-0.5959132,-0.612
 3871,0.0279313\Quadrupole=2.7926058,3.3396497,-6.1322555,2.3102431,-0.
 3041458,-0.2366917\PG=C01 [X(C8H7N1)]\\@
 The archive entry for this job was punched.


 IF YOU BELIEVE CERTAIN WORDS, YOU BELIEVE THEIR HIDDEN ARGUMENTS.
 WHEN YOU BELIEVE SOMETHING IS RIGHT OR WRONG, TRUE OR FALSE, 
 YOU BELIEVE THE ASSUMPTIONS IN THE WORDS WHICH EXPRESS THE ARGUMENTS.
 SUCH ASSUMPTIONS ARE OFTEN FULL OF HOLES, BUT REMAIN MOST PRECIOUS 
 TO THE CONVINCED.

                 -- THE OPEN-ENDED PROOF FROM THE PANOPLIA PROPHETICA
                    CHILDREN OF DUNE BY FRANK HERBERT
 Job cpu time:       0 days  0 hours 10 minutes 14.3 seconds.
 Elapsed time:       0 days  0 hours 10 minutes 18.2 seconds.
 File lengths (MBytes):  RWF=     15 Int=      0 D2E=      0 Chk=      3 Scr=      1
 Normal termination of Gaussian 16 at Tue Jun  2 08:52:33 2020.
