 Entering Gaussian System, Link 0=/cm/shared/apps/spack/cpu/opt/spack/linux-centos8-zen/gcc-8.3.1/gaussian-16.C.01-po5bqktfeugvmjyga3v7eigbecnokxng/g16/g16
 Initial command:
 /cm/shared/apps/spack/cpu/opt/spack/linux-centos8-zen/gcc-8.3.1/gaussian-16.C.01-po5bqktfeugvmjyga3v7eigbecnokxng/g16/l1.exe "/scratch/scaparas/job_3660074/Gau-118810.inp" -scrdir="/scratch/scaparas/job_3660074/"
 Entering Link 1 = /cm/shared/apps/spack/cpu/opt/spack/linux-centos8-zen/gcc-8.3.1/gaussian-16.C.01-po5bqktfeugvmjyga3v7eigbecnokxng/g16/l1.exe PID=    118811.
  
 Copyright (c) 1988-2019, Gaussian, Inc.  All Rights Reserved.
  
 This is part of the Gaussian(R) 16 program.  It is based on
 the Gaussian(R) 09 system (copyright 2009, Gaussian, Inc.),
 the Gaussian(R) 03 system (copyright 2003, Gaussian, Inc.),
 the Gaussian(R) 98 system (copyright 1998, Gaussian, Inc.),
 the Gaussian(R) 94 system (copyright 1995, Gaussian, Inc.),
 the Gaussian 92(TM) system (copyright 1992, Gaussian, Inc.),
 the Gaussian 90(TM) system (copyright 1990, Gaussian, Inc.),
 the Gaussian 88(TM) system (copyright 1988, Gaussian, Inc.),
 the Gaussian 86(TM) system (copyright 1986, Carnegie Mellon
 University), and the Gaussian 82(TM) system (copyright 1983,
 Carnegie Mellon University). Gaussian is a federally registered
 trademark of Gaussian, Inc.
  
 This software contains proprietary and confidential information,
 including trade secrets, belonging to Gaussian, Inc.
  
 This software is provided under written license and may be
 used, copied, transmitted, or stored only in accord with that
 written license.
  
 The following legend is applicable only to US Government
 contracts under FAR:
  
                    RESTRICTED RIGHTS LEGEND
  
 Use, reproduction and disclosure by the US Government is
 subject to restrictions as set forth in subparagraphs (a)
 and (c) of the Commercial Computer Software - Restricted
 Rights clause in FAR 52.227-19.
  
 Gaussian, Inc.
 340 Quinnipiac St., Bldg. 40, Wallingford CT 06492
  
  
 ---------------------------------------------------------------
 Warning -- This program may not be used in any manner that
 competes with the business of Gaussian, Inc. or will provide
 assistance to any competitor of Gaussian, Inc.  The licensee
 of this program is prohibited from giving any competitor of
 Gaussian, Inc. access to this program.  By using this program,
 the user acknowledges that Gaussian, Inc. is engaged in the
 business of creating and licensing software in the field of
 computational chemistry and represents and warrants to the
 licensee that it is not a competitor of Gaussian, Inc. and that
 it will not use this program in any manner prohibited above.
 ---------------------------------------------------------------
  

 Cite this work as:
 Gaussian 16, Revision C.01,
 M. J. Frisch, G. W. Trucks, H. B. Schlegel, G. E. Scuseria, 
 M. A. Robb, J. R. Cheeseman, G. Scalmani, V. Barone, 
 G. A. Petersson, H. Nakatsuji, X. Li, M. Caricato, A. V. Marenich, 
 J. Bloino, B. G. Janesko, R. Gomperts, B. Mennucci, H. P. Hratchian, 
 J. V. Ortiz, A. F. Izmaylov, J. L. Sonnenberg, D. Williams-Young, 
 F. Ding, F. Lipparini, F. Egidi, J. Goings, B. Peng, A. Petrone, 
 T. Henderson, D. Ranasinghe, V. G. Zakrzewski, J. Gao, N. Rega, 
 G. Zheng, W. Liang, M. Hada, M. Ehara, K. Toyota, R. Fukuda, 
 J. Hasegawa, M. Ishida, T. Nakajima, Y. Honda, O. Kitao, H. Nakai, 
 T. Vreven, K. Throssell, J. A. Montgomery, Jr., J. E. Peralta, 
 F. Ogliaro, M. J. Bearpark, J. J. Heyd, E. N. Brothers, K. N. Kudin, 
 V. N. Staroverov, T. A. Keith, R. Kobayashi, J. Normand, 
 K. Raghavachari, A. P. Rendell, J. C. Burant, S. S. Iyengar, 
 J. Tomasi, M. Cossi, J. M. Millam, M. Klene, C. Adamo, R. Cammi, 
 J. W. Ochterski, R. L. Martin, K. Morokuma, O. Farkas, 
 J. B. Foresman, and D. J. Fox, Gaussian, Inc., Wallingford CT, 2019.
 
 ******************************************
 Gaussian 16:  ES64L-G16RevC.01  3-Jul-2019
                28-Jun-2021 
 ******************************************
 %nprocshared=4
 Will use up to    4 processors via shared memory.
 %chk=FuncsPBEPBE-V-2nd.chk
 %Mem=3GB
 ------------------------------------------------------------
 # td= (nstates=6, root=2) PBEPBE/6-31+G* Opt density=current
 ------------------------------------------------------------
 1/18=20,19=15,26=3,38=1/1,3;
 2/9=110,12=2,17=6,18=5,40=1/2;
 3/5=1,6=6,7=11,11=9,25=1,30=1,71=1,74=1009/1,2,3,8;
 4//1;
 5/5=2,38=5/2;
 8/6=1,10=2,107=2,108=6/1;
 9/8=2,15=2,41=6,42=1,70=2/14;
 10/5=4,28=2/2;
 6/7=2,8=2,9=2,10=2,22=-1/1;
 7/12=6,13=5,14=2/1,2,3,16;
 1/18=20,19=15,26=3/3(2);
 2/9=110/2;
 99//99;
 2/9=110/2;
 3/5=1,6=6,7=11,11=9,25=1,30=1,71=1,74=1009/1,2,3,8;
 4/5=5,16=3,69=1/1;
 5/5=2,38=5/2;
 8/6=1,10=2,107=2,108=6/1;
 9/8=2,15=2,41=6,42=1,49=4,70=2/14;
 10/5=4,28=2/2;
 7/12=6,13=5,14=2/1,2,3,16;
 1/18=20,19=15,26=3/3(-8);
 2/9=110/2;
 6/7=2,8=2,9=2,10=2,22=-1/1;
 99/9=10/99;
 -----------------
 FuncsPBEPBE-V-2nd
 -----------------
 Symbolic Z-matrix:
 Charge =  0 Multiplicity = 1
 C                    -2.15106   0.68921   0.00009 
 C                    -2.12793  -0.71582   0.00008 
 C                    -0.9323   -1.4131   -0.00001 
 C                     0.24691  -0.6702   -0.00004 
 C                     0.24819   0.7483    0. 
 C                    -0.97947   1.42353   0.00003 
 N                     1.56177  -1.07759  -0.00029 
 C                     1.62013   1.1629   -0.00016 
 C                     2.38201   0.03081   0.00025 
 H                     1.87632  -2.03001   0.00044 
 H                     1.99217   2.17301  -0.00035 
 H                     3.45255  -0.08243   0.00041 
 H                    -3.06159  -1.26202   0.00009 
 H                    -0.91725  -2.49534  -0.00007 
 H                    -3.1042    1.20079   0.00009 
 H                    -1.00935   2.50542  -0.00002 
 

 GradGradGradGradGradGradGradGradGradGradGradGradGradGradGradGradGradGrad
 Berny optimization.
 Initialization pass.
                           ----------------------------
                           !    Initial Parameters    !
                           ! (Angstroms and Degrees)  !
 --------------------------                            --------------------------
 ! Name  Definition              Value          Derivative Info.                !
 --------------------------------------------------------------------------------
 ! R1    R(1,2)                  1.4052         estimate D2E/DX2                !
 ! R2    R(1,6)                  1.3827         estimate D2E/DX2                !
 ! R3    R(1,15)                 1.0818         estimate D2E/DX2                !
 ! R4    R(2,3)                  1.3841         estimate D2E/DX2                !
 ! R5    R(2,13)                 1.0817         estimate D2E/DX2                !
 ! R6    R(3,4)                  1.3937         estimate D2E/DX2                !
 ! R7    R(3,14)                 1.0823         estimate D2E/DX2                !
 ! R8    R(4,5)                  1.4185         estimate D2E/DX2                !
 ! R9    R(4,7)                  1.3765         estimate D2E/DX2                !
 ! R10   R(5,6)                  1.4011         estimate D2E/DX2                !
 ! R11   R(5,8)                  1.4332         estimate D2E/DX2                !
 ! R12   R(6,16)                 1.0823         estimate D2E/DX2                !
 ! R13   R(7,9)                  1.3789         estimate D2E/DX2                !
 ! R14   R(7,10)                 1.003          estimate D2E/DX2                !
 ! R15   R(8,9)                  1.3646         estimate D2E/DX2                !
 ! R16   R(8,11)                 1.0764         estimate D2E/DX2                !
 ! R17   R(9,12)                 1.0765         estimate D2E/DX2                !
 ! A1    A(2,1,6)              121.1349         estimate D2E/DX2                !
 ! A2    A(2,1,15)             119.1671         estimate D2E/DX2                !
 ! A3    A(6,1,15)             119.698          estimate D2E/DX2                !
 ! A4    A(1,2,3)              121.1938         estimate D2E/DX2                !
 ! A5    A(1,2,13)             119.3846         estimate D2E/DX2                !
 ! A6    A(3,2,13)             119.4217         estimate D2E/DX2                !
 ! A7    A(2,3,4)              117.5387         estimate D2E/DX2                !
 ! A8    A(2,3,14)             121.0469         estimate D2E/DX2                !
 ! A9    A(4,3,14)             121.4144         estimate D2E/DX2                !
 ! A10   A(3,4,5)              122.2626         estimate D2E/DX2                !
 ! A11   A(3,4,7)              130.5743         estimate D2E/DX2                !
 ! A12   A(5,4,7)              107.163          estimate D2E/DX2                !
 ! A13   A(4,5,6)              118.7594         estimate D2E/DX2                !
 ! A14   A(4,5,8)              106.8666         estimate D2E/DX2                !
 ! A15   A(6,5,8)              134.374          estimate D2E/DX2                !
 ! A16   A(1,6,5)              119.1105         estimate D2E/DX2                !
 ! A17   A(1,6,16)             120.4966         estimate D2E/DX2                !
 ! A18   A(5,6,16)             120.3928         estimate D2E/DX2                !
 ! A19   A(4,7,9)              109.2874         estimate D2E/DX2                !
 ! A20   A(4,7,10)             125.4909         estimate D2E/DX2                !
 ! A21   A(9,7,10)             125.2217         estimate D2E/DX2                !
 ! A22   A(5,8,9)              107.125          estimate D2E/DX2                !
 ! A23   A(5,8,11)             127.0344         estimate D2E/DX2                !
 ! A24   A(9,8,11)             125.8405         estimate D2E/DX2                !
 ! A25   A(7,9,8)              109.5578         estimate D2E/DX2                !
 ! A26   A(7,9,12)             120.4645         estimate D2E/DX2                !
 ! A27   A(8,9,12)             129.9776         estimate D2E/DX2                !
 ! D1    D(6,1,2,3)             -0.0008         estimate D2E/DX2                !
 ! D2    D(6,1,2,13)          -179.9981         estimate D2E/DX2                !
 ! D3    D(15,1,2,3)           179.996          estimate D2E/DX2                !
 ! D4    D(15,1,2,13)           -0.0013         estimate D2E/DX2                !
 ! D5    D(2,1,6,5)             -0.0018         estimate D2E/DX2                !
 ! D6    D(2,1,6,16)           179.9965         estimate D2E/DX2                !
 ! D7    D(15,1,6,5)          -179.9986         estimate D2E/DX2                !
 ! D8    D(15,1,6,16)           -0.0003         estimate D2E/DX2                !
 ! D9    D(1,2,3,4)              0.002          estimate D2E/DX2                !
 ! D10   D(1,2,3,14)          -179.9968         estimate D2E/DX2                !
 ! D11   D(13,2,3,4)           179.9992         estimate D2E/DX2                !
 ! D12   D(13,2,3,14)            0.0005         estimate D2E/DX2                !
 ! D13   D(2,3,4,5)             -0.0005         estimate D2E/DX2                !
 ! D14   D(2,3,4,7)           -179.9911         estimate D2E/DX2                !
 ! D15   D(14,3,4,5)           179.9982         estimate D2E/DX2                !
 ! D16   D(14,3,4,7)             0.0076         estimate D2E/DX2                !
 ! D17   D(3,4,5,6)             -0.002          estimate D2E/DX2                !
 ! D18   D(3,4,5,8)           -179.9955         estimate D2E/DX2                !
 ! D19   D(7,4,5,6)            179.9905         estimate D2E/DX2                !
 ! D20   D(7,4,5,8)             -0.003          estimate D2E/DX2                !
 ! D21   D(3,4,7,9)           -179.98           estimate D2E/DX2                !
 ! D22   D(3,4,7,10)            -0.0649         estimate D2E/DX2                !
 ! D23   D(5,4,7,9)              0.0284         estimate D2E/DX2                !
 ! D24   D(5,4,7,10)           179.9434         estimate D2E/DX2                !
 ! D25   D(4,5,6,1)              0.0031         estimate D2E/DX2                !
 ! D26   D(4,5,6,16)          -179.9951         estimate D2E/DX2                !
 ! D27   D(8,5,6,1)            179.9944         estimate D2E/DX2                !
 ! D28   D(8,5,6,16)            -0.0038         estimate D2E/DX2                !
 ! D29   D(4,5,8,9)             -0.0234         estimate D2E/DX2                !
 ! D30   D(4,5,8,11)           179.9883         estimate D2E/DX2                !
 ! D31   D(6,5,8,9)            179.9846         estimate D2E/DX2                !
 ! D32   D(6,5,8,11)            -0.0037         estimate D2E/DX2                !
 ! D33   D(4,7,9,8)             -0.0444         estimate D2E/DX2                !
 ! D34   D(4,7,9,12)           179.9847         estimate D2E/DX2                !
 ! D35   D(10,7,9,8)          -179.9597         estimate D2E/DX2                !
 ! D36   D(10,7,9,12)            0.0693         estimate D2E/DX2                !
 ! D37   D(5,8,9,7)              0.0414         estimate D2E/DX2                !
 ! D38   D(5,8,9,12)          -179.9913         estimate D2E/DX2                !
 ! D39   D(11,8,9,7)          -179.9702         estimate D2E/DX2                !
 ! D40   D(11,8,9,12)           -0.0029         estimate D2E/DX2                !
 --------------------------------------------------------------------------------
 Trust Radius=3.00D-01 FncErr=1.00D-07 GrdErr=1.00D-06 EigMax=2.50D+02 EigMin=1.00D-04
 Number of steps in this run=     94 maximum allowed number of steps=    100.
 GradGradGradGradGradGradGradGradGradGradGradGradGradGradGradGradGradGrad

                          Input orientation:                          
 ---------------------------------------------------------------------
 Center     Atomic      Atomic             Coordinates (Angstroms)
 Number     Number       Type             X           Y           Z
 ---------------------------------------------------------------------
      1          6           0       -2.151063    0.689208    0.000088
      2          6           0       -2.127927   -0.715818    0.000075
      3          6           0       -0.932297   -1.413100   -0.000011
      4          6           0        0.246911   -0.670201   -0.000042
      5          6           0        0.248193    0.748299    0.000000
      6          6           0       -0.979474    1.423526    0.000032
      7          7           0        1.561774   -1.077592   -0.000285
      8          6           0        1.620133    1.162900   -0.000157
      9          6           0        2.382013    0.030806    0.000248
     10          1           0        1.876315   -2.030011    0.000438
     11          1           0        1.992173    2.173010   -0.000348
     12          1           0        3.452549   -0.082425    0.000408
     13          1           0       -3.061594   -1.262020    0.000088
     14          1           0       -0.917252   -2.495342   -0.000073
     15          1           0       -3.104203    1.200785    0.000090
     16          1           0       -1.009348    2.505421   -0.000015
 ---------------------------------------------------------------------
                    Distance matrix (angstroms):
                    1          2          3          4          5
     1  C    0.000000
     2  C    1.405216   0.000000
     3  C    2.430039   1.384100   0.000000
     4  C    2.756496   2.375276   1.393711   0.000000
     5  C    2.399984   2.790983   2.462763   1.418501   0.000000
     6  C    1.382694   2.428114   2.837018   2.426461   1.401106
     7  N    4.111781   3.707395   2.516536   1.376529   2.249305
     8  C    3.800829   4.192557   3.626386   2.290414   1.433218
     9  C    4.580641   4.571324   3.615178   2.247236   2.251218
    10  H    4.859416   4.214387   2.875566   2.122273   3.220216
    11  H    4.400917   5.031953   4.627387   3.336134   2.251948
    12  H    5.656491   5.616307   4.582311   3.259079   3.310287
    13  H    2.153220   1.081698   2.134650   3.361020   3.872476
    14  H    3.415208   2.152310   1.082347   2.164813   3.446661
    15  H    1.081752   2.150926   3.398466   3.838040   3.382795
    16  H    2.145261   3.409927   3.919278   3.415079   2.160761
                    6          7          8          9         10
     6  C    0.000000
     7  N    3.565604   0.000000
     8  C    2.612639   2.241252   0.000000
     9  C    3.638580   1.378890   1.364587   0.000000
    10  H    4.481345   1.003015   3.203172   2.121956   0.000000
    11  H    3.064704   3.278972   1.076446   2.177387   4.204618
    12  H    4.680888   2.136677   2.215532   1.076508   2.505515
    13  H    3.398144   4.627045   5.272457   5.595021   4.997275
    14  H    3.919362   2.855798   4.452085   4.155307   2.832058
    15  H    2.136372   5.192528   4.724488   5.609583   5.936632
    16  H    1.082307   4.410062   2.952378   4.198220   5.375611
                   11         12         13         14         15
    11  H    0.000000
    12  H    2.686947   0.000000
    13  H    6.110646   6.620083   0.000000
    14  H    5.500751   4.991726   2.473719   0.000000
    15  H    5.188282   6.681139   2.463174   4.294661   0.000000
    16  H    3.019872   5.158049   4.290143   5.001611   2.467892
                   16
    16  H    0.000000
 Stoichiometry    C8H7N
 Framework group  C1[X(C8H7N)]
 Deg. of freedom    42
 Full point group                 C1      NOp   1
 Largest Abelian subgroup         C1      NOp   1
 Largest concise Abelian subgroup C1      NOp   1
                         Standard orientation:                         
 ---------------------------------------------------------------------
 Center     Atomic      Atomic             Coordinates (Angstroms)
 Number     Number       Type             X           Y           Z
 ---------------------------------------------------------------------
      1          6           0       -2.151063    0.689208    0.000088
      2          6           0       -2.127927   -0.715818    0.000075
      3          6           0       -0.932297   -1.413100   -0.000011
      4          6           0        0.246911   -0.670201   -0.000042
      5          6           0        0.248193    0.748299    0.000000
      6          6           0       -0.979474    1.423526    0.000032
      7          7           0        1.561774   -1.077592   -0.000285
      8          6           0        1.620133    1.162900   -0.000157
      9          6           0        2.382013    0.030806    0.000248
     10          1           0        1.876315   -2.030011    0.000438
     11          1           0        1.992173    2.173010   -0.000348
     12          1           0        3.452549   -0.082425    0.000408
     13          1           0       -3.061594   -1.262020    0.000088
     14          1           0       -0.917252   -2.495342   -0.000073
     15          1           0       -3.104203    1.200785    0.000090
     16          1           0       -1.009348    2.505421   -0.000015
 ---------------------------------------------------------------------
 Rotational constants (GHZ):           3.9080822           1.6429452           1.1566805
 Standard basis: 6-31+G(d) (6D, 7F)
 There are   185 symmetry adapted cartesian basis functions of A   symmetry.
 There are   185 symmetry adapted basis functions of A   symmetry.
   185 basis functions,   316 primitive gaussians,   185 cartesian basis functions
    31 alpha electrons       31 beta electrons
       nuclear repulsion energy       401.3368668897 Hartrees.
 NAtoms=   16 NActive=   16 NUniq=   16 SFac= 1.00D+00 NAtFMM=   60 NAOKFM=F Big=F
 Integral buffers will be    131072 words long.
 Regular integral format.
 Two-electron integral symmetry is turned on.
 One-electron integrals computed using PRISM.
 NBasis=   185 RedAO= T EigKep=  1.26D-06  NBF=   185
 NBsUse=   185 1.00D-06 EigRej= -1.00D+00 NBFU=   185
 ExpMin= 4.38D-02 ExpMax= 4.17D+03 ExpMxC= 6.27D+02 IAcc=3 IRadAn=         5 AccDes= 0.00D+00
 Harris functional with IExCor= 1009 and IRadAn=       5 diagonalized for initial guess.
 HarFok:  IExCor= 1009 AccDes= 0.00D+00 IRadAn=         5 IDoV= 1 UseB2=F ITyADJ=14
 ICtDFT=  3500011 ScaDFX=  1.000000  1.000000  1.000000  1.000000
 FoFCou: FMM=F IPFlag=           0 FMFlag=      100000 FMFlg1=           0
         NFxFlg=           0 DoJE=T BraDBF=F KetDBF=T FulRan=T
         wScrn=  0.000000 ICntrl=       500 IOpCl=  0 I1Cent=   200000004 NGrid=           0
         NMat0=    1 NMatS0=      1 NMatT0=    0 NMatD0=    1 NMtDS0=    0 NMtDT0=    0
 Petite list used in FoFCou.
 Keep J ints in memory in canonical form, NReq=152071459.
 Requested convergence on RMS density matrix=1.00D-08 within 128 cycles.
 Requested convergence on MAX density matrix=1.00D-06.
 Requested convergence on             energy=1.00D-06.
 No special actions if energy rises.
 SCF Done:  E(RPBE-PBE) =  -363.370217365     A.U. after   15 cycles
            NFock= 15  Conv=0.85D-08     -V/T= 2.0091
 DoSCS=F DFT=T ScalE2(SS,OS)=  1.000000  1.000000
 ExpMin= 4.38D-02 ExpMax= 4.17D+03 ExpMxC= 6.27D+02 IAcc=3 IRadAn=         5 AccDes= 0.00D+00
 HarFok:  IExCor=  205 AccDes= 0.00D+00 IRadAn=         5 IDoV=-2 UseB2=F ITyADJ=14
 ICtDFT= 12500011 ScaDFX=  1.000000  1.000000  1.000000  1.000000
 Range of M.O.s used for correlation:    10   185
 NBasis=   185 NAE=    31 NBE=    31 NFC=     9 NFV=     0
 NROrb=    176 NOA=    22 NOB=    22 NVA=   154 NVB=   154

 **** Warning!!: The largest alpha MO coefficient is  0.19938061D+03

 Keep J ints in memory in canonical form, NReq=168659827.
 Orbital symmetries:
       Occupied  (A) (A) (A) (A) (A) (A) (A) (A) (A) (A) (A) (A)
                 (A) (A) (A) (A) (A) (A) (A) (A) (A) (A) (A) (A)
                 (A) (A) (A) (A) (A) (A) (A)
       Virtual   (A) (A) (A) (A) (A) (A) (A) (A) (A) (A) (A) (A)
                 (A) (A) (A) (A) (A) (A) (A) (A) (A) (A) (A) (A)
                 (A) (A) (A) (A) (A) (A) (A) (A) (A) (A) (A) (A)
                 (A) (A) (A) (A) (A) (A) (A) (A) (A) (A) (A) (A)
                 (A) (A) (A) (A) (A) (A) (A) (A) (A) (A) (A) (A)
                 (A) (A) (A) (A) (A) (A) (A) (A) (A) (A) (A) (A)
                 (A) (A) (A) (A) (A) (A) (A) (A) (A) (A) (A) (A)
                 (A) (A) (A) (A) (A) (A) (A) (A) (A) (A) (A) (A)
                 (A) (A) (A) (A) (A) (A) (A) (A) (A) (A) (A) (A)
                 (A) (A) (A) (A) (A) (A) (A) (A) (A) (A) (A) (A)
                 (A) (A) (A) (A) (A) (A) (A) (A) (A) (A) (A) (A)
                 (A) (A) (A) (A) (A) (A) (A) (A) (A) (A) (A) (A)
                 (A) (A) (A) (A) (A) (A) (A) (A) (A) (A)
    24 initial guesses have been made.
 Convergence on wavefunction:    0.000001000000000
 Iteration     1 Dimension    24 NMult     0 NNew     24
 CISAX will form    24 AO SS matrices at one time.
 New state      1 was old state      3
 New state      2 was old state      1
 New state      3 was old state      2
 New state      4 was old state      5
 New state      5 was old state      6
 New state      6 was old state      8
 Iteration     2 Dimension    48 NMult    24 NNew     24
 New state      1 was old state      2
 New state      2 was old state      1
 Iteration     3 Dimension    54 NMult    48 NNew      6
 Iteration     4 Dimension    60 NMult    54 NNew      6
 Iteration     5 Dimension    66 NMult    60 NNew      6
 Iteration     6 Dimension    72 NMult    66 NNew      6
 Iteration     7 Dimension    78 NMult    72 NNew      6
 Iteration     8 Dimension    84 NMult    78 NNew      6
 Iteration     9 Dimension    90 NMult    84 NNew      6
 Iteration    10 Dimension    96 NMult    90 NNew      6
 Iteration    11 Dimension   102 NMult    96 NNew      6
 Iteration    12 Dimension   108 NMult   102 NNew      6
 Iteration    13 Dimension   114 NMult   108 NNew      6
 Iteration    14 Dimension   120 NMult   114 NNew      6
 Iteration    15 Dimension   126 NMult   120 NNew      6
 Iteration    16 Dimension   129 NMult   126 NNew      3
 Iteration    17 Dimension   134 NMult   129 NNew      5
 Iteration    18 Dimension   138 NMult   134 NNew      4
 Iteration    19 Dimension   139 NMult   138 NNew      1
 Iteration    20 Dimension   140 NMult   139 NNew      1
 Iteration    21 Dimension   141 NMult   140 NNew      1
 ***********************************************************************
 Excited states from <AA,BB:AA,BB> singles matrix:
 ***********************************************************************
 
 Ground to excited state transition densities written to RWF  633
 Ground to excited state transition electric dipole moments (Au):
       state          X           Y           Z        Dip. S.      Osc.
         1        -0.4640      0.5297     -0.0002      0.4958      0.0540
         2         0.0007     -0.0010     -0.1055      0.0111      0.0012
         3        -0.3910     -0.1218     -0.0000      0.1677      0.0193
         4        -0.0002      0.0002     -0.1278      0.0163      0.0020
         5        -0.0003      0.0000     -0.0110      0.0001      0.0000
         6        -0.0004     -0.0001     -0.0975      0.0095      0.0012
 Ground to excited state transition velocity dipole moments (Au):
       state          X           Y           Z        Dip. S.      Osc.
         1         0.0675     -0.0948      0.0000      0.0135      0.0553
         2        -0.0001      0.0002      0.0092      0.0001      0.0003
         3         0.0634      0.0221      0.0000      0.0045      0.0174
         4         0.0000     -0.0000      0.0245      0.0006      0.0022
         5         0.0001     -0.0000      0.0007      0.0000      0.0000
         6         0.0001      0.0000      0.0191      0.0004      0.0012
 Ground to excited state transition magnetic dipole moments (Au):
       state          X           Y           Z
         1         0.0003     -0.0000      0.2138
         2         0.1112     -0.0333     -0.0001
         3        -0.0001     -0.0002      0.0093
         4         0.0078     -0.1802      0.0000
         5        -0.2694      0.0902     -0.0002
         6        -0.0432     -0.3235     -0.0003
 Ground to excited state transition velocity quadrupole moments (Au):
       state          XX          YY          ZZ          XY          XZ          YZ
         1         0.1466     -0.0877      0.0107      0.0701      0.0001      0.0001
         2        -0.0003      0.0001      0.0001     -0.0000      0.0306      0.0503
         3         0.0510     -0.0824      0.0241      0.0103      0.0001     -0.0001
         4        -0.0000      0.0001     -0.0000     -0.0000      0.1131     -0.0468
         5         0.0001      0.0001     -0.0000     -0.0001     -0.1105     -0.2012
         6        -0.0001      0.0001     -0.0000     -0.0001      0.2801      0.0230
 <0|del|b> * <b|rxdel|0> + <0|del|b> * <b|delr+rdel|0>
 Rotatory Strengths (R) in cgs (10**-40 erg-esu-cm/Gauss)
       state          XX          YY          ZZ    R(velocity)    E-M Angle
         1         0.0380      0.0723      0.0238      0.0447       90.00
         2        -0.0267     -0.0350     -0.0138     -0.0252       90.00
         3        -0.0109     -0.0268     -0.0118     -0.0165       90.00
         4         0.0228     -0.0007      0.0101      0.0107       90.00
         5        -0.0040     -0.0504     -0.0069     -0.0204       90.00
         6        -0.0325     -0.0085     -0.0093     -0.0168       90.00
 1/2[<0|r|b>*<b|rxdel|0> + (<0|rxdel|b>*<b|r|0>)*]
 Rotatory Strengths (R) in cgs (10**-40 erg-esu-cm/Gauss)
       state          XX          YY          ZZ     R(length)
         1         0.1141      0.0120      0.0337      0.0533
         2        -0.0561     -0.0231     -0.0066     -0.0286
         3        -0.0362     -0.0153      0.0003     -0.0171
         4         0.0012      0.0267      0.0039      0.0106
         5        -0.0619     -0.0031     -0.0013     -0.0221
         6        -0.0112     -0.0305     -0.0218     -0.0212
  1/2[<0|del|b>*<b|r|0> + (<0|r|b>*<b|del|0>)*] (Au)
       state          X           Y           Z        Dip. S.   Osc.(frdel)
         1        -0.0313     -0.0502     -0.0000      0.0815      0.0543
         2        -0.0000     -0.0000     -0.0010      0.0010      0.0006
         3        -0.0248     -0.0027     -0.0000      0.0275      0.0183
         4        -0.0000     -0.0000     -0.0031      0.0031      0.0021
         5        -0.0000     -0.0000     -0.0000      0.0000      0.0000
         6        -0.0000     -0.0000     -0.0019      0.0019      0.0012

 Excitation energies and oscillator strengths:
 
 Excited State   1:      Singlet-A      4.4430 eV  279.05 nm  f=0.0540  <S**2>=0.000
      29 -> 32         0.13623
      30 -> 34         0.11724
      31 -> 32         0.66186
 
 Excited State   2:      Singlet-A      4.5725 eV  271.15 nm  f=0.0012  <S**2>=0.000
      31 -> 33         0.70692
 This state for optimization and/or second-order correction.
 Total Energy, E(TD-HF/TD-DFT) =  -363.202179373    
 Copying the excited state density for this state as the 1-particle RhoCI density.
 
 Excited State   3:      Singlet-A      4.7004 eV  263.77 nm  f=0.0193  <S**2>=0.000
      30 -> 32         0.55217
      31 -> 34        -0.43453
 
 Excited State   4:      Singlet-A      5.0223 eV  246.87 nm  f=0.0020  <S**2>=0.000
      30 -> 33         0.70671
 
 Excited State   5:      Singlet-A      5.1168 eV  242.31 nm  f=0.0000  <S**2>=0.000
      31 -> 35         0.70668
 
 Excited State   6:      Singlet-A      5.2968 eV  234.07 nm  f=0.0012  <S**2>=0.000
      31 -> 36         0.70686
 SavETr:  write IOETrn=   770 NScale= 10 NData=  16 NLR=1 NState=    6 LETran=     118.
          IDoAtm=1111111111111111
          Differentiating once with respect to electric field.
                with respect to dipole field.
          Differentiating once with respect to nuclear coordinates.
 Keep J ints in memory in canonical form, NReq=152083851.
          There are     1 degrees of freedom in the 1st order CPHF.  IDoFFX=0 NUNeed=     1.
 LinEq1:  Iter=  0 NonCon=     1 RMS=1.66D-02 Max=5.80D-01 NDo=     1
 AX will form     1 AO Fock derivatives at one time.
 LinEq1:  Iter=  1 NonCon=     1 RMS=1.28D-02 Max=3.56D-01 NDo=     1
 LinEq1:  Iter=  2 NonCon=     1 RMS=9.94D-03 Max=1.81D-01 NDo=     1
 LinEq1:  Iter=  3 NonCon=     1 RMS=6.59D-03 Max=1.89D-01 NDo=     1
 LinEq1:  Iter=  4 NonCon=     1 RMS=5.27D-03 Max=9.00D-02 NDo=     1
 LinEq1:  Iter=  5 NonCon=     1 RMS=2.69D-03 Max=6.64D-02 NDo=     1
 LinEq1:  Iter=  6 NonCon=     1 RMS=1.66D-03 Max=3.35D-02 NDo=     1
 LinEq1:  Iter=  7 NonCon=     1 RMS=1.34D-03 Max=3.34D-02 NDo=     1
 LinEq1:  Iter=  8 NonCon=     1 RMS=6.28D-04 Max=5.69D-03 NDo=     1
 LinEq1:  Iter=  9 NonCon=     1 RMS=2.57D-04 Max=8.17D-03 NDo=     1
 LinEq1:  Iter= 10 NonCon=     1 RMS=2.10D-04 Max=3.71D-03 NDo=     1
 LinEq1:  Iter= 11 NonCon=     1 RMS=6.79D-05 Max=1.21D-03 NDo=     1
 LinEq1:  Iter= 12 NonCon=     1 RMS=5.21D-05 Max=9.26D-04 NDo=     1
 LinEq1:  Iter= 13 NonCon=     1 RMS=1.37D-05 Max=2.17D-04 NDo=     1
 LinEq1:  Iter= 14 NonCon=     1 RMS=7.29D-06 Max=1.34D-04 NDo=     1
 LinEq1:  Iter= 15 NonCon=     1 RMS=3.62D-06 Max=3.68D-05 NDo=     1
 LinEq1:  Iter= 16 NonCon=     1 RMS=7.55D-07 Max=6.08D-06 NDo=     1
 LinEq1:  Iter= 17 NonCon=     1 RMS=2.62D-07 Max=6.07D-06 NDo=     1
 LinEq1:  Iter= 18 NonCon=     1 RMS=1.70D-07 Max=2.71D-06 NDo=     1
 LinEq1:  Iter= 19 NonCon=     1 RMS=3.07D-08 Max=4.14D-07 NDo=     1
 LinEq1:  Iter= 20 NonCon=     1 RMS=4.91D-09 Max=6.68D-08 NDo=     1
 LinEq1:  Iter= 21 NonCon=     1 RMS=1.03D-09 Max=1.20D-08 NDo=     1
 LinEq1:  Iter= 22 NonCon=     1 RMS=3.14D-10 Max=3.38D-09 NDo=     1
 LinEq1:  Iter= 23 NonCon=     1 RMS=9.49D-11 Max=1.24D-09 NDo=     1
 LinEq1:  Iter= 24 NonCon=     0 RMS=1.66D-11 Max=1.67D-10 NDo=     1
 Linear equations converged to 1.000D-10 1.000D-09 after    24 iterations.
 End of Minotr F.D. properties file   721 does not exist.
 End of Minotr F.D. properties file   722 does not exist.
 End of Minotr F.D. properties file   788 does not exist.

 **********************************************************************

            Population analysis using the CI Density.

 **********************************************************************

 Orbital symmetries:
       Occupied  (A) (A) (A) (A) (A) (A) (A) (A) (A) (A) (A) (A)
                 (A) (A) (A) (A) (A) (A) (A) (A) (A) (A) (A) (A)
                 (A) (A) (A) (A) (A) (A) (A)
       Virtual   (A) (A) (A) (A) (A) (A) (A) (A) (A) (A) (A) (A)
                 (A) (A) (A) (A) (A) (A) (A) (A) (A) (A) (A) (A)
                 (A) (A) (A) (A) (A) (A) (A) (A) (A) (A) (A) (A)
                 (A) (A) (A) (A) (A) (A) (A) (A) (A) (A) (A) (A)
                 (A) (A) (A) (A) (A) (A) (A) (A) (A) (A) (A) (A)
                 (A) (A) (A) (A) (A) (A) (A) (A) (A) (A) (A) (A)
                 (A) (A) (A) (A) (A) (A) (A) (A) (A) (A) (A) (A)
                 (A) (A) (A) (A) (A) (A) (A) (A) (A) (A) (A) (A)
                 (A) (A) (A) (A) (A) (A) (A) (A) (A) (A) (A) (A)
                 (A) (A) (A) (A) (A) (A) (A) (A) (A) (A) (A) (A)
                 (A) (A) (A) (A) (A) (A) (A) (A) (A) (A) (A) (A)
                 (A) (A) (A) (A) (A) (A) (A) (A) (A) (A) (A) (A)
                 (A) (A) (A) (A) (A) (A) (A) (A) (A) (A)
 The electronic state is 1-A.
 Alpha  occ. eigenvalues --  -14.05708  -9.93305  -9.93169  -9.90258  -9.89891
 Alpha  occ. eigenvalues --   -9.89660  -9.89650  -9.89216  -9.89074  -0.90542
 Alpha  occ. eigenvalues --   -0.76638  -0.71393  -0.66877  -0.65121  -0.56788
 Alpha  occ. eigenvalues --   -0.54022  -0.52668  -0.48949  -0.43484  -0.42254
 Alpha  occ. eigenvalues --   -0.39236  -0.38309  -0.37935  -0.36548  -0.34801
 Alpha  occ. eigenvalues --   -0.31209  -0.29870  -0.29344  -0.24908  -0.20074
 Alpha  occ. eigenvalues --   -0.18387
 Alpha virt. eigenvalues --   -0.04211  -0.01595  -0.00809   0.00434   0.01114
 Alpha virt. eigenvalues --    0.02025   0.02619   0.02835   0.04546   0.04750
 Alpha virt. eigenvalues --    0.05446   0.05703   0.07275   0.07519   0.09505
 Alpha virt. eigenvalues --    0.09813   0.09941   0.11230   0.12031   0.12452
 Alpha virt. eigenvalues --    0.14085   0.14127   0.14704   0.14998   0.15713
 Alpha virt. eigenvalues --    0.16212   0.16922   0.17020   0.18021   0.18244
 Alpha virt. eigenvalues --    0.18410   0.18530   0.20151   0.20566   0.21466
 Alpha virt. eigenvalues --    0.22079   0.22080   0.22764   0.23768   0.24210
 Alpha virt. eigenvalues --    0.25472   0.25822   0.26139   0.27196   0.27539
 Alpha virt. eigenvalues --    0.28344   0.29458   0.30782   0.32512   0.33746
 Alpha virt. eigenvalues --    0.34645   0.36776   0.39105   0.41428   0.47437
 Alpha virt. eigenvalues --    0.53699   0.57742   0.63098   0.63753   0.65603
 Alpha virt. eigenvalues --    0.67255   0.67762   0.68547   0.69290   0.69502
 Alpha virt. eigenvalues --    0.70883   0.70991   0.73257   0.74690   0.75211
 Alpha virt. eigenvalues --    0.76924   0.80767   0.84440   0.85049   0.86178
 Alpha virt. eigenvalues --    0.88594   0.89163   0.90343   0.90717   0.93455
 Alpha virt. eigenvalues --    0.95190   0.98301   1.00176   1.01118   1.05157
 Alpha virt. eigenvalues --    1.06737   1.06947   1.12471   1.13310   1.15802
 Alpha virt. eigenvalues --    1.17607   1.17905   1.20268   1.25946   1.26520
 Alpha virt. eigenvalues --    1.27999   1.31824   1.35102   1.36635   1.39536
 Alpha virt. eigenvalues --    1.39765   1.40341   1.43302   1.43817   1.48540
 Alpha virt. eigenvalues --    1.53232   1.59241   1.72287   1.77738   1.81410
 Alpha virt. eigenvalues --    1.82355   1.85246   1.88117   1.92329   1.92677
 Alpha virt. eigenvalues --    1.93464   1.99070   2.02679   2.07097   2.09959
 Alpha virt. eigenvalues --    2.10142   2.12564   2.17465   2.18719   2.19212
 Alpha virt. eigenvalues --    2.21598   2.24318   2.30602   2.33325   2.37395
 Alpha virt. eigenvalues --    2.47394   2.48075   2.56278   2.58440   2.59238
 Alpha virt. eigenvalues --    2.62189   2.65832   2.73176   2.77050   2.77860
 Alpha virt. eigenvalues --    2.87785   2.90407   3.02962   3.15961   3.36459
 Alpha virt. eigenvalues --    4.05895   4.17268   4.20266   4.23706   4.27257
 Alpha virt. eigenvalues --    4.30762   4.39122   4.43025   4.69885
          Condensed to atoms (all electrons):
               1          2          3          4          5          6
     1  C   24.823608   6.190544  -2.579683 -17.890710 -11.283418  -9.697626
     2  C    6.190544  31.075782   2.803512 -30.314207  12.853401 -28.608275
     3  C   -2.579683   2.803512  25.995567   4.017757 -11.496526 -10.483469
     4  C  -17.890710 -30.314207   4.017757 100.905545 -24.982298  25.488562
     5  C  -11.283418  12.853401 -11.496526 -24.982298  95.238806 -26.357345
     6  C   -9.697626 -28.608275 -10.483469  25.488562 -26.357345  62.983888
     7  N   -0.194054  -0.953086   3.101607   5.097821  -5.443326   0.559588
     8  C   25.256353  22.083376 -14.357656-100.113616 -39.478083  -7.258152
     9  C   -9.056381  -8.613235   8.769023  45.059886  14.951301  -0.418912
    10  H   -0.016168  -0.043504  -0.997686  -0.177572   1.385553   0.103861
    11  H    0.002652   0.004402   0.006818   0.072313  -0.063722  -0.049369
    12  H    0.007920   0.003519   0.038001   0.111662  -0.304906   0.017417
    13  H    0.049142   0.142178   0.000309   0.105237  -0.071520   0.083045
    14  H   -0.038194   0.143093  -0.022336   0.061912   0.193457  -0.027310
    15  H    0.313793   0.102656   0.040448  -0.083247   0.074412  -0.169358
    16  H    0.043916   0.014982  -0.053222  -0.018159   0.072875   0.293052
               7          8          9         10         11         12
     1  C   -0.194054  25.256353  -9.056381  -0.016168   0.002652   0.007920
     2  C   -0.953086  22.083376  -8.613235  -0.043504   0.004402   0.003519
     3  C    3.101607 -14.357656   8.769023  -0.997686   0.006818   0.038001
     4  C    5.097821-100.113616  45.059886  -0.177572   0.072313   0.111662
     5  C   -5.443326 -39.478083  14.951301   1.385553  -0.063722  -0.304906
     6  C    0.559588  -7.258152  -0.418912   0.103861  -0.049369   0.017417
     7  N   12.341265 -19.325835  11.999908  -0.771092   0.004530  -0.086523
     8  C  -19.325835 273.922054-133.478972   2.052730   0.386809   0.799046
     9  C   11.999908-133.478972  75.875700  -1.380857  -0.067963  -0.264373
    10  H   -0.771092   2.052730  -1.380857   0.476328  -0.000018   0.003178
    11  H    0.004530   0.386809  -0.067963  -0.000018   0.464371  -0.001255
    12  H   -0.086523   0.799046  -0.264373   0.003178  -0.001255   0.397997
    13  H    0.001856  -0.022436   0.009743  -0.000016   0.000000  -0.000000
    14  H   -0.032692   0.044218  -0.018861   0.001745   0.000001   0.000003
    15  H   -0.000442   0.030337  -0.006752   0.000001  -0.000001  -0.000000
    16  H   -0.000148  -0.100271   0.025454   0.000000   0.001446  -0.000002
              13         14         15         16
     1  C    0.049142  -0.038194   0.313793   0.043916
     2  C    0.142178   0.143093   0.102656   0.014982
     3  C    0.000309  -0.022336   0.040448  -0.053222
     4  C    0.105237   0.061912  -0.083247  -0.018159
     5  C   -0.071520   0.193457   0.074412   0.072875
     6  C    0.083045  -0.027310  -0.169358   0.293052
     7  N    0.001856  -0.032692  -0.000442  -0.000148
     8  C   -0.022436   0.044218   0.030337  -0.100271
     9  C    0.009743  -0.018861  -0.006752   0.025454
    10  H   -0.000016   0.001745   0.000001   0.000000
    11  H    0.000000   0.000001  -0.000001   0.001446
    12  H   -0.000000   0.000003  -0.000000  -0.000002
    13  H    0.487609  -0.004318  -0.005006  -0.000140
    14  H   -0.004318   0.428103  -0.000113   0.000016
    15  H   -0.005006  -0.000113   0.496109  -0.004791
    16  H   -0.000140   0.000016  -0.004791   0.500937
 Mulliken charges:
               1
     1  C    0.068306
     2  C   -0.885138
     3  C    1.217536
     4  C   -1.340885
     5  C    0.711340
     6  C   -0.459595
     7  N    0.700624
     8  C   -4.439904
     9  C    2.615290
    10  H    0.363518
    11  H    0.238987
    12  H    0.278318
    13  H    0.224318
    14  H    0.271276
    15  H    0.211955
    16  H    0.224054
 Sum of Mulliken charges =   0.00000
 Mulliken charges with hydrogens summed into heavy atoms:
               1
     1  C    0.280262
     2  C   -0.660820
     3  C    1.488812
     4  C   -1.340885
     5  C    0.711340
     6  C   -0.235541
     7  N    1.064142
     8  C   -4.200917
     9  C    2.893608
 Electronic spatial extent (au):  <R**2>=           1039.2080
 Charge=             -0.0000 electrons
 Dipole moment (field-independent basis, Debye):
    X=             -5.8611    Y=              6.9359    Z=              0.0013  Tot=              9.0807
 Quadrupole moment (field-independent basis, Debye-Ang):
   XX=            -63.2048   YY=            -66.9676   ZZ=            -64.2103
   XY=             15.9088   XZ=              0.0012   YZ=             -0.0015
 Traceless Quadrupole moment (field-independent basis, Debye-Ang):
   XX=              1.5894   YY=             -2.1733   ZZ=              0.5839
   XY=             15.9088   XZ=              0.0012   YZ=             -0.0015
 Octapole moment (field-independent basis, Debye-Ang**2):
  XXX=           -106.3496  YYY=             87.0924  ZZZ=              0.0060  XYY=            -46.7853
  XXY=             51.9344  XXZ=             -0.0003  XZZ=            -16.7069  YZZ=             18.6161
  YYZ=              0.0085  XYZ=              0.0024
 Hexadecapole moment (field-independent basis, Debye-Ang**3):
 XXXX=          -1309.5427 YYYY=           -739.1516 ZZZZ=           -127.4824 XXXY=            202.7725
 XXXZ=              0.0162 YYYX=            143.6742 YYYZ=             -0.0180 ZZZX=              0.0068
 ZZZY=             -0.0053 XXYY=           -353.6892 XXZZ=           -242.2591 YYZZ=           -150.6321
 XXYZ=              0.0180 YYXZ=             -0.0173 ZZXY=             34.6580
 N-N= 4.013368668897D+02 E-N=-1.641287328157D+03  KE= 3.600867639531D+02
 Calling FoFJK, ICntrl=  10005527 FMM=F ISym2X=0 I1Cent= 0 IOpClX= 0 NMat=1 NMatS=1 NMatT=0.
 ***** Axes restored to original set *****
 -------------------------------------------------------------------
 Center     Atomic                   Forces (Hartrees/Bohr)
 Number     Number              X              Y              Z
 -------------------------------------------------------------------
      1        6          -0.015914964   -0.014259928   -0.000002873
      2        6          -0.017503523    0.022380072    0.000005930
      3        6           0.025569124   -0.009121752   -0.000016618
      4        6          -0.004030633   -0.002320750   -0.000007239
      5        6           0.007673891    0.002110795   -0.000033636
      6        6           0.008842186    0.011835772   -0.000009545
      7        7           0.014741930    0.065168888    0.000080212
      8        6          -0.037011802    0.026305199    0.000039665
      9        6          -0.003301679   -0.063385993   -0.000087661
     10        1           0.018205227   -0.044813661    0.000007603
     11        1           0.003679436    0.010357103    0.000004260
     12        1           0.012392229   -0.005084237    0.000005953
     13        1          -0.007544121   -0.004393467    0.000002579
     14        1           0.002396240   -0.007901926    0.000003490
     15        1          -0.007815973    0.004328601    0.000002339
     16        1          -0.000377568    0.008795286    0.000005540
 -------------------------------------------------------------------
 Cartesian Forces:  Max     0.065168888 RMS     0.018143293

 GradGradGradGradGradGradGradGradGradGradGradGradGradGradGradGradGradGrad
 Berny optimization.
 FormGI is forming the generalized inverse of G from B-inverse, IUseBI=4.
 Internal  Forces:  Max     0.048930051 RMS     0.010357977
 Search for a local minimum.
 Step number   1 out of a maximum of   94
 All quantities printed in internal units (Hartrees-Bohrs-Radians)
 Mixed Optimization -- RFO/linear search
 Second derivative matrix not updated -- first step.
 ITU=  0
     Eigenvalues ---    0.01853   0.01931   0.01986   0.02012   0.02070
     Eigenvalues ---    0.02113   0.02148   0.02153   0.02172   0.02209
     Eigenvalues ---    0.02233   0.02248   0.02338   0.16000   0.16000
     Eigenvalues ---    0.16000   0.16000   0.16000   0.16000   0.16000
     Eigenvalues ---    0.22000   0.22188   0.22662   0.24011   0.24651
     Eigenvalues ---    0.35712   0.35717   0.35783   0.35790   0.36420
     Eigenvalues ---    0.36427   0.37009   0.38432   0.42633   0.43465
     Eigenvalues ---    0.45769   0.46692   0.47162   0.47468   0.47567
     Eigenvalues ---    0.48125   0.50955
 RFO step:  Lambda=-1.86273390D-02 EMin= 1.85287394D-02
 Linear search not attempted -- first point.
 Iteration  1 RMS(Cart)=  0.03252310 RMS(Int)=  0.00016573
 Iteration  2 RMS(Cart)=  0.00022193 RMS(Int)=  0.00002246
 Iteration  3 RMS(Cart)=  0.00000005 RMS(Int)=  0.00002246
 Variable       Old X    -DE/DX   Delta X   Delta X   Delta X     New X
                                 (Linear)    (Quad)   (Total)
    R1        2.65547   0.00052   0.00000   0.00231   0.00233   2.65780
    R2        2.61291   0.02235   0.00000   0.04532   0.04533   2.65824
    R3        2.04421   0.00893   0.00000   0.02373   0.02373   2.06795
    R4        2.61557   0.03426   0.00000   0.06834   0.06834   2.68391
    R5        2.04411   0.00873   0.00000   0.02319   0.02319   2.06730
    R6        2.63373   0.00004   0.00000  -0.00099  -0.00100   2.63273
    R7        2.04534   0.00793   0.00000   0.02112   0.02112   2.06645
    R8        2.68058   0.00896   0.00000   0.01806   0.01809   2.69867
    R9        2.60126   0.01568   0.00000   0.02746   0.02746   2.62872
   R10        2.64771   0.01493   0.00000   0.03148   0.03147   2.67918
   R11        2.70839  -0.00597   0.00000  -0.01100  -0.01097   2.69742
   R12        2.04526   0.00880   0.00000   0.02342   0.02342   2.06869
   R13        2.60573  -0.03416   0.00000  -0.06793  -0.06798   2.53774
   R14        1.89542   0.04826   0.00000   0.09845   0.09845   1.99387
   R15        2.57870   0.04893   0.00000   0.09285   0.09282   2.67151
   R16        2.03419   0.01099   0.00000   0.02870   0.02870   2.06289
   R17        2.03430   0.01286   0.00000   0.03359   0.03359   2.06789
    A1        2.11420  -0.00470   0.00000  -0.01546  -0.01542   2.09878
    A2        2.07986   0.00247   0.00000   0.00841   0.00839   2.08825
    A3        2.08912   0.00223   0.00000   0.00705   0.00703   2.09615
    A4        2.11523   0.00202   0.00000   0.01071   0.01074   2.12597
    A5        2.08365  -0.00103   0.00000  -0.00546  -0.00548   2.07818
    A6        2.08430  -0.00099   0.00000  -0.00525  -0.00526   2.07904
    A7        2.05144   0.00118   0.00000   0.00265   0.00266   2.05410
    A8        2.11267   0.00175   0.00000   0.01176   0.01175   2.12442
    A9        2.11908  -0.00293   0.00000  -0.01441  -0.01441   2.10467
   A10        2.13389  -0.00359   0.00000  -0.01402  -0.01405   2.11983
   A11        2.27895  -0.00321   0.00000  -0.00622  -0.00623   2.27272
   A12        1.87035   0.00679   0.00000   0.02024   0.02029   1.89064
   A13        2.07274   0.00674   0.00000   0.02128   0.02122   2.09396
   A14        1.86517  -0.00687   0.00000  -0.02171  -0.02162   1.84355
   A15        2.34527   0.00013   0.00000   0.00044   0.00040   2.34567
   A16        2.07887  -0.00165   0.00000  -0.00516  -0.00515   2.07372
   A17        2.10306   0.00069   0.00000   0.00182   0.00181   2.10487
   A18        2.10125   0.00096   0.00000   0.00334   0.00334   2.10459
   A19        1.90743   0.00249   0.00000   0.00162   0.00156   1.90899
   A20        2.19023   0.00182   0.00000   0.01634   0.01637   2.20660
   A21        2.18553  -0.00431   0.00000  -0.01796  -0.01793   2.16760
   A22        1.86968  -0.00161   0.00000   0.00194   0.00194   1.87163
   A23        2.21717   0.00068   0.00000  -0.00168  -0.00169   2.21548
   A24        2.19633   0.00093   0.00000  -0.00025  -0.00026   2.19608
   A25        1.91215  -0.00081   0.00000  -0.00209  -0.00217   1.90998
   A26        2.10250  -0.00341   0.00000  -0.02033  -0.02029   2.08221
   A27        2.26854   0.00422   0.00000   0.02242   0.02246   2.29100
    D1       -0.00001   0.00000   0.00000  -0.00002  -0.00002  -0.00004
    D2       -3.14156  -0.00000   0.00000  -0.00006  -0.00006   3.14157
    D3        3.14152   0.00000   0.00000   0.00005   0.00005   3.14158
    D4       -0.00002   0.00000   0.00000   0.00002   0.00002  -0.00001
    D5       -0.00003   0.00000   0.00000   0.00001   0.00001  -0.00002
    D6        3.14153   0.00000   0.00000   0.00011   0.00011  -3.14154
    D7       -3.14157  -0.00000   0.00000  -0.00007  -0.00007   3.14155
    D8       -0.00001   0.00000   0.00000   0.00004   0.00004   0.00003
    D9        0.00003   0.00000   0.00000   0.00006   0.00006   0.00009
   D10       -3.14154  -0.00000   0.00000  -0.00007  -0.00006   3.14158
   D11        3.14158   0.00000   0.00000   0.00010   0.00010  -3.14151
   D12        0.00001  -0.00000   0.00000  -0.00003  -0.00003  -0.00002
   D13       -0.00001  -0.00001   0.00000  -0.00009  -0.00008  -0.00009
   D14       -3.14144  -0.00001   0.00000  -0.00008  -0.00008  -3.14152
   D15        3.14156   0.00000   0.00000   0.00004   0.00004  -3.14158
   D16        0.00013   0.00000   0.00000   0.00004   0.00004   0.00018
   D17       -0.00004   0.00001   0.00000   0.00008   0.00007   0.00004
   D18       -3.14151   0.00000   0.00000  -0.00005  -0.00006  -3.14157
   D19        3.14143   0.00001   0.00000   0.00007   0.00007   3.14149
   D20       -0.00005   0.00000   0.00000  -0.00006  -0.00006  -0.00011
   D21       -3.14124  -0.00001   0.00000  -0.00041  -0.00042   3.14152
   D22       -0.00113   0.00001   0.00000   0.00031   0.00031  -0.00082
   D23        0.00049  -0.00001   0.00000  -0.00041  -0.00042   0.00008
   D24        3.14060   0.00001   0.00000   0.00032   0.00032   3.14092
   D25        0.00005  -0.00000   0.00000  -0.00003  -0.00003   0.00002
   D26       -3.14151  -0.00001   0.00000  -0.00014  -0.00014   3.14154
   D27        3.14150   0.00000   0.00000   0.00014   0.00014  -3.14155
   D28       -0.00007   0.00000   0.00000   0.00003   0.00004  -0.00003
   D29       -0.00041   0.00003   0.00000   0.00053   0.00052   0.00011
   D30        3.14139   0.00001   0.00000   0.00011   0.00010   3.14149
   D31        3.14132   0.00002   0.00000   0.00037   0.00036  -3.14150
   D32       -0.00006   0.00000   0.00000  -0.00005  -0.00005  -0.00012
   D33       -0.00077   0.00003   0.00000   0.00077   0.00076  -0.00001
   D34        3.14133   0.00001   0.00000   0.00026   0.00026   3.14159
   D35       -3.14089   0.00000   0.00000   0.00002   0.00001  -3.14088
   D36        0.00121  -0.00002   0.00000  -0.00050  -0.00049   0.00072
   D37        0.00072  -0.00003   0.00000  -0.00078  -0.00078  -0.00006
   D38       -3.14144  -0.00001   0.00000  -0.00022  -0.00022   3.14153
   D39       -3.14107  -0.00001   0.00000  -0.00037  -0.00038  -3.14145
   D40       -0.00005   0.00001   0.00000   0.00019   0.00019   0.00014
         Item               Value     Threshold  Converged?
 Maximum Force            0.048930     0.000450     NO 
 RMS     Force            0.010358     0.000300     NO 
 Maximum Displacement     0.118212     0.001800     NO 
 RMS     Displacement     0.032574     0.001200     NO 
 Predicted change in Energy=-9.685033D-03
 GradGradGradGradGradGradGradGradGradGradGradGradGradGradGradGradGradGrad

                          Input orientation:                          
 ---------------------------------------------------------------------
 Center     Atomic      Atomic             Coordinates (Angstroms)
 Number     Number       Type             X           Y           Z
 ---------------------------------------------------------------------
      1          6           0       -2.191282    0.702431   -0.000018
      2          6           0       -2.144226   -0.703230    0.000020
      3          6           0       -0.912901   -1.411041   -0.000002
      4          6           0        0.263179   -0.664188    0.000053
      5          6           0        0.239262    0.763687    0.000016
      6          6           0       -1.000551    1.451368   -0.000035
      7          7           0        1.590832   -1.079380   -0.000032
      8          6           0        1.607277    1.171179    0.000062
      9          6           0        2.394198   -0.003264   -0.000019
     10          1           0        1.935436   -2.076629    0.000538
     11          1           0        1.986907    2.194677   -0.000035
     12          1           0        3.479264   -0.144980   -0.000072
     13          1           0       -3.082057   -1.266469    0.000056
     14          1           0       -0.878013   -2.504004    0.000035
     15          1           0       -3.159906    1.211629   -0.000015
     16          1           0       -1.030515    2.545661   -0.000016
 ---------------------------------------------------------------------
                    Distance matrix (angstroms):
                    1          2          3          4          5
     1  C    0.000000
     2  C    1.406449   0.000000
     3  C    2.470024   1.420266   0.000000
     4  C    2.809275   2.407722   1.393182   0.000000
     5  C    2.431316   2.798725   2.461082   1.428075   0.000000
     6  C    1.406679   2.439321   2.863750   2.464263   1.417760
     7  N    4.180818   3.753951   2.525605   1.391059   2.285528
     8  C    3.827372   4.193708   3.608207   2.274900   1.427415
     9  C    4.639464   4.592085   3.594265   2.231157   2.287348
    10  H    4.975236   4.304633   2.925070   2.188934   3.308232
    11  H    4.436672   5.046199   4.627103   3.338314   2.258759
    12  H    5.733515   5.651131   4.570998   3.257726   3.365009
    13  H    2.161029   1.093967   2.173968   3.399021   3.892646
    14  H    3.464954   2.201382   1.093520   2.165004   3.453420
    15  H    1.094310   2.167554   3.453611   3.903357   3.428556
    16  H    2.178274   3.434479   3.958449   3.460748   2.188096
                    6          7          8          9         10
     6  C    0.000000
     7  N    3.622148   0.000000
     8  C    2.622837   2.250619   0.000000
     9  C    3.693274   1.342916   1.413705   0.000000
    10  H    4.589856   1.055110   3.264344   2.123512   0.000000
    11  H    3.078541   3.297927   1.091634   2.235359   4.271615
    12  H    4.755741   2.106960   2.288364   1.094282   2.472786
    13  H    3.423347   4.676632   5.285071   5.620058   5.082479
    14  H    3.957270   2.850394   4.436625   4.118381   2.845724
    15  H    2.172622   5.274299   4.767354   5.685422   6.064251
    16  H    1.094703   4.473520   2.974415   4.269154   5.492033
                   11         12         13         14         15
    11  H    0.000000
    12  H    2.775090   0.000000
    13  H    6.137909   6.656476   0.000000
    14  H    5.503214   4.954882   2.527707   0.000000
    15  H    5.239853   6.776353   2.479321   4.360386   0.000000
    16  H    3.037766   5.251443   4.329106   5.051967   2.512756
                   16
    16  H    0.000000
 Stoichiometry    C8H7N
 Framework group  C1[X(C8H7N)]
 Deg. of freedom    42
 Full point group                 C1      NOp   1
 Largest Abelian subgroup         C1      NOp   1
 Largest concise Abelian subgroup C1      NOp   1
                         Standard orientation:                         
 ---------------------------------------------------------------------
 Center     Atomic      Atomic             Coordinates (Angstroms)
 Number     Number       Type             X           Y           Z
 ---------------------------------------------------------------------
      1          6           0       -2.206296    0.644933   -0.000030
      2          6           0       -2.125027   -0.759165    0.000008
      3          6           0       -0.876832   -1.436783   -0.000014
      4          6           0        0.280714   -0.661514    0.000041
      5          6           0        0.222036    0.765355    0.000004
      6          6           0       -1.034155    1.422642   -0.000047
      7          7           0        1.618083   -1.044255   -0.000043
      8          6           0        1.579722    1.206037    0.000050
      9          6           0        2.395007    0.051104   -0.000031
     10          1           0        1.986868   -2.032817    0.000526
     11          1           0        1.934317    2.238475   -0.000047
     12          1           0        3.483203   -0.064149   -0.000084
     13          1           0       -3.048864   -1.345074    0.000044
     14          1           0       -0.815340   -2.528573    0.000023
     15          1           0       -3.187031    1.130395   -0.000027
     16          1           0       -1.090756    2.515881   -0.000027
 ---------------------------------------------------------------------
 Rotational constants (GHZ):           3.8532926           1.6141811           1.1376209
 Standard basis: 6-31+G(d) (6D, 7F)
 There are   185 symmetry adapted cartesian basis functions of A   symmetry.
 There are   185 symmetry adapted basis functions of A   symmetry.
   185 basis functions,   316 primitive gaussians,   185 cartesian basis functions
    31 alpha electrons       31 beta electrons
       nuclear repulsion energy       397.9441821202 Hartrees.
 NAtoms=   16 NActive=   16 NUniq=   16 SFac= 1.00D+00 NAtFMM=   60 NAOKFM=F Big=F
 Integral buffers will be    131072 words long.
 Regular integral format.
 Two-electron integral symmetry is turned on.
 One-electron integrals computed using PRISM.
 NBasis=   185 RedAO= T EigKep=  1.29D-06  NBF=   185
 NBsUse=   185 1.00D-06 EigRej= -1.00D+00 NBFU=   185
 Initial guess from the checkpoint file:  "FuncsPBEPBE-V-2nd.chk"
 B after Tr=     0.000000    0.000000    0.000000
         Rot=    0.999927    0.000008    0.000009   -0.012106 Ang=   1.39 deg.
 ExpMin= 4.38D-02 ExpMax= 4.17D+03 ExpMxC= 6.27D+02 IAcc=3 IRadAn=         5 AccDes= 0.00D+00
 Harris functional with IExCor= 1009 and IRadAn=       5 diagonalized for initial guess.
 HarFok:  IExCor= 1009 AccDes= 0.00D+00 IRadAn=         5 IDoV= 1 UseB2=F ITyADJ=14
 ICtDFT=  3500011 ScaDFX=  1.000000  1.000000  1.000000  1.000000
 FoFCou: FMM=F IPFlag=           0 FMFlag=      100000 FMFlg1=           0
         NFxFlg=           0 DoJE=T BraDBF=F KetDBF=T FulRan=T
         wScrn=  0.000000 ICntrl=       500 IOpCl=  0 I1Cent=   200000004 NGrid=           0
         NMat0=    1 NMatS0=      1 NMatT0=    0 NMatD0=    1 NMtDS0=    0 NMtDT0=    0
 Petite list used in FoFCou.
 Keep J ints in memory in canonical form, NReq=152071459.
 Requested convergence on RMS density matrix=1.00D-08 within 128 cycles.
 Requested convergence on MAX density matrix=1.00D-06.
 Requested convergence on             energy=1.00D-06.
 No special actions if energy rises.
 SCF Done:  E(RPBE-PBE) =  -363.367660373     A.U. after   13 cycles
            NFock= 13  Conv=0.59D-08     -V/T= 2.0103
 DoSCS=F DFT=T ScalE2(SS,OS)=  1.000000  1.000000
 ExpMin= 4.38D-02 ExpMax= 4.17D+03 ExpMxC= 6.27D+02 IAcc=3 IRadAn=         5 AccDes= 0.00D+00
 HarFok:  IExCor=  205 AccDes= 0.00D+00 IRadAn=         5 IDoV=-2 UseB2=F ITyADJ=14
 ICtDFT= 12500011 ScaDFX=  1.000000  1.000000  1.000000  1.000000
 Range of M.O.s used for correlation:    10   185
 NBasis=   185 NAE=    31 NBE=    31 NFC=     9 NFV=     0
 NROrb=    176 NOA=    22 NOB=    22 NVA=   154 NVB=   154

 **** Warning!!: The largest alpha MO coefficient is  0.18846505D+03

 Keep J ints in memory in canonical form, NReq=156218803.
 Orbital symmetries:
       Occupied  (A) (A) (A) (A) (A) (A) (A) (A) (A) (A) (A) (A)
                 (A) (A) (A) (A) (A) (A) (A) (A) (A) (A) (A) (A)
                 (A) (A) (A) (A) (A) (A) (A)
       Virtual   (A) (A) (A) (A) (A) (A) (A) (A) (A) (A) (A) (A)
                 (A) (A) (A) (A) (A) (A) (A) (A) (A) (A) (A) (A)
                 (A) (A) (A) (A) (A) (A) (A) (A) (A) (A) (A) (A)
                 (A) (A) (A) (A) (A) (A) (A) (A) (A) (A) (A) (A)
                 (A) (A) (A) (A) (A) (A) (A) (A) (A) (A) (A) (A)
                 (A) (A) (A) (A) (A) (A) (A) (A) (A) (A) (A) (A)
                 (A) (A) (A) (A) (A) (A) (A) (A) (A) (A) (A) (A)
                 (A) (A) (A) (A) (A) (A) (A) (A) (A) (A) (A) (A)
                 (A) (A) (A) (A) (A) (A) (A) (A) (A) (A) (A) (A)
                 (A) (A) (A) (A) (A) (A) (A) (A) (A) (A) (A) (A)
                 (A) (A) (A) (A) (A) (A) (A) (A) (A) (A) (A) (A)
                 (A) (A) (A) (A) (A) (A) (A) (A) (A) (A) (A) (A)
                 (A) (A) (A) (A) (A) (A) (A) (A) (A) (A)
 Generating guess from densities on rwf.
 Convergence on wavefunction:    0.000001000000000
 Iteration     1 Dimension     6 NMult     0 NNew      6
 CISAX will form     6 AO SS matrices at one time.
 New state      2 was old state      3
 New state      3 was old state      2
 New state      4 was old state      5
 New state      5 was old state      6
 New state      6 was old state      4
 Iteration     2 Dimension    12 NMult     6 NNew      6
 New state      2 was old state      3
 New state      3 was old state      2
 New state      5 was old state      6
 New state      6 was old state      5
 Iteration     3 Dimension    18 NMult    12 NNew      6
 Iteration     4 Dimension    24 NMult    18 NNew      6
 Iteration     5 Dimension    30 NMult    24 NNew      6
 Iteration     6 Dimension    36 NMult    30 NNew      6
 Iteration     7 Dimension    42 NMult    36 NNew      6
 Iteration     8 Dimension    48 NMult    42 NNew      6
 Iteration     9 Dimension    54 NMult    48 NNew      6
 Iteration    10 Dimension    60 NMult    54 NNew      6
 Iteration    11 Dimension    66 NMult    60 NNew      6
 Iteration    12 Dimension    72 NMult    66 NNew      6
 Iteration    13 Dimension    78 NMult    72 NNew      6
 Iteration    14 Dimension    84 NMult    78 NNew      6
 Iteration    15 Dimension    90 NMult    84 NNew      6
 Iteration    16 Dimension    96 NMult    90 NNew      6
 Iteration    17 Dimension   102 NMult    96 NNew      6
 Iteration    18 Dimension   108 NMult   102 NNew      6
 Iteration    19 Dimension   114 NMult   108 NNew      6
 Iteration    20 Dimension   119 NMult   114 NNew      5
 Iteration    21 Dimension   123 NMult   119 NNew      4
 Iteration    22 Dimension   127 NMult   123 NNew      4
 Iteration    23 Dimension   130 NMult   127 NNew      3
 Iteration    24 Dimension   133 NMult   130 NNew      3
 Iteration    25 Dimension   136 NMult   133 NNew      3
 Iteration    26 Dimension   139 NMult   136 NNew      3
 Iteration    27 Dimension   142 NMult   139 NNew      3
 Iteration    28 Dimension   145 NMult   142 NNew      3
 Iteration    29 Dimension   148 NMult   145 NNew      3
 Iteration    30 Dimension   151 NMult   148 NNew      3
 Iteration    31 Dimension   153 NMult   151 NNew      2
 Iteration    32 Dimension   155 NMult   153 NNew      2
 Iteration    33 Dimension   157 NMult   155 NNew      2
 Iteration    34 Dimension   159 NMult   157 NNew      2
 Iteration    35 Dimension   161 NMult   159 NNew      2
 Iteration    36 Dimension   162 NMult   161 NNew      1
 Iteration    37 Dimension   163 NMult   162 NNew      1
 Iteration    38 Dimension   164 NMult   163 NNew      1
 Iteration    39 Dimension   165 NMult   164 NNew      1
 Iteration    40 Dimension   166 NMult   165 NNew      1
 Iteration    41 Dimension   167 NMult   166 NNew      1
 Iteration    42 Dimension   168 NMult   167 NNew      1
 Iteration    43 Dimension   169 NMult   168 NNew      1
 Iteration    44 Dimension   170 NMult   169 NNew      1
 Iteration    45 Dimension   171 NMult   170 NNew      1
 Iteration    46 Dimension   172 NMult   171 NNew      1
 Iteration    47 Dimension   173 NMult   172 NNew      1
 ***********************************************************************
 Excited states from <AA,BB:AA,BB> singles matrix:
 ***********************************************************************
 
 Ground to excited state transition densities written to RWF  633
 Ground to excited state transition electric dipole moments (Au):
       state          X           Y           Z        Dip. S.      Osc.
         1        -0.6607      0.5128     -0.0002      0.6995      0.0712
         2         0.0014     -0.0011     -0.0968      0.0094      0.0010
         3        -0.0263     -0.1425      0.0000      0.0210      0.0024
         4        -0.0001      0.0000     -0.0271      0.0007      0.0001
         5        -0.0002      0.0001     -0.0861      0.0074      0.0009
         6        -0.0000      0.0000     -0.1306      0.0170      0.0021
 Ground to excited state transition velocity dipole moments (Au):
       state          X           Y           Z        Dip. S.      Osc.
         1         0.0915     -0.0866      0.0000      0.0159      0.0693
         2        -0.0002      0.0002      0.0073      0.0001      0.0002
         3         0.0033      0.0260     -0.0000      0.0007      0.0027
         4         0.0000     -0.0000      0.0018      0.0000      0.0000
         5         0.0000     -0.0000      0.0190      0.0004      0.0013
         6         0.0000     -0.0000      0.0230      0.0005      0.0019
 Ground to excited state transition magnetic dipole moments (Au):
       state          X           Y           Z
         1         0.0003     -0.0000      0.2152
         2         0.1340     -0.0477     -0.0002
         3        -0.0001     -0.0000      0.1084
         4        -0.2465      0.1095     -0.0001
         5        -0.0141     -0.1667     -0.0000
         6        -0.0286     -0.3170     -0.0001
 Ground to excited state transition velocity quadrupole moments (Au):
       state          XX          YY          ZZ          XY          XZ          YZ
         1         0.1433     -0.1048      0.0136      0.0756      0.0001      0.0001
         2        -0.0003      0.0002      0.0000     -0.0001      0.0290      0.0567
         3        -0.0107     -0.0439      0.0182      0.0174      0.0000     -0.0000
         4        -0.0000      0.0000      0.0000     -0.0001     -0.1180     -0.1728
         5         0.0000     -0.0000     -0.0000     -0.0000      0.0954     -0.0553
         6        -0.0000      0.0000     -0.0000     -0.0001      0.2788      0.0349
 <0|del|b> * <b|rxdel|0> + <0|del|b> * <b|delr+rdel|0>
 Rotatory Strengths (R) in cgs (10**-40 erg-esu-cm/Gauss)
       state          XX          YY          ZZ    R(velocity)    E-M Angle
         1         0.0261      0.0849      0.0312      0.0474       90.00
         2        -0.0374     -0.0891     -0.0430     -0.0565       90.00
         3        -0.0032     -0.0012     -0.0018     -0.0021       90.00
         4        -0.0007     -0.0157     -0.0027     -0.0064       90.00
         5         0.0027     -0.0034      0.0037      0.0010       90.00
         6         0.0079      0.0004      0.0005      0.0029       90.00
 1/2[<0|r|b>*<b|rxdel|0> + (<0|rxdel|b>*<b|r|0>)*]
 Rotatory Strengths (R) in cgs (10**-40 erg-esu-cm/Gauss)
       state          XX          YY          ZZ     R(length)
         1         0.1278      0.0130      0.0270      0.0560
         2        -0.1352     -0.0373     -0.0153     -0.0626
         3        -0.0019     -0.0038     -0.0018     -0.0025
         4        -0.0191     -0.0008     -0.0018     -0.0072
         5        -0.0015      0.0099     -0.0017      0.0022
         6        -0.0005      0.0096     -0.0047      0.0015
  1/2[<0|del|b>*<b|r|0> + (<0|r|b>*<b|del|0>)*] (Au)
       state          X           Y           Z        Dip. S.   Osc.(frdel)
         1        -0.0604     -0.0444     -0.0000      0.1049      0.0699
         2        -0.0000     -0.0000     -0.0007      0.0007      0.0005
         3        -0.0001     -0.0037     -0.0000      0.0038      0.0025
         4        -0.0000     -0.0000     -0.0000      0.0000      0.0000
         5        -0.0000     -0.0000     -0.0016      0.0016      0.0011
         6        -0.0000     -0.0000     -0.0030      0.0030      0.0020

 Excitation energies and oscillator strengths:
 
 Excited State   1:      Singlet-A      4.1537 eV  298.49 nm  f=0.0712  <S**2>=0.000
      29 -> 32         0.13406
      30 -> 34         0.10150
      31 -> 32         0.66421
      31 -> 34        -0.11290
 
 Excited State   2:      Singlet-A      4.1917 eV  295.79 nm  f=0.0010  <S**2>=0.000
      31 -> 33         0.70691
 This state for optimization and/or second-order correction.
 Total Energy, E(TD-HF/TD-DFT) =  -363.213619227    
 Copying the excited state density for this state as the 1-particle RhoCI density.
 
 Excited State   3:      Singlet-A      4.5897 eV  270.13 nm  f=0.0024  <S**2>=0.000
      30 -> 32         0.51502
      31 -> 34        -0.47494
 
 Excited State   4:      Singlet-A      4.8895 eV  253.57 nm  f=0.0001  <S**2>=0.000
      31 -> 35         0.70653
 
 Excited State   5:      Singlet-A      4.9726 eV  249.34 nm  f=0.0009  <S**2>=0.000
      30 -> 33         0.70635
 
 Excited State   6:      Singlet-A      5.0966 eV  243.27 nm  f=0.0021  <S**2>=0.000
      31 -> 36         0.70679
 SavETr:  write IOETrn=   770 NScale= 10 NData=  16 NLR=1 NState=    6 LETran=     118.
          IDoAtm=1111111111111111
          Differentiating once with respect to electric field.
                with respect to dipole field.
          Differentiating once with respect to nuclear coordinates.
 Keep J ints in memory in canonical form, NReq=152083851.
          There are     1 degrees of freedom in the 1st order CPHF.  IDoFFX=0 NUNeed=     1.
 LinEq1:  Iter=  0 NonCon=     1 RMS=1.96D-02 Max=7.41D-01 NDo=     1
 AX will form     1 AO Fock derivatives at one time.
 LinEq1:  Iter=  1 NonCon=     1 RMS=1.57D-02 Max=4.32D-01 NDo=     1
 LinEq1:  Iter=  2 NonCon=     1 RMS=1.17D-02 Max=2.15D-01 NDo=     1
 LinEq1:  Iter=  3 NonCon=     1 RMS=9.43D-03 Max=2.13D-01 NDo=     1
 LinEq1:  Iter=  4 NonCon=     1 RMS=7.36D-03 Max=1.39D-01 NDo=     1
 LinEq1:  Iter=  5 NonCon=     1 RMS=4.46D-03 Max=1.31D-01 NDo=     1
 LinEq1:  Iter=  6 NonCon=     1 RMS=2.33D-03 Max=4.34D-02 NDo=     1
 LinEq1:  Iter=  7 NonCon=     1 RMS=2.13D-03 Max=5.85D-02 NDo=     1
 LinEq1:  Iter=  8 NonCon=     1 RMS=9.90D-04 Max=1.66D-02 NDo=     1
 LinEq1:  Iter=  9 NonCon=     1 RMS=8.39D-04 Max=3.14D-02 NDo=     1
 LinEq1:  Iter= 10 NonCon=     1 RMS=3.39D-04 Max=4.10D-03 NDo=     1
 LinEq1:  Iter= 11 NonCon=     1 RMS=1.53D-04 Max=3.26D-03 NDo=     1
 LinEq1:  Iter= 12 NonCon=     1 RMS=9.15D-05 Max=1.76D-03 NDo=     1
 LinEq1:  Iter= 13 NonCon=     1 RMS=2.66D-05 Max=5.03D-04 NDo=     1
 LinEq1:  Iter= 14 NonCon=     1 RMS=2.00D-05 Max=3.05D-04 NDo=     1
 LinEq1:  Iter= 15 NonCon=     1 RMS=5.68D-06 Max=5.94D-05 NDo=     1
 LinEq1:  Iter= 16 NonCon=     1 RMS=1.52D-06 Max=2.21D-05 NDo=     1
 LinEq1:  Iter= 17 NonCon=     1 RMS=1.28D-06 Max=2.76D-05 NDo=     1
 LinEq1:  Iter= 18 NonCon=     1 RMS=2.58D-07 Max=2.84D-06 NDo=     1
 LinEq1:  Iter= 19 NonCon=     1 RMS=4.64D-08 Max=6.86D-07 NDo=     1
 LinEq1:  Iter= 20 NonCon=     1 RMS=1.04D-08 Max=1.12D-07 NDo=     1
 LinEq1:  Iter= 21 NonCon=     1 RMS=3.92D-09 Max=4.31D-08 NDo=     1
 LinEq1:  Iter= 22 NonCon=     1 RMS=8.15D-10 Max=1.02D-08 NDo=     1
 LinEq1:  Iter= 23 NonCon=     1 RMS=1.63D-10 Max=2.19D-09 NDo=     1
 LinEq1:  Iter= 24 NonCon=     0 RMS=2.25D-11 Max=2.48D-10 NDo=     1
 Linear equations converged to 1.000D-10 1.000D-09 after    24 iterations.
 End of Minotr F.D. properties file   721 does not exist.
 End of Minotr F.D. properties file   722 does not exist.
 End of Minotr F.D. properties file   788 does not exist.
 Calling FoFJK, ICntrl=  10005527 FMM=F ISym2X=0 I1Cent= 0 IOpClX= 0 NMat=1 NMatS=1 NMatT=0.
 ***** Axes restored to original set *****
 -------------------------------------------------------------------
 Center     Atomic                   Forces (Hartrees/Bohr)
 Number     Number              X              Y              Z
 -------------------------------------------------------------------
      1        6           0.002085953   -0.000776064   -0.000002818
      2        6          -0.001169158    0.003318269   -0.000003690
      3        6           0.006119657   -0.001414328    0.000000062
      4        6          -0.009317860   -0.006277894    0.000003620
      5        6           0.009484662    0.002030818   -0.000012121
      6        6          -0.002248079    0.001681661    0.000000497
      7        7           0.001229451    0.033433012    0.000030700
      8        6          -0.013130339    0.013796024   -0.000015324
      9        6          -0.005934898   -0.022006377   -0.000000445
     10        1           0.009322762   -0.022642714   -0.000017231
     11        1           0.000920986   -0.000023931    0.000005146
     12        1           0.002173076   -0.000606705    0.000001625
     13        1           0.000347130   -0.000951584    0.000000595
     14        1          -0.000562888    0.000253678    0.000003659
     15        1           0.000464452    0.000311279    0.000001315
     16        1           0.000215092   -0.000125143    0.000004410
 -------------------------------------------------------------------
 Cartesian Forces:  Max     0.033433012 RMS     0.007764540

 GradGradGradGradGradGradGradGradGradGradGradGradGradGradGradGradGradGrad
 Berny optimization.
 Using GEDIIS/GDIIS optimizer.
 FormGI is forming the generalized inverse of G from B-inverse, IUseBI=4.
 Internal  Forces:  Max     0.024445998 RMS     0.003631463
 Search for a local minimum.
 Step number   2 out of a maximum of   94
 All quantities printed in internal units (Hartrees-Bohrs-Radians)
 Mixed Optimization -- RFO/linear search
 Update second derivatives using D2CorX and points    1    2
 DE= -1.14D-02 DEPred=-9.69D-03 R= 1.18D+00
 TightC=F SS=  1.41D+00  RLast= 2.00D-01 DXNew= 5.0454D-01 5.9934D-01
 Trust test= 1.18D+00 RLast= 2.00D-01 DXMaxT set to 5.05D-01
 ITU=  1  0
 Use linear search instead of GDIIS.
     Eigenvalues ---    0.01855   0.01932   0.01987   0.02011   0.02070
     Eigenvalues ---    0.02113   0.02148   0.02158   0.02172   0.02210
     Eigenvalues ---    0.02234   0.02248   0.02345   0.15806   0.16000
     Eigenvalues ---    0.16000   0.16000   0.16000   0.16000   0.16126
     Eigenvalues ---    0.21918   0.22183   0.22444   0.24328   0.24676
     Eigenvalues ---    0.31263   0.35715   0.35747   0.35789   0.36049
     Eigenvalues ---    0.36457   0.37138   0.37337   0.38980   0.42692
     Eigenvalues ---    0.43569   0.45906   0.46755   0.47488   0.47611
     Eigenvalues ---    0.49593   0.55017
 RFO step:  Lambda=-2.35262998D-03 EMin= 1.85467689D-02
 Quartic linear search produced a step of  0.39672.
 Iteration  1 RMS(Cart)=  0.01502666 RMS(Int)=  0.00015139
 Iteration  2 RMS(Cart)=  0.00019984 RMS(Int)=  0.00002986
 Iteration  3 RMS(Cart)=  0.00000009 RMS(Int)=  0.00002986
 Variable       Old X    -DE/DX   Delta X   Delta X   Delta X     New X
                                 (Linear)    (Quad)   (Total)
    R1        2.65780  -0.00001   0.00092  -0.00097  -0.00005   2.65775
    R2        2.65824  -0.00174   0.01798  -0.01619   0.00180   2.66004
    R3        2.06795  -0.00027   0.00941  -0.00668   0.00274   2.07068
    R4        2.68391   0.00172   0.02711  -0.01230   0.01481   2.69872
    R5        2.06730   0.00019   0.00920  -0.00477   0.00443   2.07173
    R6        2.63273  -0.00481  -0.00040  -0.01407  -0.01447   2.61827
    R7        2.06645  -0.00027   0.00838  -0.00608   0.00230   2.06875
    R8        2.69867   0.00468   0.00718   0.01188   0.01911   2.71778
    R9        2.62872   0.00216   0.01089  -0.00202   0.00883   2.63755
   R10        2.67918   0.00026   0.01249  -0.00657   0.00592   2.68510
   R11        2.69742  -0.00702  -0.00435  -0.01942  -0.02370   2.67373
   R12        2.06869  -0.00013   0.00929  -0.00608   0.00321   2.07190
   R13        2.53774  -0.01325  -0.02697  -0.02188  -0.04893   2.48881
   R14        1.99387   0.02445   0.03906   0.04775   0.08681   2.08068
   R15        2.67151   0.01258   0.03682   0.01083   0.04764   2.71915
   R16        2.06289   0.00030   0.01139  -0.00571   0.00568   2.06857
   R17        2.06789   0.00223   0.01333   0.00050   0.01382   2.08171
    A1        2.09878   0.00105  -0.00612   0.00959   0.00348   2.10227
    A2        2.08825  -0.00001   0.00333  -0.00055   0.00277   2.09102
    A3        2.09615  -0.00103   0.00279  -0.00904  -0.00625   2.08990
    A4        2.12597   0.00103   0.00426   0.00314   0.00740   2.13337
    A5        2.07818   0.00051  -0.00217   0.00729   0.00511   2.08329
    A6        2.07904  -0.00154  -0.00209  -0.01043  -0.01251   2.06652
    A7        2.05410  -0.00178   0.00106  -0.01196  -0.01090   2.04319
    A8        2.12442   0.00032   0.00466  -0.00150   0.00316   2.12758
    A9        2.10467   0.00146  -0.00572   0.01346   0.00774   2.11241
   A10        2.11983   0.00146  -0.00558   0.01279   0.00722   2.12706
   A11        2.27272   0.00040  -0.00247   0.00351   0.00102   2.27374
   A12        1.89064  -0.00186   0.00805  -0.01630  -0.00825   1.88239
   A13        2.09396  -0.00039   0.00842  -0.00729   0.00109   2.09505
   A14        1.84355   0.00191  -0.00858   0.01893   0.01046   1.85401
   A15        2.34567  -0.00152   0.00016  -0.01164  -0.01155   2.33412
   A16        2.07372  -0.00137  -0.00204  -0.00627  -0.00829   2.06543
   A17        2.10487   0.00091   0.00072   0.00517   0.00588   2.11075
   A18        2.10459   0.00047   0.00132   0.00110   0.00241   2.10700
   A19        1.90899   0.00128   0.00062   0.00272   0.00323   1.91222
   A20        2.20660   0.00077   0.00649   0.00744   0.01399   2.22058
   A21        2.16760  -0.00205  -0.00711  -0.01016  -0.01722   2.15038
   A22        1.87163  -0.00385   0.00077  -0.02005  -0.01921   1.85242
   A23        2.21548   0.00283  -0.00067   0.01790   0.01720   2.23268
   A24        2.19608   0.00103  -0.00010   0.00215   0.00201   2.19809
   A25        1.90998   0.00252  -0.00086   0.01470   0.01376   1.92374
   A26        2.08221  -0.00159  -0.00805  -0.00604  -0.01405   2.06816
   A27        2.29100  -0.00093   0.00891  -0.00867   0.00028   2.29128
    D1       -0.00004   0.00000  -0.00001   0.00005   0.00005   0.00001
    D2        3.14157  -0.00000  -0.00002  -0.00008  -0.00010   3.14147
    D3        3.14158   0.00000   0.00002   0.00016   0.00018  -3.14143
    D4       -0.00001   0.00000   0.00001   0.00003   0.00003   0.00003
    D5       -0.00002   0.00000   0.00000   0.00007   0.00008   0.00005
    D6       -3.14154   0.00000   0.00005   0.00014   0.00018  -3.14136
    D7        3.14155  -0.00000  -0.00003  -0.00003  -0.00005   3.14149
    D8        0.00003   0.00000   0.00002   0.00003   0.00005   0.00008
    D9        0.00009  -0.00000   0.00002  -0.00006  -0.00004   0.00006
   D10        3.14158  -0.00000  -0.00003  -0.00016  -0.00018   3.14140
   D11       -3.14151   0.00000   0.00004   0.00007   0.00011  -3.14140
   D12       -0.00002  -0.00000  -0.00001  -0.00003  -0.00004  -0.00006
   D13       -0.00009  -0.00000  -0.00003  -0.00006  -0.00010  -0.00019
   D14       -3.14152   0.00000  -0.00003   0.00011   0.00008  -3.14144
   D15       -3.14158   0.00000   0.00002   0.00003   0.00005  -3.14154
   D16        0.00018   0.00000   0.00002   0.00020   0.00022   0.00040
   D17        0.00004   0.00000   0.00003   0.00019   0.00022   0.00026
   D18       -3.14157   0.00000  -0.00002   0.00007   0.00005  -3.14152
   D19        3.14149   0.00000   0.00003   0.00006   0.00008   3.14157
   D20       -0.00011  -0.00000  -0.00002  -0.00006  -0.00009  -0.00020
   D21        3.14152  -0.00000  -0.00017  -0.00021  -0.00038   3.14114
[...]
   R17        2.03031   0.01016   0.05078   0.00124   0.05201   2.08232
    A1        2.07443   0.00897   0.03230   0.00820   0.04056   2.11499
    A2        2.10337  -0.00260  -0.01606  -0.00652  -0.02260   2.08077
    A3        2.10538  -0.00636  -0.01624  -0.00168  -0.01795   2.08743
    A4        2.10938   0.00190   0.02115  -0.00165   0.01946   2.12884
    A5        2.08824  -0.00049   0.00464   0.00343   0.00808   2.09632
    A6        2.08556  -0.00142  -0.02579  -0.00178  -0.02754   2.05802
    A7        2.07701  -0.00365  -0.02937   0.00682  -0.02274   2.05427
    A8        2.14438  -0.00215  -0.03503  -0.02927  -0.06420   2.08017
    A9        2.06179   0.00580   0.06440   0.02245   0.08695   2.14874
   A10        2.12365  -0.00741   0.00575  -0.01155  -0.00524   2.11842
   A11        2.15984   0.00931   0.08562  -0.00449   0.08203   2.24187
   A12        1.99970  -0.00190  -0.09137   0.01603  -0.07680   1.92290
   A13        2.09670   0.00422  -0.01149  -0.00103  -0.01293   2.08378
   A14        1.83239  -0.00750   0.04215   0.00897   0.05172   1.88411
   A15        2.35409   0.00329  -0.03066  -0.00793  -0.03880   2.31530
   A16        2.08519  -0.00403  -0.01833  -0.00079  -0.01911   2.06607
   A17        2.10613  -0.00120   0.00703  -0.00338   0.00364   2.10977
   A18        2.09187   0.00523   0.01130   0.00417   0.01547   2.10734
   A19        1.81531  -0.00227   0.05698  -0.03187   0.02353   1.83885
   A20        2.41488   0.00276  -0.06685   0.06923   0.00309   2.41797
   A21        2.05299  -0.00049   0.00986  -0.03733  -0.02673   2.02626
   A22        1.90413  -0.01532  -0.07788  -0.03296  -0.10893   1.79520
   A23        2.20894   0.00422   0.06174   0.02708   0.08786   2.29680
   A24        2.17012   0.01110   0.01614   0.00588   0.02107   2.19118
   A25        1.87324   0.02699   0.07013   0.03986   0.11046   1.98371
   A26        2.18198  -0.02179  -0.08285  -0.01345  -0.09654   2.08543
   A27        2.22796  -0.00520   0.01272  -0.02640  -0.01392   2.21404
    D1       -0.00015   0.00000   0.00040   0.00069   0.00110   0.00096
    D2        3.14129   0.00000   0.00018   0.00044   0.00066  -3.14124
    D3        3.14149   0.00001   0.00044   0.00063   0.00106  -3.14063
    D4       -0.00026   0.00001   0.00022   0.00039   0.00062   0.00036
    D5        0.00010   0.00002  -0.00001  -0.00018  -0.00022  -0.00012
    D6        3.14117   0.00004   0.00059   0.00096   0.00152  -3.14050
    D7       -3.14155   0.00002  -0.00005  -0.00013  -0.00018   3.14146
    D8       -0.00047   0.00004   0.00055   0.00102   0.00156   0.00109
    D9       -0.00046   0.00001  -0.00016  -0.00036  -0.00046  -0.00092
   D10        3.14088   0.00001  -0.00005  -0.00006  -0.00008   3.14081
   D11        3.14129   0.00002   0.00005  -0.00012  -0.00003   3.14126
   D12       -0.00055   0.00001   0.00016   0.00019   0.00036  -0.00019
   D13        0.00115  -0.00008  -0.00049  -0.00053  -0.00107   0.00008
   D14       -3.13990  -0.00013  -0.00123  -0.00229  -0.00343   3.13986
   D15       -3.14020  -0.00007  -0.00059  -0.00081  -0.00145   3.14153
   D16        0.00193  -0.00012  -0.00132  -0.00258  -0.00381  -0.00188
   D17       -0.00121   0.00010   0.00087   0.00105   0.00193   0.00071
   D18        3.13995   0.00009   0.00130   0.00184   0.00325  -3.13998
   D19        3.13989   0.00015   0.00150   0.00265   0.00394  -3.13936
   D20       -0.00214   0.00014   0.00193   0.00345   0.00527   0.00313
   D21       -3.13856  -0.00021  -0.00238  -0.00414  -0.00652   3.13811
   D22        0.00036   0.00027   0.00410   0.00876   0.01319   0.01355
   D23        0.00354  -0.00026  -0.00306  -0.00578  -0.00868  -0.00514
   D24       -3.14073   0.00022   0.00343   0.00712   0.01103  -3.12969
   D25        0.00057  -0.00007  -0.00061  -0.00067  -0.00126  -0.00069
   D26       -3.14050  -0.00009  -0.00121  -0.00180  -0.00299   3.13969
   D27       -3.14043  -0.00005  -0.00119  -0.00176  -0.00301   3.13975
   D28        0.00168  -0.00007  -0.00179  -0.00289  -0.00474  -0.00306
   D29       -0.00036   0.00009   0.00013   0.00062   0.00039   0.00003
   D30        3.14137   0.00004   0.00042   0.00060   0.00090  -3.14091
   D31        3.14070   0.00008   0.00065   0.00159   0.00198  -3.14050
   D32       -0.00075   0.00003   0.00095   0.00157   0.00249   0.00174
   D33       -0.00354   0.00025   0.00298   0.00576   0.00886   0.00531
   D34        3.14147   0.00009   0.00079   0.00213   0.00285  -3.13886
   D35        3.14005  -0.00012  -0.00223  -0.00411  -0.00571   3.13434
   D36        0.00189  -0.00028  -0.00443  -0.00774  -0.01171  -0.00982
   D37        0.00243  -0.00020  -0.00193  -0.00392  -0.00587  -0.00344
   D38        3.14048  -0.00008   0.00031  -0.00013   0.00048   3.14095
   D39       -3.13930  -0.00015  -0.00220  -0.00390  -0.00633   3.13755
   D40       -0.00125  -0.00003   0.00004  -0.00010   0.00001  -0.00124
         Item               Value     Threshold  Converged?
 Maximum Force            0.086510     0.000450     NO 
 RMS     Force            0.013824     0.000300     NO 
 Maximum Displacement     0.325224     0.001800     NO 
 RMS     Displacement     0.077415     0.001200     NO 
 Predicted change in Energy=-3.146651D-03
 GradGradGradGradGradGradGradGradGradGradGradGradGradGradGradGradGradGrad

                          Input orientation:                          
 ---------------------------------------------------------------------
 Center     Atomic      Atomic             Coordinates (Angstroms)
 Number     Number       Type             X           Y           Z
 ---------------------------------------------------------------------
      1          6           0       -2.211314    0.739200   -0.000633
      2          6           0       -2.165042   -0.667519   -0.000732
      3          6           0       -0.925017   -1.386041    0.001027
      4          6           0        0.246100   -0.648292    0.001730
      5          6           0        0.224765    0.819590    0.000820
      6          6           0       -1.034752    1.505131    0.000060
      7          7           0        1.578019   -1.115796    0.005333
      8          6           0        1.545408    1.268766   -0.000290
      9          6           0        2.338252   -0.017883   -0.000023
     10          1           0        2.395213   -2.577914   -0.004967
     11          1           0        1.967675    2.272674   -0.000634
     12          1           0        3.435611   -0.118010   -0.001226
     13          1           0       -3.094567   -1.248225   -0.001614
     14          1           0       -0.942288   -2.479843    0.001619
     15          1           0       -3.184708    1.242365   -0.001097
     16          1           0       -1.076452    2.599243    0.001163
 ---------------------------------------------------------------------
                    Distance matrix (angstroms):
                    1          2          3          4          5
     1  C    0.000000
     2  C    1.407480   0.000000
     3  C    2.484192   1.433157   0.000000
     4  C    2.822060   2.411220   1.384121   0.000000
     5  C    2.437406   2.814725   2.487330   1.468037   0.000000
     6  C    1.403905   2.449074   2.893254   2.505556   1.433998
     7  N    4.219016   3.769814   2.517587   1.411589   2.361575
     8  C    3.793863   4.185288   3.626431   2.315883   1.394939
     9  C    4.612128   4.549910   3.538472   2.185067   2.273364
    10  H    5.676562   4.944245   3.527680   2.888283   4.031614
    11  H    4.451459   5.071892   4.664104   3.390556   2.269182
    12  H    5.711617   5.627546   4.541254   3.233294   3.344940
    13  H    2.174855   1.096009   2.173924   3.394110   3.910733
    14  H    3.460154   2.186241   1.093938   2.183311   3.499753
    15  H    1.095752   2.165035   3.466227   3.917274   3.435586
    16  H    2.178917   3.443366   3.988161   3.506512   2.204616
                    6          7          8          9         10
     6  C    0.000000
     7  N    3.700791   0.000000
     8  C    2.590963   2.384791   0.000000
     9  C    3.700908   1.335438   1.511313   0.000000
    10  H    5.332536   1.675023   3.939434   2.560670   0.000000
    11  H    3.098982   3.410806   1.089102   2.320340   4.869396
    12  H    4.755915   2.108617   2.344358   1.101918   2.670874
    13  H    3.438576   4.674468   5.278694   5.570391   5.648519
    14  H    3.986046   2.865761   4.498966   4.101608   3.338948
    15  H    2.165954   5.314559   4.730189   5.664919   6.762401
    16  H    1.094908   4.565934   2.940122   4.302273   6.233415
                   11         12         13         14         15
    11  H    0.000000
    12  H    2.805389   0.000000
    13  H    6.166281   6.627262   0.000000
    14  H    5.572639   4.974360   2.479757   0.000000
    15  H    5.254387   6.758642   2.492221   4.345491   0.000000
    16  H    3.061594   5.267085   4.344630   5.080858   2.507163
                   16
    16  H    0.000000
 Stoichiometry    C8H7N
 Framework group  C1[X(C8H7N)]
 Deg. of freedom    42
 Full point group                 C1      NOp   1
 Largest Abelian subgroup         C1      NOp   1
 Largest concise Abelian subgroup C1      NOp   1
                         Standard orientation:                         
 ---------------------------------------------------------------------
 Center     Atomic      Atomic             Coordinates (Angstroms)
 Number     Number       Type             X           Y           Z
 ---------------------------------------------------------------------
      1          6           0       -2.231185    0.571231   -0.000244
      2          6           0       -2.094195   -0.829566   -0.001069
      3          6           0       -0.810370   -1.466537   -0.000076
      4          6           0        0.310677   -0.654721    0.000620
      5          6           0        0.194623    0.808722    0.000459
      6          6           0       -1.106524    1.411520    0.000454
      7          7           0        1.670000   -1.035265    0.003554
      8          6           0        1.483512    1.342219   -0.000853
      9          6           0        2.357766    0.109439   -0.001493
     10          1           0        2.579877   -2.441572   -0.007750
     11          1           0        1.840087    2.371295   -0.000826
     12          1           0        3.459299    0.080365   -0.003103
     13          1           0       -2.984292   -1.469069   -0.001942
     14          1           0       -0.756990   -2.559171   -0.000031
     15          1           0       -3.235032    1.010506   -0.000138
     16          1           0       -1.218771    2.500658    0.002123
 ---------------------------------------------------------------------
 Rotational constants (GHZ):           3.6247316           1.6171268           1.1182406
 Standard basis: 6-31+G(d) (6D, 7F)
 There are   185 symmetry adapted cartesian basis functions of A   symmetry.
 There are   185 symmetry adapted basis functions of A   symmetry.
   185 basis functions,   316 primitive gaussians,   185 cartesian basis functions
    31 alpha electrons       31 beta electrons
       nuclear repulsion energy       392.5117195967 Hartrees.
 NAtoms=   16 NActive=   16 NUniq=   16 SFac= 1.00D+00 NAtFMM=   60 NAOKFM=F Big=F
 Integral buffers will be    131072 words long.
 Regular integral format.
 Two-electron integral symmetry is turned on.
 One-electron integrals computed using PRISM.
 NBasis=   185 RedAO= T EigKep=  1.33D-06  NBF=   185
 NBsUse=   185 1.00D-06 EigRej= -1.00D+00 NBFU=   185
 Lowest energy guess from the checkpoint file:  "FuncsPBEPBE-V-2nd.chk"
 B after Tr=    -0.000000    0.000000   -0.000000
         Rot=    0.999993    0.000009    0.000008   -0.003736 Ang=   0.43 deg.
 B after Tr=    -0.000000    0.000000   -0.000000
         Rot=    0.999828    0.000067   -0.000017   -0.018522 Ang=   2.12 deg.
 Keep J ints in memory in canonical form, NReq=152071459.
 Requested convergence on RMS density matrix=1.00D-08 within 128 cycles.
 Requested convergence on MAX density matrix=1.00D-06.
 Requested convergence on             energy=1.00D-06.
 No special actions if energy rises.
 EnCoef did     3 forward-backward iterations
 EnCoef did     4 forward-backward iterations
 EnCoef did    13 forward-backward iterations
 Rare condition: small coef for last iteration:  0.444D-15
 EnCoef did   100 forward-backward iterations
 EnCoef did   100 forward-backward iterations
 Rare condition: small coef for last iteration:  0.991D-15
 EnCoef did   100 forward-backward iterations
 EnCoef did   100 forward-backward iterations
 Rare condition: small coef for last iteration:  0.768D-15
 EnCoef did   100 forward-backward iterations
 EnCoef did    28 forward-backward iterations
 Rare condition: small coef for last iteration:  0.173D-14
 EnCoef did   100 forward-backward iterations
 EnCoef did    33 forward-backward iterations
 Rare condition: small coef for last iteration: -0.687D-15
 EnCoef did   100 forward-backward iterations
 EnCoef did   100 forward-backward iterations
 Rare condition: small coef for last iteration: -0.208D-14
 EnCoef did   100 forward-backward iterations
 EnCoef did   100 forward-backward iterations
 Rare condition: small coef for last iteration: -0.276D-14
 EnCoef did   100 forward-backward iterations
 EnCoef did   100 forward-backward iterations
 Rare condition: small coef for last iteration: -0.538D-15
 EnCoef did   100 forward-backward iterations
 EnCoef did   100 forward-backward iterations
 Rare condition: small coef for last iteration: -0.535D-14
 EnCoef did   100 forward-backward iterations
 EnCoef did   100 forward-backward iterations
 Rare condition: small coef for last iteration:  0.263D-14
 EnCoef did   100 forward-backward iterations
 EnCoef did   100 forward-backward iterations
 EnCoef did   100 forward-backward iterations
 EnCoef did    84 forward-backward iterations
 Rare condition: small coef for last iteration: -0.909D-15
 EnCoef did    20 forward-backward iterations
 Rare condition: small coef for last iteration: -0.222D-15
 EnCoef did   100 forward-backward iterations
 Rare condition: small coef for last iteration:  0.000D+00
 EnCoef did   100 forward-backward iterations
 EnCoef did    91 forward-backward iterations
 Rare condition: small coef for last iteration:  0.444D-15
 EnCoef did   100 forward-backward iterations
 EnCoef did   100 forward-backward iterations
 Rare condition: small coef for last iteration:  0.173D-14
 EnCoef did   100 forward-backward iterations
 EnCoef did   100 forward-backward iterations
 EnCoef did   100 forward-backward iterations
 Rare condition: small coef for last iteration: -0.249D-14
 EnCoef did   100 forward-backward iterations
 EnCoef did   100 forward-backward iterations
 EnCoef did   100 forward-backward iterations
 Rare condition: small coef for last iteration: -0.100D-14
 EnCoef did   100 forward-backward iterations
 EnCoef did   100 forward-backward iterations
 EnCoef did   100 forward-backward iterations
 EnCoef did   100 forward-backward iterations
 EnCoef did   100 forward-backward iterations
 EnCoef did   100 forward-backward iterations
 EnCoef did   100 forward-backward iterations
 EnCoef did   100 forward-backward iterations
 EnCoef did   100 forward-backward iterations
 EnCoef did   100 forward-backward iterations
 EnCoef did   100 forward-backward iterations
 EnCoef did   100 forward-backward iterations
 EnCoef did   100 forward-backward iterations
 EnCoef did   100 forward-backward iterations
 EnCoef did   100 forward-backward iterations
 EnCoef did   100 forward-backward iterations
 EnCoef did   100 forward-backward iterations
 EnCoef did   100 forward-backward iterations
 EnCoef did   100 forward-backward iterations
 EnCoef did   100 forward-backward iterations
 EnCoef did   100 forward-backward iterations
 EnCoef did   100 forward-backward iterations
 EnCoef did   100 forward-backward iterations
 EnCoef did   100 forward-backward iterations
 EnCoef did   100 forward-backward iterations
 EnCoef did   100 forward-backward iterations
 EnCoef did   100 forward-backward iterations
 EnCoef did   100 forward-backward iterations
 EnCoef did   100 forward-backward iterations
 EnCoef did   100 forward-backward iterations
 EnCoef did   100 forward-backward iterations
 EnCoef did   100 forward-backward iterations
 EnCoef did   100 forward-backward iterations
 EnCoef did   100 forward-backward iterations
 EnCoef did   100 forward-backward iterations
 EnCoef did   100 forward-backward iterations
 EnCoef did   100 forward-backward iterations
 EnCoef did   100 forward-backward iterations
 EnCoef did   100 forward-backward iterations
 EnCoef did   100 forward-backward iterations
 EnCoef did   100 forward-backward iterations
 EnCoef did    96 forward-backward iterations
 EnCoef did   100 forward-backward iterations
 EnCoef did   100 forward-backward iterations
 EnCoef did    68 forward-backward iterations
 EnCoef did    53 forward-backward iterations
 EnCoef did     1 forward-backward iterations
 EnCoef did   100 forward-backward iterations
 EnCoef did   100 forward-backward iterations
 EnCoef did   100 forward-backward iterations
 Rare condition: small coef for last iteration:  0.000D+00
 EnCoef did   100 forward-backward iterations
 EnCoef did   100 forward-backward iterations
 Rare condition: small coef for last iteration:  0.222D-15
 EnCoef did   100 forward-backward iterations
 EnCoef did   100 forward-backward iterations
 EnCoef did   100 forward-backward iterations
 EnCoef did   100 forward-backward iterations
 Rare condition: small coef for last iteration:  0.118D-14
 EnCoef did   100 forward-backward iterations
 EnCoef did   100 forward-backward iterations
 Rare condition: small coef for last iteration:  0.252D-14
 EnCoef did   100 forward-backward iterations
 EnCoef did   100 forward-backward iterations
 EnCoef did   100 forward-backward iterations
 EnCoef did   100 forward-backward iterations
 EnCoef did   100 forward-backward iterations
 Rare condition: small coef for last iteration: -0.155D-14
 EnCoef did   100 forward-backward iterations
 Rare condition: small coef for last iteration:  0.000D+00
 EnCoef did   100 forward-backward iterations
 EnCoef did   100 forward-backward iterations
 Rare condition: small coef for last iteration:  0.255D-14
 EnCoef did   100 forward-backward iterations
 EnCoef did   100 forward-backward iterations
 Rare condition: small coef for last iteration: -0.689D-15
 EnCoef did   100 forward-backward iterations
 EnCoef did   100 forward-backward iterations
 Rare condition: small coef for last iteration: -0.162D-15
 EnCoef did   100 forward-backward iterations
 Rare condition: small coef for last iteration:  0.000D+00
 EnCoef did   100 forward-backward iterations
 EnCoef did   100 forward-backward iterations
 EnCoef did   100 forward-backward iterations
 EnCoef did   100 forward-backward iterations
 EnCoef did   100 forward-backward iterations
 Rare condition: small coef for last iteration: -0.220D-14
 EnCoef did   100 forward-backward iterations
 EnCoef did   100 forward-backward iterations
 EnCoef did   100 forward-backward iterations
 EnCoef did   100 forward-backward iterations
 EnCoef did   100 forward-backward iterations
 EnCoef did   100 forward-backward iterations
 >>>>>>>>>> Convergence criterion not met.
 SCF Done:  E(RPBE-PBE) =  -362.706861574     A.U. after  129 cycles
            NFock=128  Conv=0.35D+00     -V/T= 2.0102
 Convergence failure -- run terminated.
 Error termination via Lnk1e in /cm/shared/apps/spack/cpu/opt/spack/linux-centos8-zen/gcc-8.3.1/gaussian-16.C.01-po5bqktfeugvmjyga3v7eigbecnokxng/g16/l502.exe at Mon Jun 28 13:26:33 2021.
 Job cpu time:       0 days  3 hours 31 minutes 46.5 seconds.
 Elapsed time:       0 days  0 hours 54 minutes 57.7 seconds.
 File lengths (MBytes):  RWF=    217 Int=      0 D2E=      0 Chk=     11 Scr=      1
