 Entering Gaussian System, Link 0=/cm/shared/apps/spack/cpu/opt/spack/linux-centos8-zen/gcc-8.3.1/gaussian-16.C.01-po5bqktfeugvmjyga3v7eigbecnokxng/g16/g16
 Initial command:
 /cm/shared/apps/spack/cpu/opt/spack/linux-centos8-zen/gcc-8.3.1/gaussian-16.C.01-po5bqktfeugvmjyga3v7eigbecnokxng/g16/l1.exe "/scratch/cwaldt/job_3576257/Gau-122129.inp" -scrdir="/scratch/cwaldt/job_3576257/"
 Entering Link 1 = /cm/shared/apps/spack/cpu/opt/spack/linux-centos8-zen/gcc-8.3.1/gaussian-16.C.01-po5bqktfeugvmjyga3v7eigbecnokxng/g16/l1.exe PID=    122130.
  
 Copyright (c) 1988-2019, Gaussian, Inc.  All Rights Reserved.
  
 This is part of the Gaussian(R) 16 program.  It is based on
 the Gaussian(R) 09 system (copyright 2009, Gaussian, Inc.),
 the Gaussian(R) 03 system (copyright 2003, Gaussian, Inc.),
 the Gaussian(R) 98 system (copyright 1998, Gaussian, Inc.),
 the Gaussian(R) 94 system (copyright 1995, Gaussian, Inc.),
 the Gaussian 92(TM) system (copyright 1992, Gaussian, Inc.),
 the Gaussian 90(TM) system (copyright 1990, Gaussian, Inc.),
 the Gaussian 88(TM) system (copyright 1988, Gaussian, Inc.),
 the Gaussian 86(TM) system (copyright 1986, Carnegie Mellon
 University), and the Gaussian 82(TM) system (copyright 1983,
 Carnegie Mellon University). Gaussian is a federally registered
 trademark of Gaussian, Inc.
  
 This software contains proprietary and confidential information,
 including trade secrets, belonging to Gaussian, Inc.
  
 This software is provided under written license and may be
 used, copied, transmitted, or stored only in accord with that
 written license.
  
 The following legend is applicable only to US Government
 contracts under FAR:
  
                    RESTRICTED RIGHTS LEGEND
  
 Use, reproduction and disclosure by the US Government is
 subject to restrictions as set forth in subparagraphs (a)
 and (c) of the Commercial Computer Software - Restricted
 Rights clause in FAR 52.227-19.
  
 Gaussian, Inc.
 340 Quinnipiac St., Bldg. 40, Wallingford CT 06492
  
  
 ---------------------------------------------------------------
 Warning -- This program may not be used in any manner that
 competes with the business of Gaussian, Inc. or will provide
 assistance to any competitor of Gaussian, Inc.  The licensee
 of this program is prohibited from giving any competitor of
 Gaussian, Inc. access to this program.  By using this program,
 the user acknowledges that Gaussian, Inc. is engaged in the
 business of creating and licensing software in the field of
 computational chemistry and represents and warrants to the
 licensee that it is not a competitor of Gaussian, Inc. and that
 it will not use this program in any manner prohibited above.
 ---------------------------------------------------------------
  

 Cite this work as:
 Gaussian 16, Revision C.01,
 M. J. Frisch, G. W. Trucks, H. B. Schlegel, G. E. Scuseria, 
 M. A. Robb, J. R. Cheeseman, G. Scalmani, V. Barone, 
 G. A. Petersson, H. Nakatsuji, X. Li, M. Caricato, A. V. Marenich, 
 J. Bloino, B. G. Janesko, R. Gomperts, B. Mennucci, H. P. Hratchian, 
 J. V. Ortiz, A. F. Izmaylov, J. L. Sonnenberg, D. Williams-Young, 
 F. Ding, F. Lipparini, F. Egidi, J. Goings, B. Peng, A. Petrone, 
 T. Henderson, D. Ranasinghe, V. G. Zakrzewski, J. Gao, N. Rega, 
 G. Zheng, W. Liang, M. Hada, M. Ehara, K. Toyota, R. Fukuda, 
 J. Hasegawa, M. Ishida, T. Nakajima, Y. Honda, O. Kitao, H. Nakai, 
 T. Vreven, K. Throssell, J. A. Montgomery, Jr., J. E. Peralta, 
 F. Ogliaro, M. J. Bearpark, J. J. Heyd, E. N. Brothers, K. N. Kudin, 
 V. N. Staroverov, T. A. Keith, R. Kobayashi, J. Normand, 
 K. Raghavachari, A. P. Rendell, J. C. Burant, S. S. Iyengar, 
 J. Tomasi, M. Cossi, J. M. Millam, M. Klene, C. Adamo, R. Cammi, 
 J. W. Ochterski, R. L. Martin, K. Morokuma, O. Farkas, 
 J. B. Foresman, and D. J. Fox, Gaussian, Inc., Wallingford CT, 2019.
 
 ******************************************
 Gaussian 16:  AS64L-G16RevC.01  3-Jul-2019
                23-Jun-2021 
 ******************************************
 %nprocshared=4
 Will use up to    4 processors via shared memory.
 %chk=FuncsPBE1PBE-V-3rd.chk
 %Mem=3GB
 -------------------------------------------------------------
 # td= (nstates=6, root=3) PBE1PBE/6-31+G* Opt density=current
 -------------------------------------------------------------
 1/18=20,19=15,26=3,38=1/1,3;
 2/9=110,12=2,17=6,18=5,40=1/2;
 3/5=1,6=6,7=11,11=9,25=1,30=1,71=1,74=-13/1,2,3,8;
 4//1;
 5/5=2,38=5/2;
 8/6=1,10=2,107=3,108=6/1;
 9/8=3,15=2,41=6,42=1,70=2/14;
 10/5=4,28=3/2;
 6/7=2,8=2,9=2,10=2,22=-1/1;
 7/12=6,13=5,14=3/1,2,3,16;
 1/18=20,19=15,26=3/3(2);
 2/9=110/2;
 99//99;
 2/9=110/2;
 3/5=1,6=6,7=11,11=9,25=1,30=1,71=1,74=-13/1,2,3,8;
 4/5=5,16=3,69=1/1;
 5/5=2,38=5/2;
 8/6=1,10=2,107=3,108=6/1;
 9/8=3,15=2,41=6,42=1,49=4,70=2/14;
 10/5=4,28=3/2;
 7/12=6,13=5,14=3/1,2,3,16;
 1/18=20,19=15,26=3/3(-8);
 2/9=110/2;
 6/7=2,8=2,9=2,10=2,22=-1/1;
 99/9=10/99;
 ------------------
 FuncsPBE1PBE-V-3rd
 ------------------
 Symbolic Z-matrix:
 Charge =  0 Multiplicity = 1
 C                    -2.15106   0.68921   0.00009 
 C                    -2.12793  -0.71582   0.00008 
 C                    -0.9323   -1.4131   -0.00001 
 C                     0.24691  -0.6702   -0.00004 
 C                     0.24819   0.7483    0. 
 C                    -0.97947   1.42353   0.00003 
 N                     1.56177  -1.07759  -0.00029 
 C                     1.62013   1.1629   -0.00016 
 C                     2.38201   0.03081   0.00025 
 H                     1.87632  -2.03001   0.00044 
 H                     1.99217   2.17301  -0.00035 
 H                     3.45255  -0.08243   0.00041 
 H                    -3.06159  -1.26202   0.00009 
 H                    -0.91725  -2.49534  -0.00007 
 H                    -3.1042    1.20079   0.00009 
 H                    -1.00935   2.50542  -0.00002 
 

 GradGradGradGradGradGradGradGradGradGradGradGradGradGradGradGradGradGrad
 Berny optimization.
 Initialization pass.
                           ----------------------------
                           !    Initial Parameters    !
                           ! (Angstroms and Degrees)  !
 --------------------------                            --------------------------
 ! Name  Definition              Value          Derivative Info.                !
 --------------------------------------------------------------------------------
 ! R1    R(1,2)                  1.4052         estimate D2E/DX2                !
 ! R2    R(1,6)                  1.3827         estimate D2E/DX2                !
 ! R3    R(1,15)                 1.0818         estimate D2E/DX2                !
 ! R4    R(2,3)                  1.3841         estimate D2E/DX2                !
 ! R5    R(2,13)                 1.0817         estimate D2E/DX2                !
 ! R6    R(3,4)                  1.3937         estimate D2E/DX2                !
 ! R7    R(3,14)                 1.0823         estimate D2E/DX2                !
 ! R8    R(4,5)                  1.4185         estimate D2E/DX2                !
 ! R9    R(4,7)                  1.3765         estimate D2E/DX2                !
 ! R10   R(5,6)                  1.4011         estimate D2E/DX2                !
 ! R11   R(5,8)                  1.4332         estimate D2E/DX2                !
 ! R12   R(6,16)                 1.0823         estimate D2E/DX2                !
 ! R13   R(7,9)                  1.3789         estimate D2E/DX2                !
 ! R14   R(7,10)                 1.003          estimate D2E/DX2                !
 ! R15   R(8,9)                  1.3646         estimate D2E/DX2                !
 ! R16   R(8,11)                 1.0764         estimate D2E/DX2                !
 ! R17   R(9,12)                 1.0765         estimate D2E/DX2                !
 ! A1    A(2,1,6)              121.1349         estimate D2E/DX2                !
 ! A2    A(2,1,15)             119.1671         estimate D2E/DX2                !
 ! A3    A(6,1,15)             119.698          estimate D2E/DX2                !
 ! A4    A(1,2,3)              121.1938         estimate D2E/DX2                !
 ! A5    A(1,2,13)             119.3846         estimate D2E/DX2                !
 ! A6    A(3,2,13)             119.4217         estimate D2E/DX2                !
 ! A7    A(2,3,4)              117.5387         estimate D2E/DX2                !
 ! A8    A(2,3,14)             121.0469         estimate D2E/DX2                !
 ! A9    A(4,3,14)             121.4144         estimate D2E/DX2                !
 ! A10   A(3,4,5)              122.2626         estimate D2E/DX2                !
 ! A11   A(3,4,7)              130.5743         estimate D2E/DX2                !
 ! A12   A(5,4,7)              107.163          estimate D2E/DX2                !
 ! A13   A(4,5,6)              118.7594         estimate D2E/DX2                !
 ! A14   A(4,5,8)              106.8666         estimate D2E/DX2                !
 ! A15   A(6,5,8)              134.374          estimate D2E/DX2                !
 ! A16   A(1,6,5)              119.1105         estimate D2E/DX2                !
 ! A17   A(1,6,16)             120.4966         estimate D2E/DX2                !
 ! A18   A(5,6,16)             120.3928         estimate D2E/DX2                !
 ! A19   A(4,7,9)              109.2874         estimate D2E/DX2                !
 ! A20   A(4,7,10)             125.4909         estimate D2E/DX2                !
 ! A21   A(9,7,10)             125.2217         estimate D2E/DX2                !
 ! A22   A(5,8,9)              107.125          estimate D2E/DX2                !
 ! A23   A(5,8,11)             127.0344         estimate D2E/DX2                !
 ! A24   A(9,8,11)             125.8405         estimate D2E/DX2                !
 ! A25   A(7,9,8)              109.5578         estimate D2E/DX2                !
 ! A26   A(7,9,12)             120.4645         estimate D2E/DX2                !
 ! A27   A(8,9,12)             129.9776         estimate D2E/DX2                !
 ! D1    D(6,1,2,3)             -0.0008         estimate D2E/DX2                !
 ! D2    D(6,1,2,13)          -179.9981         estimate D2E/DX2                !
 ! D3    D(15,1,2,3)           179.996          estimate D2E/DX2                !
 ! D4    D(15,1,2,13)           -0.0013         estimate D2E/DX2                !
 ! D5    D(2,1,6,5)             -0.0018         estimate D2E/DX2                !
 ! D6    D(2,1,6,16)           179.9965         estimate D2E/DX2                !
 ! D7    D(15,1,6,5)          -179.9986         estimate D2E/DX2                !
 ! D8    D(15,1,6,16)           -0.0003         estimate D2E/DX2                !
 ! D9    D(1,2,3,4)              0.002          estimate D2E/DX2                !
 ! D10   D(1,2,3,14)          -179.9968         estimate D2E/DX2                !
 ! D11   D(13,2,3,4)           179.9992         estimate D2E/DX2                !
 ! D12   D(13,2,3,14)            0.0005         estimate D2E/DX2                !
 ! D13   D(2,3,4,5)             -0.0005         estimate D2E/DX2                !
 ! D14   D(2,3,4,7)           -179.9911         estimate D2E/DX2                !
 ! D15   D(14,3,4,5)           179.9982         estimate D2E/DX2                !
 ! D16   D(14,3,4,7)             0.0076         estimate D2E/DX2                !
 ! D17   D(3,4,5,6)             -0.002          estimate D2E/DX2                !
 ! D18   D(3,4,5,8)           -179.9955         estimate D2E/DX2                !
 ! D19   D(7,4,5,6)            179.9905         estimate D2E/DX2                !
 ! D20   D(7,4,5,8)             -0.003          estimate D2E/DX2                !
 ! D21   D(3,4,7,9)           -179.98           estimate D2E/DX2                !
 ! D22   D(3,4,7,10)            -0.0649         estimate D2E/DX2                !
 ! D23   D(5,4,7,9)              0.0284         estimate D2E/DX2                !
 ! D24   D(5,4,7,10)           179.9434         estimate D2E/DX2                !
 ! D25   D(4,5,6,1)              0.0031         estimate D2E/DX2                !
 ! D26   D(4,5,6,16)          -179.9951         estimate D2E/DX2                !
 ! D27   D(8,5,6,1)            179.9944         estimate D2E/DX2                !
 ! D28   D(8,5,6,16)            -0.0038         estimate D2E/DX2                !
 ! D29   D(4,5,8,9)             -0.0234         estimate D2E/DX2                !
 ! D30   D(4,5,8,11)           179.9883         estimate D2E/DX2                !
 ! D31   D(6,5,8,9)            179.9846         estimate D2E/DX2                !
 ! D32   D(6,5,8,11)            -0.0037         estimate D2E/DX2                !
 ! D33   D(4,7,9,8)             -0.0444         estimate D2E/DX2                !
 ! D34   D(4,7,9,12)           179.9847         estimate D2E/DX2                !
 ! D35   D(10,7,9,8)          -179.9597         estimate D2E/DX2                !
 ! D36   D(10,7,9,12)            0.0693         estimate D2E/DX2                !
 ! D37   D(5,8,9,7)              0.0414         estimate D2E/DX2                !
 ! D38   D(5,8,9,12)          -179.9913         estimate D2E/DX2                !
 ! D39   D(11,8,9,7)          -179.9702         estimate D2E/DX2                !
 ! D40   D(11,8,9,12)           -0.0029         estimate D2E/DX2                !
 --------------------------------------------------------------------------------
 Trust Radius=3.00D-01 FncErr=1.00D-07 GrdErr=1.00D-06 EigMax=2.50D+02 EigMin=1.00D-04
 Number of steps in this run=     94 maximum allowed number of steps=    100.
 GradGradGradGradGradGradGradGradGradGradGradGradGradGradGradGradGradGrad

                          Input orientation:                          
 ---------------------------------------------------------------------
 Center     Atomic      Atomic             Coordinates (Angstroms)
 Number     Number       Type             X           Y           Z
 ---------------------------------------------------------------------
      1          6           0       -2.151063    0.689208    0.000088
      2          6           0       -2.127927   -0.715818    0.000075
      3          6           0       -0.932297   -1.413100   -0.000011
      4          6           0        0.246911   -0.670201   -0.000042
      5          6           0        0.248193    0.748299    0.000000
      6          6           0       -0.979474    1.423526    0.000032
      7          7           0        1.561774   -1.077592   -0.000285
      8          6           0        1.620133    1.162900   -0.000157
      9          6           0        2.382013    0.030806    0.000248
     10          1           0        1.876315   -2.030011    0.000438
     11          1           0        1.992173    2.173010   -0.000348
     12          1           0        3.452549   -0.082425    0.000408
     13          1           0       -3.061594   -1.262020    0.000088
     14          1           0       -0.917252   -2.495342   -0.000073
     15          1           0       -3.104203    1.200785    0.000090
     16          1           0       -1.009348    2.505421   -0.000015
 ---------------------------------------------------------------------
                    Distance matrix (angstroms):
                    1          2          3          4          5
     1  C    0.000000
     2  C    1.405216   0.000000
     3  C    2.430039   1.384100   0.000000
     4  C    2.756496   2.375276   1.393711   0.000000
     5  C    2.399984   2.790983   2.462763   1.418501   0.000000
     6  C    1.382694   2.428114   2.837018   2.426461   1.401106
     7  N    4.111781   3.707395   2.516536   1.376529   2.249305
     8  C    3.800829   4.192557   3.626386   2.290414   1.433218
     9  C    4.580641   4.571324   3.615178   2.247236   2.251218
    10  H    4.859416   4.214387   2.875566   2.122273   3.220216
    11  H    4.400917   5.031953   4.627387   3.336134   2.251948
    12  H    5.656491   5.616307   4.582311   3.259079   3.310287
    13  H    2.153220   1.081698   2.134650   3.361020   3.872476
    14  H    3.415208   2.152310   1.082347   2.164813   3.446661
    15  H    1.081752   2.150926   3.398466   3.838040   3.382795
    16  H    2.145261   3.409927   3.919278   3.415079   2.160761
                    6          7          8          9         10
     6  C    0.000000
     7  N    3.565604   0.000000
     8  C    2.612639   2.241252   0.000000
     9  C    3.638580   1.378890   1.364587   0.000000
    10  H    4.481345   1.003015   3.203172   2.121956   0.000000
    11  H    3.064704   3.278972   1.076446   2.177387   4.204618
    12  H    4.680888   2.136677   2.215532   1.076508   2.505515
    13  H    3.398144   4.627045   5.272457   5.595021   4.997275
    14  H    3.919362   2.855798   4.452085   4.155307   2.832058
    15  H    2.136372   5.192528   4.724488   5.609583   5.936632
    16  H    1.082307   4.410062   2.952378   4.198220   5.375611
                   11         12         13         14         15
    11  H    0.000000
    12  H    2.686947   0.000000
    13  H    6.110646   6.620083   0.000000
    14  H    5.500751   4.991726   2.473719   0.000000
    15  H    5.188282   6.681139   2.463174   4.294661   0.000000
    16  H    3.019872   5.158049   4.290143   5.001611   2.467892
                   16
    16  H    0.000000
 Stoichiometry    C8H7N
 Framework group  C1[X(C8H7N)]
 Deg. of freedom    42
 Full point group                 C1      NOp   1
 Largest Abelian subgroup         C1      NOp   1
 Largest concise Abelian subgroup C1      NOp   1
                         Standard orientation:                         
 ---------------------------------------------------------------------
 Center     Atomic      Atomic             Coordinates (Angstroms)
 Number     Number       Type             X           Y           Z
 ---------------------------------------------------------------------
      1          6           0       -2.151063    0.689208    0.000088
      2          6           0       -2.127927   -0.715818    0.000075
      3          6           0       -0.932297   -1.413100   -0.000011
      4          6           0        0.246911   -0.670201   -0.000042
      5          6           0        0.248193    0.748299    0.000000
      6          6           0       -0.979474    1.423526    0.000032
      7          7           0        1.561774   -1.077592   -0.000285
      8          6           0        1.620133    1.162900   -0.000157
      9          6           0        2.382013    0.030806    0.000248
     10          1           0        1.876315   -2.030011    0.000438
     11          1           0        1.992173    2.173010   -0.000348
     12          1           0        3.452549   -0.082425    0.000408
     13          1           0       -3.061594   -1.262020    0.000088
     14          1           0       -0.917252   -2.495342   -0.000073
     15          1           0       -3.104203    1.200785    0.000090
     16          1           0       -1.009348    2.505421   -0.000015
 ---------------------------------------------------------------------
 Rotational constants (GHZ):           3.9080822           1.6429452           1.1566805
 Standard basis: 6-31+G(d) (6D, 7F)
 There are   185 symmetry adapted cartesian basis functions of A   symmetry.
 There are   185 symmetry adapted basis functions of A   symmetry.
   185 basis functions,   316 primitive gaussians,   185 cartesian basis functions
    31 alpha electrons       31 beta electrons
       nuclear repulsion energy       401.3368668897 Hartrees.
 NAtoms=   16 NActive=   16 NUniq=   16 SFac= 1.00D+00 NAtFMM=   60 NAOKFM=F Big=F
 Integral buffers will be    131072 words long.
 Regular integral format.
 Two-electron integral symmetry is turned on.
 One-electron integrals computed using PRISM.
 NBasis=   185 RedAO= T EigKep=  1.26D-06  NBF=   185
 NBsUse=   185 1.00D-06 EigRej= -1.00D+00 NBFU=   185
 ExpMin= 4.38D-02 ExpMax= 4.17D+03 ExpMxC= 6.27D+02 IAcc=3 IRadAn=         5 AccDes= 0.00D+00
 Harris functional with IExCor= 1009 and IRadAn=       5 diagonalized for initial guess.
 HarFok:  IExCor= 1009 AccDes= 0.00D+00 IRadAn=         5 IDoV= 1 UseB2=F ITyADJ=14
 ICtDFT=  3500011 ScaDFX=  1.000000  1.000000  1.000000  1.000000
 FoFCou: FMM=F IPFlag=           0 FMFlag=      100000 FMFlg1=           0
         NFxFlg=           0 DoJE=T BraDBF=F KetDBF=T FulRan=T
         wScrn=  0.000000 ICntrl=       500 IOpCl=  0 I1Cent=   200000004 NGrid=           0
         NMat0=    1 NMatS0=      1 NMatT0=    0 NMatD0=    1 NMtDS0=    0 NMtDT0=    0
 Petite list used in FoFCou.
 Keep R1 ints in memory in canonical form, NReq=152071459.
 Requested convergence on RMS density matrix=1.00D-08 within 128 cycles.
 Requested convergence on MAX density matrix=1.00D-06.
 Requested convergence on             energy=1.00D-06.
 No special actions if energy rises.
 SCF Done:  E(RPBE1PBE) =  -363.403722658     A.U. after   14 cycles
            NFock= 14  Conv=0.58D-08     -V/T= 2.0087
 DoSCS=F DFT=T ScalE2(SS,OS)=  1.000000  1.000000
 ExpMin= 4.38D-02 ExpMax= 4.17D+03 ExpMxC= 6.27D+02 IAcc=3 IRadAn=         5 AccDes= 0.00D+00
 HarFok:  IExCor=  205 AccDes= 0.00D+00 IRadAn=         5 IDoV=-2 UseB2=F ITyADJ=14
 ICtDFT= 12500011 ScaDFX=  1.000000  1.000000  1.000000  1.000000
 Range of M.O.s used for correlation:    10   185
 NBasis=   185 NAE=    31 NBE=    31 NFC=     9 NFV=     0
 NROrb=    176 NOA=    22 NOB=    22 NVA=   154 NVB=   154

 **** Warning!!: The largest alpha MO coefficient is  0.17264114D+03

 Orbital symmetries:
       Occupied  (A) (A) (A) (A) (A) (A) (A) (A) (A) (A) (A) (A)
                 (A) (A) (A) (A) (A) (A) (A) (A) (A) (A) (A) (A)
                 (A) (A) (A) (A) (A) (A) (A)
       Virtual   (A) (A) (A) (A) (A) (A) (A) (A) (A) (A) (A) (A)
                 (A) (A) (A) (A) (A) (A) (A) (A) (A) (A) (A) (A)
                 (A) (A) (A) (A) (A) (A) (A) (A) (A) (A) (A) (A)
                 (A) (A) (A) (A) (A) (A) (A) (A) (A) (A) (A) (A)
                 (A) (A) (A) (A) (A) (A) (A) (A) (A) (A) (A) (A)
                 (A) (A) (A) (A) (A) (A) (A) (A) (A) (A) (A) (A)
                 (A) (A) (A) (A) (A) (A) (A) (A) (A) (A) (A) (A)
                 (A) (A) (A) (A) (A) (A) (A) (A) (A) (A) (A) (A)
                 (A) (A) (A) (A) (A) (A) (A) (A) (A) (A) (A) (A)
                 (A) (A) (A) (A) (A) (A) (A) (A) (A) (A) (A) (A)
                 (A) (A) (A) (A) (A) (A) (A) (A) (A) (A) (A) (A)
                 (A) (A) (A) (A) (A) (A) (A) (A) (A) (A) (A) (A)
                 (A) (A) (A) (A) (A) (A) (A) (A) (A) (A)
    24 initial guesses have been made.
 Convergence on wavefunction:    0.000001000000000
 Iteration     1 Dimension    24 NMult     0 NNew     24
 CISAX will form    24 AO SS matrices at one time.
 New state      1 was old state      3
 New state      3 was old state      1
 New state      6 was old state      7
 Iteration     2 Dimension    36 NMult    24 NNew     12
 New state      1 was old state      3
 New state      3 was old state      1
 Iteration     3 Dimension    48 NMult    36 NNew     12
 Iteration     4 Dimension    60 NMult    48 NNew     12
 Iteration     5 Dimension    72 NMult    60 NNew     12
 Iteration     6 Dimension    84 NMult    72 NNew     12
 Iteration     7 Dimension    96 NMult    84 NNew     12
 Iteration     8 Dimension   108 NMult    96 NNew     12
 Iteration     9 Dimension   118 NMult   108 NNew     10
 Iteration    10 Dimension   122 NMult   118 NNew      4
 Iteration    11 Dimension   126 NMult   122 NNew      4
 ***********************************************************************
 Excited states from <AA,BB:AA,BB> singles matrix:
 ***********************************************************************
 
 Ground to excited state transition densities written to RWF  633
 Ground to excited state transition electric dipole moments (Au):
       state          X           Y           Z        Dip. S.      Osc.
         1        -0.5410      0.6327     -0.0002      0.6931      0.0829
         2        -0.5685     -0.0945     -0.0002      0.3321      0.0408
         3         0.0011     -0.0005     -0.1305      0.0170      0.0021
         4        -0.0004      0.0001     -0.1419      0.0201      0.0028
         5         0.0005     -0.0000      0.0184      0.0003      0.0000
         6         0.0006      0.0002      0.1075      0.0116      0.0016
 Ground to excited state transition velocity dipole moments (Au):
       state          X           Y           Z        Dip. S.      Osc.
         1         0.0880     -0.1228      0.0000      0.0228      0.0848
         2         0.0989      0.0179      0.0000      0.0101      0.0365
         3        -0.0002      0.0001      0.0161      0.0003      0.0009
         4         0.0001     -0.0000      0.0306      0.0009      0.0030
         5        -0.0001      0.0000     -0.0029      0.0000      0.0000
         6        -0.0001     -0.0000     -0.0229      0.0005      0.0016
 Ground to excited state transition magnetic dipole moments (Au):
       state          X           Y           Z
         1         0.0003     -0.0001      0.1845
         2         0.0000     -0.0002     -0.0293
         3         0.1229     -0.0692      0.0001
         4         0.0549     -0.2386     -0.0000
         5         0.3184     -0.1338      0.0002
         6         0.0995      0.3733      0.0005
 Ground to excited state transition velocity quadrupole moments (Au):
       state          XX          YY          ZZ          XY          XZ          YZ
         1         0.1952     -0.1103      0.0112      0.0479      0.0001      0.0001
         2         0.0773     -0.1157      0.0262      0.0005      0.0001     -0.0000
         3        -0.0003      0.0002      0.0001      0.0000      0.0604      0.0544
         4        -0.0000      0.0000     -0.0000     -0.0000      0.1676     -0.0033
         5        -0.0002     -0.0000      0.0000      0.0002      0.1705      0.2685
         6         0.0001     -0.0001      0.0001      0.0002     -0.3297      0.0054
 <0|del|b> * <b|rxdel|0> + <0|del|b> * <b|delr+rdel|0>
 Rotatory Strengths (R) in cgs (10**-40 erg-esu-cm/Gauss)
       state          XX          YY          ZZ    R(velocity)    E-M Angle
         1         0.0507      0.0756      0.0257      0.0507       90.00
         2        -0.0148      0.0028      0.0016     -0.0035       90.00
         3        -0.0250     -0.0588     -0.0250     -0.0362       90.00
         4         0.0139      0.0079      0.0113      0.0110       90.00
         5        -0.0038     -0.1011     -0.0084     -0.0378       90.00
         6        -0.0697     -0.0319     -0.0220     -0.0412       90.00
 1/2[<0|r|b>*<b|rxdel|0> + (<0|rxdel|b>*<b|r|0>)*]
 Rotatory Strengths (R) in cgs (10**-40 erg-esu-cm/Gauss)
       state          XX          YY          ZZ     R(length)
         1         0.1191      0.0260      0.0232      0.0561
         2         0.0101     -0.0162     -0.0039     -0.0033
         3        -0.0930     -0.0261      0.0048     -0.0381
         4         0.0154      0.0157     -0.0007      0.0101
         5        -0.1136     -0.0017     -0.0030     -0.0394
         6        -0.0437     -0.0585     -0.0395     -0.0472
  1/2[<0|del|b>*<b|r|0> + (<0|r|b>*<b|del|0>)*] (Au)
       state          X           Y           Z        Dip. S.   Osc.(frdel)
         1        -0.0476     -0.0777     -0.0000      0.1253      0.0836
         2        -0.0562     -0.0017     -0.0000      0.0579      0.0386
         3        -0.0000     -0.0000     -0.0021      0.0021      0.0014
         4        -0.0000     -0.0000     -0.0043      0.0043      0.0029
         5        -0.0000     -0.0000     -0.0001      0.0001      0.0000
         6        -0.0000     -0.0000     -0.0025      0.0025      0.0016

 Excitation energies and oscillator strengths:
 
 Excited State   1:      Singlet-A      4.8822 eV  253.95 nm  f=0.0829  <S**2>=0.000
      30 -> 32        -0.14802
      30 -> 35         0.15576
      31 -> 32         0.66069
 
 Excited State   2:      Singlet-A      5.0149 eV  247.23 nm  f=0.0408  <S**2>=0.000
      30 -> 32         0.56341
      31 -> 32         0.12971
      31 -> 35        -0.39540
 
 Excited State   3:      Singlet-A      5.1232 eV  242.00 nm  f=0.0021  <S**2>=0.000
      31 -> 33         0.70256
 This state for optimization and/or second-order correction.
 Total Energy, E(TD-HF/TD-DFT) =  -363.215447512    
 Copying the excited state density for this state as the 1-particle RhoCI density.
 
 Excited State   4:      Singlet-A      5.6004 eV  221.39 nm  f=0.0028  <S**2>=0.000
      30 -> 33         0.68762
      31 -> 34         0.12787
 
 Excited State   5:      Singlet-A      5.7133 eV  217.01 nm  f=0.0000  <S**2>=0.000
      30 -> 33        -0.13102
      31 -> 34         0.68701
 
 Excited State   6:      Singlet-A      5.8202 eV  213.02 nm  f=0.0016  <S**2>=0.000
      31 -> 36         0.69473
 SavETr:  write IOETrn=   770 NScale= 10 NData=  16 NLR=1 NState=    6 LETran=     118.
          IDoAtm=1111111111111111
          Differentiating once with respect to electric field.
                with respect to dipole field.
          Differentiating once with respect to nuclear coordinates.
 Keep R1 ints in memory in canonical form, NReq=152083851.
          There are     1 degrees of freedom in the 1st order CPHF.  IDoFFX=0 NUNeed=     1.
 LinEq1:  Iter=  0 NonCon=     1 RMS=1.16D-02 Max=2.71D-01 NDo=     1
 AX will form     1 AO Fock derivatives at one time.
 LinEq1:  Iter=  1 NonCon=     1 RMS=5.79D-03 Max=1.22D-01 NDo=     1
 LinEq1:  Iter=  2 NonCon=     1 RMS=4.25D-03 Max=1.01D-01 NDo=     1
 LinEq1:  Iter=  3 NonCon=     1 RMS=1.76D-03 Max=4.97D-02 NDo=     1
 LinEq1:  Iter=  4 NonCon=     1 RMS=1.02D-03 Max=1.56D-02 NDo=     1
 LinEq1:  Iter=  5 NonCon=     1 RMS=4.21D-04 Max=1.27D-02 NDo=     1
 LinEq1:  Iter=  6 NonCon=     1 RMS=3.39D-04 Max=8.45D-03 NDo=     1
 LinEq1:  Iter=  7 NonCon=     1 RMS=1.00D-04 Max=2.27D-03 NDo=     1
 LinEq1:  Iter=  8 NonCon=     1 RMS=7.85D-05 Max=2.14D-03 NDo=     1
 LinEq1:  Iter=  9 NonCon=     1 RMS=2.45D-05 Max=5.95D-04 NDo=     1
 LinEq1:  Iter= 10 NonCon=     1 RMS=1.53D-05 Max=4.88D-04 NDo=     1
 LinEq1:  Iter= 11 NonCon=     1 RMS=7.36D-06 Max=2.37D-04 NDo=     1
 LinEq1:  Iter= 12 NonCon=     1 RMS=3.14D-06 Max=8.44D-05 NDo=     1
 LinEq1:  Iter= 13 NonCon=     1 RMS=1.49D-06 Max=1.40D-05 NDo=     1
 LinEq1:  Iter= 14 NonCon=     1 RMS=4.16D-07 Max=8.27D-06 NDo=     1
 LinEq1:  Iter= 15 NonCon=     1 RMS=1.95D-07 Max=3.85D-06 NDo=     1
 LinEq1:  Iter= 16 NonCon=     1 RMS=7.36D-08 Max=9.93D-07 NDo=     1
 LinEq1:  Iter= 17 NonCon=     1 RMS=1.43D-08 Max=2.30D-07 NDo=     1
 LinEq1:  Iter= 18 NonCon=     1 RMS=3.69D-09 Max=8.10D-08 NDo=     1
 LinEq1:  Iter= 19 NonCon=     1 RMS=1.90D-09 Max=2.68D-08 NDo=     1
 LinEq1:  Iter= 20 NonCon=     1 RMS=6.31D-10 Max=7.64D-09 NDo=     1
 LinEq1:  Iter= 21 NonCon=     1 RMS=1.05D-10 Max=1.07D-09 NDo=     1
 LinEq1:  Iter= 22 NonCon=     0 RMS=1.63D-11 Max=1.29D-10 NDo=     1
 Linear equations converged to 1.000D-10 1.000D-09 after    22 iterations.
 End of Minotr F.D. properties file   721 does not exist.
 End of Minotr F.D. properties file   722 does not exist.
 End of Minotr F.D. properties file   788 does not exist.

 **********************************************************************

            Population analysis using the CI Density.

 **********************************************************************

 Orbital symmetries:
       Occupied  (A) (A) (A) (A) (A) (A) (A) (A) (A) (A) (A) (A)
                 (A) (A) (A) (A) (A) (A) (A) (A) (A) (A) (A) (A)
                 (A) (A) (A) (A) (A) (A) (A)
       Virtual   (A) (A) (A) (A) (A) (A) (A) (A) (A) (A) (A) (A)
                 (A) (A) (A) (A) (A) (A) (A) (A) (A) (A) (A) (A)
                 (A) (A) (A) (A) (A) (A) (A) (A) (A) (A) (A) (A)
                 (A) (A) (A) (A) (A) (A) (A) (A) (A) (A) (A) (A)
                 (A) (A) (A) (A) (A) (A) (A) (A) (A) (A) (A) (A)
                 (A) (A) (A) (A) (A) (A) (A) (A) (A) (A) (A) (A)
                 (A) (A) (A) (A) (A) (A) (A) (A) (A) (A) (A) (A)
                 (A) (A) (A) (A) (A) (A) (A) (A) (A) (A) (A) (A)
                 (A) (A) (A) (A) (A) (A) (A) (A) (A) (A) (A) (A)
                 (A) (A) (A) (A) (A) (A) (A) (A) (A) (A) (A) (A)
                 (A) (A) (A) (A) (A) (A) (A) (A) (A) (A) (A) (A)
                 (A) (A) (A) (A) (A) (A) (A) (A) (A) (A) (A) (A)
                 (A) (A) (A) (A) (A) (A) (A) (A) (A) (A)
 The electronic state is 1-A.
 Alpha  occ. eigenvalues --  -14.45155 -10.27217 -10.27032 -10.23997 -10.23618
 Alpha  occ. eigenvalues --  -10.23460 -10.23451 -10.22938 -10.22709  -1.01448
 Alpha  occ. eigenvalues --   -0.86831  -0.81005  -0.76132  -0.74267  -0.64673
 Alpha  occ. eigenvalues --   -0.61656  -0.60292  -0.55980  -0.50086  -0.48844
 Alpha  occ. eigenvalues --   -0.45397  -0.44516  -0.44009  -0.42673  -0.40677
 Alpha  occ. eigenvalues --   -0.36900  -0.35016  -0.34813  -0.29298  -0.23528
 Alpha  occ. eigenvalues --   -0.21822
 Alpha virt. eigenvalues --   -0.01193   0.00610   0.02489   0.02496   0.03049
 Alpha virt. eigenvalues --    0.04590   0.04692   0.05279   0.06703   0.06886
 Alpha virt. eigenvalues --    0.07501   0.07532   0.09374   0.09721   0.11545
 Alpha virt. eigenvalues --    0.11586   0.11996   0.13456   0.14374   0.14769
 Alpha virt. eigenvalues --    0.16338   0.16513   0.17520   0.17622   0.18074
 Alpha virt. eigenvalues --    0.19035   0.19589   0.19801   0.20613   0.20876
 Alpha virt. eigenvalues --    0.21079   0.21325   0.22795   0.23375   0.24053
 Alpha virt. eigenvalues --    0.24501   0.24720   0.25562   0.26629   0.27017
 Alpha virt. eigenvalues --    0.28065   0.28221   0.28874   0.30678   0.31253
 Alpha virt. eigenvalues --    0.32050   0.32652   0.34295   0.36195   0.37868
 Alpha virt. eigenvalues --    0.39042   0.41135   0.44829   0.46264   0.52720
 Alpha virt. eigenvalues --    0.59590   0.64125   0.68975   0.69118   0.71685
 Alpha virt. eigenvalues --    0.73258   0.73863   0.74672   0.75470   0.75947
 Alpha virt. eigenvalues --    0.77109   0.77530   0.79582   0.81059   0.81791
 Alpha virt. eigenvalues --    0.83145   0.87164   0.91184   0.91902   0.93059
 Alpha virt. eigenvalues --    0.95340   0.96090   0.96962   0.97837   1.00104
 Alpha virt. eigenvalues --    1.02116   1.04791   1.06412   1.08104   1.10931
 Alpha virt. eigenvalues --    1.12819   1.13186   1.18634   1.19476   1.22034
 Alpha virt. eigenvalues --    1.23961   1.24514   1.26790   1.33117   1.33442
 Alpha virt. eigenvalues --    1.35177   1.38498   1.42583   1.43319   1.46886
 Alpha virt. eigenvalues --    1.47187   1.47875   1.50993   1.51565   1.55553
 Alpha virt. eigenvalues --    1.60590   1.66602   1.80263   1.86144   1.90108
 Alpha virt. eigenvalues --    1.90685   1.93987   1.96093   2.01345   2.01601
 Alpha virt. eigenvalues --    2.02091   2.08182   2.11873   2.16051   2.19012
 Alpha virt. eigenvalues --    2.19166   2.21736   2.26565   2.27761   2.28288
 Alpha virt. eigenvalues --    2.30461   2.33372   2.39892   2.42674   2.46621
 Alpha virt. eigenvalues --    2.56863   2.57734   2.65775   2.67942   2.68940
 Alpha virt. eigenvalues --    2.72189   2.75834   2.83200   2.86918   2.88078
 Alpha virt. eigenvalues --    2.97740   3.00237   3.13635   3.26723   3.47296
 Alpha virt. eigenvalues --    4.18206   4.29406   4.32378   4.35836   4.39424
 Alpha virt. eigenvalues --    4.42961   4.51295   4.55217   4.82201
          Condensed to atoms (all electrons):
               1          2          3          4          5          6
     1  C   24.678221   6.608104  -1.812636 -18.393258  -9.188897 -12.394032
     2  C    6.608104  27.911844   5.067818 -28.803862  11.733933 -27.430681
     3  C   -1.812636   5.067818  22.838593  -3.806577  -3.318234 -13.395642
     4  C  -18.393258 -28.803862  -3.806577 100.074695 -27.659011  32.078591
     5  C   -9.188897  11.733933  -3.318234 -27.659011  90.196654 -27.410535
     6  C  -12.394032 -27.430681 -13.395642  32.078591 -27.410535  64.262055
     7  N   -0.363233  -0.860526   1.603879   5.657913  -4.955443   0.891478
     8  C   26.205956  20.168051  -5.436540 -95.564994 -42.275828 -12.449962
     9  C   -9.616729  -7.859380   4.087834  43.269851  16.979266   1.935206
    10  H   -0.005271  -0.038852  -0.671329  -0.125305   1.095371   0.059125
    11  H    0.002386   0.002693   0.005804   0.027490   0.010971  -0.016437
    12  H    0.006555   0.002146   0.041418   0.112130  -0.267192   0.011098
    13  H    0.086581   0.119460   0.008990   0.096704  -0.063634   0.070361
    14  H   -0.018313   0.139670   0.056048   0.071277   0.073910  -0.008695
    15  H    0.285746   0.115441   0.027707  -0.069736   0.059196  -0.126159
    16  H    0.024624  -0.023692  -0.030366   0.032115   0.122592   0.251156
               7          8          9         10         11         12
     1  C   -0.363233  26.205956  -9.616729  -0.005271   0.002386   0.006555
     2  C   -0.860526  20.168051  -7.859380  -0.038852   0.002693   0.002146
     3  C    1.603879  -5.436540   4.087834  -0.671329   0.005804   0.041418
     4  C    5.657913 -95.564994  43.269851  -0.125305   0.027490   0.112130
     5  C   -4.955443 -42.275828  16.979266   1.095371   0.010971  -0.267192
     6  C    0.891478 -12.449962   1.935206   0.059125  -0.016437   0.011098
     7  N   12.917361 -20.806752  12.982955  -0.719303   0.003679  -0.074828
     8  C  -20.806752 272.275779-133.936091   1.839748   0.288403   0.647268
     9  C   12.982955-133.936091  76.726564  -1.248020  -0.015174  -0.147177
    10  H   -0.719303   1.839748  -1.248020   0.406897  -0.000018   0.002162
    11  H    0.003679   0.288403  -0.015174  -0.000018   0.420608  -0.000724
    12  H   -0.074828   0.647268  -0.147177   0.002162  -0.000724   0.363556
    13  H    0.002267  -0.021418   0.010075  -0.000016   0.000000  -0.000000
    14  H   -0.014958   0.016211  -0.002412   0.000761   0.000001   0.000002
    15  H   -0.000298   0.028598  -0.005731   0.000001  -0.000001  -0.000000
    16  H    0.000019  -0.117882   0.036148  -0.000001   0.001094  -0.000002
              13         14         15         16
     1  C    0.086581  -0.018313   0.285746   0.024624
     2  C    0.119460   0.139670   0.115441  -0.023692
     3  C    0.008990   0.056048   0.027707  -0.030366
     4  C    0.096704   0.071277  -0.069736   0.032115
     5  C   -0.063634   0.073910   0.059196   0.122592
     6  C    0.070361  -0.008695  -0.126159   0.251156
     7  N    0.002267  -0.014958  -0.000298   0.000019
     8  C   -0.021418   0.016211   0.028598  -0.117882
     9  C    0.010075  -0.002412  -0.005731   0.036148
    10  H   -0.000016   0.000761   0.000001  -0.000001
    11  H    0.000000   0.000001  -0.000001   0.001094
    12  H   -0.000000   0.000002  -0.000000  -0.000002
    13  H    0.448767  -0.002914  -0.003578  -0.000111
    14  H   -0.002914   0.394811  -0.000097   0.000013
    15  H   -0.003578  -0.000097   0.457227  -0.003412
    16  H   -0.000111   0.000013  -0.003412   0.458066
 Mulliken charges:
               1
     1  C   -0.105804
     2  C   -0.852166
     3  C    0.733234
     4  C   -0.998021
     5  C    0.866880
     6  C   -0.326928
     7  N    0.735789
     8  C   -4.860548
     9  C    2.802814
    10  H    0.404050
    11  H    0.269225
    12  H    0.303587
    13  H    0.248466
    14  H    0.294685
    15  H    0.235097
    16  H    0.249639
 Sum of Mulliken charges =  -0.00000
 Mulliken charges with hydrogens summed into heavy atoms:
               1
     1  C    0.129293
     2  C   -0.603700
     3  C    1.027919
     4  C   -0.998021
     5  C    0.866880
     6  C   -0.077288
     7  N    1.139839
     8  C   -4.591323
     9  C    3.106400
 Electronic spatial extent (au):  <R**2>=           1039.0712
 Charge=             -0.0000 electrons
 Dipole moment (field-independent basis, Debye):
    X=             -5.8974    Y=              6.6131    Z=              0.0006  Tot=              8.8607
 Quadrupole moment (field-independent basis, Debye-Ang):
   XX=            -63.1065   YY=            -65.6670   ZZ=            -65.4252
   XY=             15.5209   XZ=             -0.0009   YZ=             -0.0007
 Traceless Quadrupole moment (field-independent basis, Debye-Ang):
   XX=              1.6264   YY=             -0.9341   ZZ=             -0.6923
   XY=             15.5209   XZ=             -0.0009   YZ=             -0.0007
 Octapole moment (field-independent basis, Debye-Ang**2):
  XXX=           -111.3779  YYY=             82.0493  ZZZ=             -0.0006  XYY=            -46.4335
  XXY=             50.1425  XXZ=             -0.0057  XZZ=            -18.2749  YZZ=             18.8729
  YYZ=              0.0047  XYZ=              0.0047
 Hexadecapole moment (field-independent basis, Debye-Ang**3):
 XXXX=          -1317.9151 YYYY=           -721.8881 ZZZZ=           -135.7559 XXXY=            200.2688
 XXXZ=             -0.0182 YYYX=            138.1371 YYYZ=             -0.0065 ZZZX=             -0.0086
 ZZZY=              0.0041 XXYY=           -349.8729 XXZZ=           -247.9673 YYZZ=           -152.4797
 XXYZ=              0.0144 YYXZ=             -0.0218 ZZXY=             35.4467
 N-N= 4.013368668897D+02 E-N=-1.641206681014D+03  KE= 3.602334688963D+02
 Calling FoFJK, ICntrl=  10005127 FMM=F ISym2X=0 I1Cent= 0 IOpClX= 0 NMat=1 NMatS=1 NMatT=0.
 ***** Axes restored to original set *****
 -------------------------------------------------------------------
 Center     Atomic                   Forces (Hartrees/Bohr)
 Number     Number              X              Y              Z
 -------------------------------------------------------------------
      1        6          -0.011460129   -0.014341859    0.000002352
      2        6          -0.014397122    0.025059287   -0.000000290
      3        6           0.029300054   -0.006144777   -0.000014091
      4        6          -0.008625542    0.000209122    0.000004074
      5        6           0.006889332   -0.002372533   -0.000037698
      6        6           0.007251487    0.008068783   -0.000015680
      7        7           0.020809762    0.067405293    0.000088822
      8        6          -0.039642004    0.022178800    0.000044829
      9        6          -0.009125838   -0.070438793   -0.000096799
     10        1           0.014204877   -0.032241518   -0.000000822
     11        1           0.002078566    0.005105360    0.000005036
     12        1           0.006177873   -0.003849457    0.000006590
     13        1          -0.002534460   -0.001500898    0.000001045
     14        1           0.002011510   -0.001710495    0.000003107
     15        1          -0.002606384    0.001586616    0.000004075
     16        1          -0.000331983    0.002987070    0.000005451
 -------------------------------------------------------------------
 Cartesian Forces:  Max     0.070438793 RMS     0.018118380

 GradGradGradGradGradGradGradGradGradGradGradGradGradGradGradGradGradGrad
 Berny optimization.
 FormGI is forming the generalized inverse of G from B-inverse, IUseBI=4.
 Internal  Forces:  Max     0.048788556 RMS     0.009182098
 Search for a local minimum.
 Step number   1 out of a maximum of   94
 All quantities printed in internal units (Hartrees-Bohrs-Radians)
 Mixed Optimization -- RFO/linear search
 Second derivative matrix not updated -- first step.
 ITU=  0
     Eigenvalues ---    0.01853   0.01931   0.01986   0.02012   0.02070
     Eigenvalues ---    0.02113   0.02148   0.02153   0.02172   0.02209
     Eigenvalues ---    0.02233   0.02248   0.02338   0.16000   0.16000
     Eigenvalues ---    0.16000   0.16000   0.16000   0.16000   0.16000
     Eigenvalues ---    0.22000   0.22188   0.22662   0.24011   0.24651
     Eigenvalues ---    0.35712   0.35717   0.35783   0.35790   0.36420
     Eigenvalues ---    0.36427   0.37009   0.38432   0.42633   0.43465
     Eigenvalues ---    0.45769   0.46692   0.47162   0.47468   0.47567
     Eigenvalues ---    0.48125   0.50955
 RFO step:  Lambda=-1.46874360D-02 EMin= 1.85287394D-02
 Linear search not attempted -- first point.
 Iteration  1 RMS(Cart)=  0.02709195 RMS(Int)=  0.00014310
 Iteration  2 RMS(Cart)=  0.00018291 RMS(Int)=  0.00002592
 Iteration  3 RMS(Cart)=  0.00000003 RMS(Int)=  0.00002592
 Variable       Old X    -DE/DX   Delta X   Delta X   Delta X     New X
                                 (Linear)    (Quad)   (Total)
    R1        2.65547  -0.00837   0.00000  -0.01690  -0.01690   2.63857
    R2        2.61291   0.01052   0.00000   0.02207   0.02207   2.63498
    R3        2.04421   0.00305   0.00000   0.00818   0.00818   2.05239
    R4        2.61557   0.02600   0.00000   0.05226   0.05226   2.66783
    R5        2.04411   0.00295   0.00000   0.00791   0.00791   2.05202
    R6        2.63373  -0.01236   0.00000  -0.02677  -0.02677   2.60697
    R7        2.04534   0.00174   0.00000   0.00468   0.00468   2.05001
    R8        2.68058  -0.00191   0.00000  -0.00572  -0.00565   2.67493
    R9        2.60126   0.00934   0.00000   0.01509   0.01515   2.61641
   R10        2.64771   0.00570   0.00000   0.01209   0.01209   2.65980
   R11        2.70839  -0.01478   0.00000  -0.03143  -0.03145   2.67694
   R12        2.04526   0.00300   0.00000   0.00805   0.00805   2.05332
   R13        2.60573  -0.04879   0.00000  -0.09794  -0.09797   2.50776
   R14        1.89542   0.03507   0.00000   0.07211   0.07211   1.96754
   R15        2.57870   0.04124   0.00000   0.07893   0.07885   2.65755
   R16        2.03419   0.00551   0.00000   0.01454   0.01454   2.04873
   R17        2.03430   0.00655   0.00000   0.01728   0.01728   2.05159
    A1        2.11420  -0.00506   0.00000  -0.01688  -0.01687   2.09733
    A2        2.07986   0.00270   0.00000   0.00941   0.00940   2.08926
    A3        2.08912   0.00236   0.00000   0.00747   0.00747   2.09659
    A4        2.11523   0.00279   0.00000   0.01440   0.01440   2.12963
    A5        2.08365  -0.00138   0.00000  -0.00711  -0.00711   2.07655
    A6        2.08430  -0.00141   0.00000  -0.00729  -0.00729   2.07701
    A7        2.05144   0.00007   0.00000  -0.00177  -0.00176   2.04968
    A8        2.11267   0.00200   0.00000   0.01252   0.01252   2.12518
    A9        2.11908  -0.00207   0.00000  -0.01075  -0.01076   2.10832
   A10        2.13389  -0.00321   0.00000  -0.01280  -0.01284   2.12105
   A11        2.27895  -0.00324   0.00000  -0.00694  -0.00701   2.27194
   A12        1.87035   0.00645   0.00000   0.01975   0.01985   1.89020
   A13        2.07274   0.00791   0.00000   0.02544   0.02544   2.09818
   A14        1.86517  -0.00776   0.00000  -0.02363  -0.02360   1.84158
   A15        2.34527  -0.00015   0.00000  -0.00181  -0.00184   2.34343
   A16        2.07887  -0.00250   0.00000  -0.00838  -0.00837   2.07050
   A17        2.10306   0.00100   0.00000   0.00273   0.00273   2.10579
   A18        2.10125   0.00151   0.00000   0.00565   0.00565   2.10690
   A19        1.90743   0.00349   0.00000   0.00421   0.00424   1.91166
   A20        2.19023   0.00145   0.00000   0.01622   0.01621   2.20643
   A21        2.18553  -0.00495   0.00000  -0.02043  -0.02044   2.16509
   A22        1.86968  -0.00121   0.00000   0.00429   0.00421   1.87389
   A23        2.21717   0.00079   0.00000  -0.00106  -0.00102   2.21615
   A24        2.19633   0.00041   0.00000  -0.00323  -0.00319   2.19314
   A25        1.91215  -0.00098   0.00000  -0.00462  -0.00470   1.90744
   A26        2.10250  -0.00274   0.00000  -0.01620  -0.01615   2.08635
   A27        2.26854   0.00372   0.00000   0.02081   0.02086   2.28939
    D1       -0.00001   0.00000   0.00000   0.00006   0.00006   0.00004
    D2       -3.14156  -0.00000   0.00000  -0.00001  -0.00001  -3.14157
    D3        3.14152   0.00000   0.00000   0.00010   0.00010  -3.14156
    D4       -0.00002   0.00000   0.00000   0.00004   0.00004   0.00002
    D5       -0.00003  -0.00000   0.00000  -0.00006  -0.00006  -0.00009
    D6        3.14153   0.00000   0.00000   0.00009   0.00009  -3.14156
    D7       -3.14157  -0.00000   0.00000  -0.00010  -0.00010   3.14151
    D8       -0.00001   0.00000   0.00000   0.00005   0.00005   0.00004
    D9        0.00003   0.00000   0.00000   0.00002   0.00002   0.00006
   D10       -3.14154  -0.00000   0.00000  -0.00007  -0.00007   3.14158
   D11        3.14158   0.00000   0.00000   0.00009   0.00009  -3.14152
   D12        0.00001  -0.00000   0.00000  -0.00001  -0.00001  -0.00000
   D13       -0.00001  -0.00001   0.00000  -0.00011  -0.00010  -0.00011
   D14       -3.14144  -0.00000   0.00000  -0.00002  -0.00001  -3.14145
   D15        3.14156  -0.00000   0.00000  -0.00001  -0.00001   3.14155
   D16        0.00013   0.00000   0.00000   0.00008   0.00008   0.00022
   D17       -0.00004   0.00001   0.00000   0.00011   0.00010   0.00007
   D18       -3.14151   0.00000   0.00000  -0.00005  -0.00006  -3.14157
   D19        3.14143   0.00000   0.00000   0.00003   0.00003   3.14145
   D20       -0.00005  -0.00000   0.00000  -0.00012  -0.00013  -0.00018
   D21       -3.14124  -0.00001   0.00000  -0.00048  -0.00049   3.14145
   D22       -0.00113   0.00001   0.00000   0.00029   0.00029  -0.00084
   D23        0.00049  -0.00001   0.00000  -0.00039  -0.00040   0.00009
   D24        3.14060   0.00001   0.00000   0.00038   0.00038   3.14098
   D25        0.00005  -0.00000   0.00000  -0.00002  -0.00002   0.00004
   D26       -3.14151  -0.00001   0.00000  -0.00017  -0.00017   3.14151
   D27        3.14150   0.00000   0.00000   0.00019   0.00019  -3.14150
   D28       -0.00007   0.00000   0.00000   0.00004   0.00004  -0.00002
   D29       -0.00041   0.00003   0.00000   0.00063   0.00062   0.00021
   D30        3.14139   0.00001   0.00000   0.00015   0.00014   3.14153
   D31        3.14132   0.00002   0.00000   0.00043   0.00042  -3.14144
   D32       -0.00006   0.00000   0.00000  -0.00005  -0.00006  -0.00012
   D33       -0.00077   0.00003   0.00000   0.00083   0.00082   0.00004
   D34        3.14133   0.00001   0.00000   0.00025   0.00025   3.14157
   D35       -3.14089   0.00000   0.00000   0.00002   0.00002  -3.14087
   D36        0.00121  -0.00002   0.00000  -0.00055  -0.00055   0.00066
   D37        0.00072  -0.00003   0.00000  -0.00087  -0.00088  -0.00016
   D38       -3.14144  -0.00001   0.00000  -0.00024  -0.00024   3.14150
   D39       -3.14107  -0.00001   0.00000  -0.00040  -0.00041  -3.14148
   D40       -0.00005   0.00001   0.00000   0.00023   0.00023   0.00018
         Item               Value     Threshold  Converged?
 Maximum Force            0.048789     0.000450     NO 
 RMS     Force            0.009182     0.000300     NO 
 Maximum Displacement     0.118526     0.001800     NO 
 RMS     Displacement     0.027124     0.001200     NO 
 Predicted change in Energy=-7.577613D-03
 GradGradGradGradGradGradGradGradGradGradGradGradGradGradGradGradGradGrad

                          Input orientation:                          
 ---------------------------------------------------------------------
 Center     Atomic      Atomic             Coordinates (Angstroms)
 Number     Number       Type             X           Y           Z
 ---------------------------------------------------------------------
      1          6           0       -2.175413    0.699433   -0.000013
      2          6           0       -2.126319   -0.695975    0.000005
      3          6           0       -0.903751   -1.401938    0.000026
      4          6           0        0.258995   -0.659530    0.000100
      5          6           0        0.233525    0.755751    0.000016
      6          6           0       -0.995286    1.442116   -0.000063
      7          7           0        1.581124   -1.070550   -0.000016
      8          6           0        1.591444    1.159160    0.000098
      9          6           0        2.376050   -0.007936   -0.000052
     10          1           0        1.922674   -2.054110    0.000518
     11          1           0        1.969880    2.175105    0.000012
     12          1           0        3.452998   -0.145146   -0.000123
     13          1           0       -3.057176   -1.255119    0.000018
     14          1           0       -0.870434   -2.486247    0.000054
     15          1           0       -3.137102    1.204135    0.000003
     16          1           0       -1.024305    2.528298   -0.000048
 ---------------------------------------------------------------------
                    Distance matrix (angstroms):
                    1          2          3          4          5
     1  C    0.000000
     2  C    1.396271   0.000000
     3  C    2.456193   1.411756   0.000000
     4  C    2.788032   2.385593   1.379547   0.000000
     5  C    2.409596   2.770626   2.439061   1.415510   0.000000
     6  C    1.394374   2.418815   2.845526   2.447475   1.407506
     7  N    4.152639   3.726317   2.506875   1.384544   2.269669
     8  C    3.794807   4.154911   3.575643   2.254563   1.416574
     9  C    4.606103   4.554638   3.563754   2.215061   2.274562
    10  H    4.937238   4.270700   2.900691   2.170871   3.278497
    11  H    4.400121   5.002194   4.588354   3.310933   2.242653
    12  H    5.691426   5.606442   4.534401   3.235158   3.343146
    13  H    2.144244   1.085882   2.158424   3.369232   3.856464
    14  H    3.442605   2.186852   1.084821   2.147674   3.424803
    15  H    1.086080   2.152231   3.432123   3.873851   3.400320
    16  H    2.160971   3.407399   3.932084   3.436438   2.173490
                    6          7          8          9         10
     6  C    0.000000
     7  N    3.598802   0.000000
     8  C    2.602159   2.229734   0.000000
     9  C    3.669953   1.327048   1.406315   0.000000
    10  H    4.553909   1.041176   3.230297   2.095800   0.000000
    11  H    3.054420   3.268854   1.084139   2.220505   4.229478
    12  H    4.722990   2.088130   2.273016   1.085654   2.446638
    13  H    3.395066   4.641971   5.238169   5.574533   5.043540
    14  H    3.930346   2.830960   4.398845   4.084322   2.826340
    15  H    2.154997   5.237924   4.728760   5.644817   6.018097
    16  H    1.086570   4.442968   2.952403   4.242040   5.448224
                   11         12         13         14         15
    11  H    0.000000
    12  H    2.753762   0.000000
    13  H    6.085864   6.604121   0.000000
    14  H    5.458533   4.916586   2.509485   0.000000
    15  H    5.198466   6.726811   2.460553   4.330901   0.000000
    16  H    3.014945   5.214744   4.294975   5.016905   2.493455
                   16
    16  H    0.000000
 Stoichiometry    C8H7N
 Framework group  C1[X(C8H7N)]
 Deg. of freedom    42
 Full point group                 C1      NOp   1
 Largest Abelian subgroup         C1      NOp   1
 Largest concise Abelian subgroup C1      NOp   1
                         Standard orientation:                         
 ---------------------------------------------------------------------
 Center     Atomic      Atomic             Coordinates (Angstroms)
 Number     Number       Type             X           Y           Z
 ---------------------------------------------------------------------
      1          6           0       -2.191599    0.636519   -0.000030
      2          6           0       -2.104570   -0.757037   -0.000011
      3          6           0       -0.863253   -1.429487    0.000009
      4          6           0        0.278871   -0.655729    0.000083
      5          6           0        0.214917    0.758336   -0.000000
      6          6           0       -1.032108    1.411025   -0.000080
      7          7           0        1.611689   -1.030637   -0.000032
      8          6           0        1.561361    1.198529    0.000082
      9          6           0        2.377420    0.053205   -0.000069
     10          1           0        1.979865   -2.004544    0.000502
     11          1           0        1.912025    2.224391   -0.000004
     12          1           0        3.457702   -0.054663   -0.000140
     13          1           0       -3.019875   -1.341293    0.000002
     14          1           0       -0.800457   -2.512489    0.000038
     15          1           0       -3.166659    1.114878   -0.000014
     16          1           0       -1.090659    2.496016   -0.000065
 ---------------------------------------------------------------------
 Rotational constants (GHZ):           3.9144925           1.6393742           1.1554685
 Standard basis: 6-31+G(d) (6D, 7F)
 There are   185 symmetry adapted cartesian basis functions of A   symmetry.
 There are   185 symmetry adapted basis functions of A   symmetry.
   185 basis functions,   316 primitive gaussians,   185 cartesian basis functions
    31 alpha electrons       31 beta electrons
       nuclear repulsion energy       401.0799541181 Hartrees.
 NAtoms=   16 NActive=   16 NUniq=   16 SFac= 1.00D+00 NAtFMM=   60 NAOKFM=F Big=F
 Integral buffers will be    131072 words long.
 Regular integral format.
 Two-electron integral symmetry is turned on.
 One-electron integrals computed using PRISM.
 NBasis=   185 RedAO= T EigKep=  1.18D-06  NBF=   185
 NBsUse=   185 1.00D-06 EigRej= -1.00D+00 NBFU=   185
 Initial guess from the checkpoint file:  "FuncsPBE1PBE-V-3rd.chk"
 B after Tr=     0.000000   -0.000000    0.000000
         Rot=    0.999910    0.000011    0.000010   -0.013450 Ang=   1.54 deg.
 ExpMin= 4.38D-02 ExpMax= 4.17D+03 ExpMxC= 6.27D+02 IAcc=3 IRadAn=         5 AccDes= 0.00D+00
 Harris functional with IExCor= 1009 and IRadAn=       5 diagonalized for initial guess.
 HarFok:  IExCor= 1009 AccDes= 0.00D+00 IRadAn=         5 IDoV= 1 UseB2=F ITyADJ=14
 ICtDFT=  3500011 ScaDFX=  1.000000  1.000000  1.000000  1.000000
 FoFCou: FMM=F IPFlag=           0 FMFlag=      100000 FMFlg1=           0
         NFxFlg=           0 DoJE=T BraDBF=F KetDBF=T FulRan=T
         wScrn=  0.000000 ICntrl=       500 IOpCl=  0 I1Cent=   200000004 NGrid=           0
         NMat0=    1 NMatS0=      1 NMatT0=    0 NMatD0=    1 NMtDS0=    0 NMtDT0=    0
 Petite list used in FoFCou.
 Keep R1 ints in memory in canonical form, NReq=152071459.
 Requested convergence on RMS density matrix=1.00D-08 within 128 cycles.
 Requested convergence on MAX density matrix=1.00D-06.
 Requested convergence on             energy=1.00D-06.
 No special actions if energy rises.
 SCF Done:  E(RPBE1PBE) =  -363.398007746     A.U. after   13 cycles
            NFock= 13  Conv=0.56D-08     -V/T= 2.0090
 DoSCS=F DFT=T ScalE2(SS,OS)=  1.000000  1.000000
 ExpMin= 4.38D-02 ExpMax= 4.17D+03 ExpMxC= 6.27D+02 IAcc=3 IRadAn=         5 AccDes= 0.00D+00
 HarFok:  IExCor=  205 AccDes= 0.00D+00 IRadAn=         5 IDoV=-2 UseB2=F ITyADJ=14
 ICtDFT= 12500011 ScaDFX=  1.000000  1.000000  1.000000  1.000000
 Range of M.O.s used for correlation:    10   185
 NBasis=   185 NAE=    31 NBE=    31 NFC=     9 NFV=     0
 NROrb=    176 NOA=    22 NOB=    22 NVA=   154 NVB=   154

 **** Warning!!: The largest alpha MO coefficient is  0.19843502D+03

 Orbital symmetries:
       Occupied  (A) (A) (A) (A) (A) (A) (A) (A) (A) (A) (A) (A)
                 (A) (A) (A) (A) (A) (A) (A) (A) (A) (A) (A) (A)
                 (A) (A) (A) (A) (A) (A) (A)
       Virtual   (A) (A) (A) (A) (A) (A) (A) (A) (A) (A) (A) (A)
                 (A) (A) (A) (A) (A) (A) (A) (A) (A) (A) (A) (A)
                 (A) (A) (A) (A) (A) (A) (A) (A) (A) (A) (A) (A)
                 (A) (A) (A) (A) (A) (A) (A) (A) (A) (A) (A) (A)
                 (A) (A) (A) (A) (A) (A) (A) (A) (A) (A) (A) (A)
                 (A) (A) (A) (A) (A) (A) (A) (A) (A) (A) (A) (A)
                 (A) (A) (A) (A) (A) (A) (A) (A) (A) (A) (A) (A)
                 (A) (A) (A) (A) (A) (A) (A) (A) (A) (A) (A) (A)
                 (A) (A) (A) (A) (A) (A) (A) (A) (A) (A) (A) (A)
                 (A) (A) (A) (A) (A) (A) (A) (A) (A) (A) (A) (A)
                 (A) (A) (A) (A) (A) (A) (A) (A) (A) (A) (A) (A)
                 (A) (A) (A) (A) (A) (A) (A) (A) (A) (A) (A) (A)
                 (A) (A) (A) (A) (A) (A) (A) (A) (A) (A)
 Generating guess from densities on rwf.
 Convergence on wavefunction:    0.000001000000000
 Iteration     1 Dimension    12 NMult     0 NNew     12
 CISAX will form    12 AO SS matrices at one time.
 New state      4 was old state      5
 New state      5 was old state      6
 New state      6 was old state      4
 Iteration     2 Dimension    24 NMult    12 NNew     12
 New state      2 was old state      3
 New state      3 was old state      2
 Iteration     3 Dimension    36 NMult    24 NNew     12
 Iteration     4 Dimension    48 NMult    36 NNew     12
 Iteration     5 Dimension    60 NMult    48 NNew     12
 Iteration     6 Dimension    72 NMult    60 NNew     12
 Iteration     7 Dimension    84 NMult    72 NNew     12
 Iteration     8 Dimension    96 NMult    84 NNew     12
 Iteration     9 Dimension   108 NMult    96 NNew     12
 Iteration    10 Dimension   116 NMult   108 NNew      8
 Iteration    11 Dimension   122 NMult   116 NNew      6
 ***********************************************************************
 Excited states from <AA,BB:AA,BB> singles matrix:
 ***********************************************************************
 
 Ground to excited state transition densities written to RWF  633
 Ground to excited state transition electric dipole moments (Au):
       state          X           Y           Z        Dip. S.      Osc.
         1        -0.8417      0.5953     -0.0000      1.0627      0.1194
         2        -0.0423     -0.1745      0.0000      0.0322      0.0039
         3         0.0003     -0.0002     -0.1253      0.0157      0.0018
         4         0.0001      0.0000      0.0076      0.0001      0.0000
         5         0.0001     -0.0000      0.1755      0.0308      0.0042
         6        -0.0001     -0.0000     -0.0847      0.0072      0.0010
 Ground to excited state transition velocity dipole moments (Au):
       state          X           Y           Z        Dip. S.      Osc.
         1         0.1307     -0.1100      0.0000      0.0292      0.1155
         2         0.0065      0.0345     -0.0000      0.0012      0.0045
         3        -0.0000      0.0000      0.0144      0.0002      0.0008
         4        -0.0000     -0.0000      0.0013      0.0000      0.0000
         5        -0.0000      0.0000     -0.0340      0.0012      0.0038
         6         0.0000      0.0000      0.0209      0.0004      0.0014
 Ground to excited state transition magnetic dipole moments (Au):
       state          X           Y           Z
         1         0.0000      0.0001      0.1893
         2        -0.0001     -0.0000      0.0976
         3         0.1485     -0.0816      0.0001
         4         0.2898     -0.1867      0.0001
         5         0.0687      0.3770      0.0000
         6        -0.0194     -0.1306     -0.0001
 Ground to excited state transition velocity quadrupole moments (Au):
       state          XX          YY          ZZ          XY          XZ          YZ
         1         0.1892     -0.1417      0.0191      0.0645     -0.0000      0.0000
         2        -0.0263     -0.0513      0.0199      0.0229      0.0000     -0.0000
         3        -0.0000      0.0000      0.0000      0.0001      0.0587      0.0627
         4         0.0001     -0.0000     -0.0000      0.0000      0.2010      0.2230
         5         0.0000      0.0000      0.0000      0.0001     -0.3289     -0.0158
         6         0.0001     -0.0000     -0.0000     -0.0001      0.0630     -0.0674
 <0|del|b> * <b|rxdel|0> + <0|del|b> * <b|delr+rdel|0>
 Rotatory Strengths (R) in cgs (10**-40 erg-esu-cm/Gauss)
       state          XX          YY          ZZ    R(velocity)    E-M Angle
         1        -0.0209      0.0127     -0.0093     -0.0058       90.00
         2        -0.0029     -0.0015     -0.0021     -0.0022       90.00
         3        -0.0066     -0.0179     -0.0092     -0.0112       90.00
         4         0.0065     -0.0229     -0.0032     -0.0065       90.00
         5         0.0026     -0.0011     -0.0020     -0.0002       90.00
         6        -0.0069     -0.0038      0.0010     -0.0032       90.00
 1/2[<0|r|b>*<b|rxdel|0> + (<0|rxdel|b>*<b|r|0>)*]
 Rotatory Strengths (R) in cgs (10**-40 erg-esu-cm/Gauss)
       state          XX          YY          ZZ     R(length)
         1         0.0190     -0.0328      0.0020     -0.0039
         2        -0.0022     -0.0030     -0.0020     -0.0024
         3        -0.0289     -0.0132      0.0078     -0.0115
         4        -0.0260      0.0046     -0.0005     -0.0073
         5        -0.0050      0.0078     -0.0058     -0.0010
         6        -0.0015     -0.0014     -0.0040     -0.0023
  1/2[<0|del|b>*<b|r|0> + (<0|r|b>*<b|del|0>)*] (Au)
       state          X           Y           Z        Dip. S.   Osc.(frdel)
         1        -0.1100     -0.0655     -0.0000      0.1755      0.1170
         2        -0.0003     -0.0060     -0.0000      0.0063      0.0042
         3        -0.0000     -0.0000     -0.0018      0.0018      0.0012
         4        -0.0000     -0.0000      0.0000     -0.0000     -0.0000
         5        -0.0000     -0.0000     -0.0060      0.0060      0.0040
         6        -0.0000     -0.0000     -0.0018      0.0018      0.0012

 Excitation energies and oscillator strengths:
 
 Excited State   1:      Singlet-A      4.5858 eV  270.36 nm  f=0.1194  <S**2>=0.000
      30 -> 35         0.12515
      31 -> 32         0.67925
 
 Excited State   2:      Singlet-A      4.9954 eV  248.20 nm  f=0.0039  <S**2>=0.000
      30 -> 32         0.52804
      31 -> 35        -0.45678
 
 Excited State   3:      Singlet-A      4.7237 eV  262.47 nm  f=0.0018  <S**2>=0.000
      31 -> 33         0.70348
 This state for optimization and/or second-order correction.
 Total Energy, E(TD-HF/TD-DFT) =  -363.224415390    
 Copying the excited state density for this state as the 1-particle RhoCI density.
 
 Excited State   4:      Singlet-A      5.4389 eV  227.96 nm  f=0.0000  <S**2>=0.000
      31 -> 34         0.69810
 
 Excited State   5:      Singlet-A      5.5632 eV  222.86 nm  f=0.0042  <S**2>=0.000
      31 -> 36        -0.69245
 
 Excited State   6:      Singlet-A      5.6696 eV  218.68 nm  f=0.0010  <S**2>=0.000
      30 -> 33         0.69662
 SavETr:  write IOETrn=   770 NScale= 10 NData=  16 NLR=1 NState=    6 LETran=     118.
          IDoAtm=1111111111111111
          Differentiating once with respect to electric field.
                with respect to dipole field.
          Differentiating once with respect to nuclear coordinates.
 Keep R1 ints in memory in canonical form, NReq=152083851.
          There are     1 degrees of freedom in the 1st order CPHF.  IDoFFX=0 NUNeed=     1.
 LinEq1:  Iter=  0 NonCon=     1 RMS=1.31D-02 Max=3.35D-01 NDo=     1
 AX will form     1 AO Fock derivatives at one time.
 LinEq1:  Iter=  1 NonCon=     1 RMS=6.83D-03 Max=1.38D-01 NDo=     1
 LinEq1:  Iter=  2 NonCon=     1 RMS=4.79D-03 Max=1.06D-01 NDo=     1
 LinEq1:  Iter=  3 NonCon=     1 RMS=2.29D-03 Max=5.82D-02 NDo=     1
 LinEq1:  Iter=  4 NonCon=     1 RMS=1.34D-03 Max=2.65D-02 NDo=     1
 LinEq1:  Iter=  5 NonCon=     1 RMS=5.63D-04 Max=1.49D-02 NDo=     1
 LinEq1:  Iter=  6 NonCon=     1 RMS=4.21D-04 Max=9.71D-03 NDo=     1
 LinEq1:  Iter=  7 NonCon=     1 RMS=1.37D-04 Max=2.91D-03 NDo=     1
 LinEq1:  Iter=  8 NonCon=     1 RMS=1.01D-04 Max=2.50D-03 NDo=     1
 LinEq1:  Iter=  9 NonCon=     1 RMS=3.21D-05 Max=4.19D-04 NDo=     1
 LinEq1:  Iter= 10 NonCon=     1 RMS=2.42D-05 Max=8.00D-04 NDo=     1
 LinEq1:  Iter= 11 NonCon=     1 RMS=8.87D-06 Max=1.52D-04 NDo=     1
 LinEq1:  Iter= 12 NonCon=     1 RMS=4.24D-06 Max=5.82D-05 NDo=     1
 LinEq1:  Iter= 13 NonCon=     1 RMS=1.84D-06 Max=2.92D-05 NDo=     1
 LinEq1:  Iter= 14 NonCon=     1 RMS=5.43D-07 Max=1.22D-05 NDo=     1
 LinEq1:  Iter= 15 NonCon=     1 RMS=2.95D-07 Max=4.62D-06 NDo=     1
 LinEq1:  Iter= 16 NonCon=     1 RMS=7.38D-08 Max=9.01D-07 NDo=     1
 LinEq1:  Iter= 17 NonCon=     1 RMS=1.32D-08 Max=1.48D-07 NDo=     1
 LinEq1:  Iter= 18 NonCon=     1 RMS=4.14D-09 Max=7.71D-08 NDo=     1
 LinEq1:  Iter= 19 NonCon=     1 RMS=2.21D-09 Max=3.42D-08 NDo=     1
 LinEq1:  Iter= 20 NonCon=     1 RMS=5.54D-10 Max=1.51D-08 NDo=     1
 LinEq1:  Iter= 21 NonCon=     1 RMS=1.05D-10 Max=2.06D-09 NDo=     1
 LinEq1:  Iter= 22 NonCon=     0 RMS=2.83D-11 Max=3.27D-10 NDo=     1
 Linear equations converged to 1.000D-10 1.000D-09 after    22 iterations.
 End of Minotr F.D. properties file   721 does not exist.
 End of Minotr F.D. properties file   722 does not exist.
 End of Minotr F.D. properties file   788 does not exist.
 Calling FoFJK, ICntrl=  10005127 FMM=F ISym2X=0 I1Cent= 0 IOpClX= 0 NMat=1 NMatS=1 NMatT=0.
 ***** Axes restored to original set *****
 -------------------------------------------------------------------
 Center     Atomic                   Forces (Hartrees/Bohr)
 Number     Number              X              Y              Z
 -------------------------------------------------------------------
      1        6           0.002708205    0.000745273   -0.000007147
      2        6          -0.000059528    0.000769426    0.000003440
      3        6           0.004117351   -0.001340798    0.000004880
      4        6          -0.011278334   -0.007131258   -0.000014631
      5        6           0.010221983    0.002155247    0.000008762
      6        6          -0.002748569    0.001782483    0.000014179
      7        7           0.004287822    0.024324130    0.000018843
      8        6          -0.012094483    0.014861268   -0.000032517
      9        6          -0.004171127   -0.021595260    0.000011907
     10        1           0.005624048   -0.013379961   -0.000012498
     11        1           0.000994137   -0.000401835    0.000004140
     12        1           0.002037741    0.000224867    0.000004482
     13        1           0.000440268   -0.000961830    0.000000041
     14        1          -0.000999017    0.000201138   -0.000000752
     15        1           0.000504396    0.000111262   -0.000001512
     16        1           0.000415107   -0.000364152   -0.000001617
 -------------------------------------------------------------------
 Cartesian Forces:  Max     0.024324130 RMS     0.006462763

 GradGradGradGradGradGradGradGradGradGradGradGradGradGradGradGradGradGrad
 Berny optimization.
 Using GEDIIS/GDIIS optimizer.
 FormGI is forming the generalized inverse of G from B-inverse, IUseBI=4.
 Internal  Forces:  Max     0.014484419 RMS     0.002832964
 Search for a local minimum.
 Step number   2 out of a maximum of   94
 All quantities printed in internal units (Hartrees-Bohrs-Radians)
 Mixed Optimization -- RFO/linear search
 Update second derivatives using D2CorX and points    1    2
 DE= -8.97D-03 DEPred=-7.58D-03 R= 1.18D+00
 TightC=F SS=  1.41D+00  RLast= 1.78D-01 DXNew= 5.0454D-01 5.3455D-01
 Trust test= 1.18D+00 RLast= 1.78D-01 DXMaxT set to 5.05D-01
 ITU=  1  0
 Use linear search instead of GDIIS.
     Eigenvalues ---    0.01855   0.01932   0.01987   0.02011   0.02069
     Eigenvalues ---    0.02113   0.02148   0.02158   0.02172   0.02210
     Eigenvalues ---    0.02234   0.02248   0.02344   0.15825   0.16000
     Eigenvalues ---    0.16000   0.16000   0.16000   0.16000   0.16199
     Eigenvalues ---    0.21916   0.22214   0.22398   0.24340   0.24887
     Eigenvalues ---    0.33697   0.35713   0.35736   0.35793   0.35837
     Eigenvalues ---    0.36461   0.36707   0.37429   0.39536   0.42669
     Eigenvalues ---    0.43846   0.45797   0.46779   0.47556   0.47788
     Eigenvalues ---    0.49562   0.51956
 RFO step:  Lambda=-1.48429696D-03 EMin= 1.85481865D-02
 Quartic linear search produced a step of  0.26221.
 Iteration  1 RMS(Cart)=  0.00958730 RMS(Int)=  0.00006337
 Iteration  2 RMS(Cart)=  0.00007254 RMS(Int)=  0.00002201
 Iteration  3 RMS(Cart)=  0.00000001 RMS(Int)=  0.00002201
 Variable       Old X    -DE/DX   Delta X   Delta X   Delta X     New X
                                 (Linear)    (Quad)   (Total)
    R1        2.63857   0.00149  -0.00443   0.00668   0.00223   2.64080
    R2        2.63498  -0.00183   0.00579  -0.00868  -0.00290   2.63209
    R3        2.05239  -0.00039   0.00214  -0.00285  -0.00071   2.05169
    R4        2.66783  -0.00022   0.01370  -0.00999   0.00370   2.67154
    R5        2.05202   0.00012   0.00207  -0.00100   0.00107   2.05309
    R6        2.60697  -0.00358  -0.00702  -0.00487  -0.01189   2.59508
    R7        2.05001  -0.00023   0.00123  -0.00165  -0.00043   2.04959
    R8        2.67493   0.00539  -0.00148   0.01797   0.01656   2.69149
    R9        2.61641   0.00301   0.00397   0.00404   0.00802   2.62442
   R10        2.65980   0.00015   0.00317  -0.00132   0.00187   2.66167
   R11        2.67694  -0.00593  -0.00825  -0.01129  -0.01951   2.65743
   R12        2.05332  -0.00038   0.00211  -0.00276  -0.00065   2.05267
   R13        2.50776  -0.01133  -0.02569  -0.01306  -0.03880   2.46896
   R14        1.96754   0.01448   0.01891   0.02608   0.04499   2.01252
   R15        2.65755   0.01221   0.02068   0.01612   0.03675   2.69430
   R16        2.04873  -0.00003   0.00381  -0.00270   0.00111   2.04984
   R17        2.05159   0.00199   0.00453   0.00379   0.00832   2.05991
    A1        2.09733   0.00155  -0.00442   0.01129   0.00687   2.10420
    A2        2.08926  -0.00043   0.00247  -0.00317  -0.00071   2.08855
    A3        2.09659  -0.00112   0.00196  -0.00812  -0.00616   2.09043
    A4        2.12963   0.00084   0.00378   0.00075   0.00452   2.13415
    A5        2.07655   0.00066  -0.00186   0.00803   0.00618   2.08272
    A6        2.07701  -0.00150  -0.00191  -0.00879  -0.01070   2.06631
    A7        2.04968  -0.00206  -0.00046  -0.01145  -0.01191   2.03777
    A8        2.12518   0.00001   0.00328  -0.00458  -0.00130   2.12388
    A9        2.10832   0.00205  -0.00282   0.01604   0.01322   2.12154
   A10        2.12105   0.00226  -0.00337   0.01541   0.01203   2.13308
   A11        2.27194   0.00097  -0.00184   0.00569   0.00380   2.27574
   A12        1.89020  -0.00322   0.00520  -0.02110  -0.01584   1.87436
   A13        2.09818  -0.00124   0.00667  -0.01094  -0.00428   2.09391
   A14        1.84158   0.00297  -0.00619   0.02210   0.01598   1.85756
   A15        2.34343  -0.00173  -0.00048  -0.01116  -0.01171   2.33172
   A16        2.07050  -0.00134  -0.00220  -0.00506  -0.00723   2.06326
   A17        2.10579   0.00109   0.00071   0.00608   0.00678   2.11257
   A18        2.10690   0.00025   0.00148  -0.00102   0.00045   2.10735
   A19        1.91166   0.00218   0.00111   0.00772   0.00880   1.92046
   A20        2.20643  -0.00018   0.00425  -0.00048   0.00379   2.21022
   A21        2.16509  -0.00200  -0.00536  -0.00724  -0.01258   2.15250
   A22        1.87389  -0.00400   0.00110  -0.02003  -0.01893   1.85496
   A23        2.21615   0.00310  -0.00027   0.01838   0.01811   2.23426
   A24        2.19314   0.00090  -0.00084   0.00166   0.00082   2.19397
   A25        1.90744   0.00207  -0.00123   0.01131   0.00999   1.91744
   A26        2.08635  -0.00054  -0.00424   0.00196  -0.00224   2.08411
   A27        2.28939  -0.00153   0.00547  -0.01326  -0.00775   2.28164
    D1        0.00004  -0.00000   0.00001  -0.00012  -0.00010  -0.00006
    D2       -3.14157  -0.00000  -0.00000  -0.00006  -0.00006   3.14156
    D3       -3.14156  -0.00000   0.00003  -0.00011  -0.00008   3.14155
    D4        0.00002  -0.00000   0.00001  -0.00005  -0.00004  -0.00002
    D5       -0.00009   0.00000  -0.00002   0.00021   0.00020   0.00011
    D6       -3.14156  -0.00000   0.00002  -0.00010  -0.00008   3.14155
    D7        3.14151   0.00000  -0.00003   0.00020   0.00017  -3.14150
    D8        0.00004  -0.00000   0.00001  -0.00011  -0.00010  -0.00006
    D9        0.00006  -0.00000   0.00001  -0.00003  -0.00002   0.00004
   D10        3.14158   0.00000  -0.00002   0.00003   0.00001   3.14158
   D11       -3.14152  -0.00000   0.00002  -0.00009  -0.00006  -3.14158
   D12       -0.00000  -0.00000  -0.00000  -0.00003  -0.00003  -0.00003
   D13       -0.00011   0.00000  -0.00003   0.00008   0.00005  -0.00006
   D14       -3.14145  -0.00000  -0.00000  -0.00012  -0.00012  -3.14157
   D15        3.14155   0.00000  -0.00000   0.00003   0.00002   3.14158
   D16        0.00022  -0.00000   0.00002  -0.00017  -0.00015   0.00007
   D17        0.00007   0.00000   0.00003   0.00002   0.00004   0.00011
   D18       -3.14157   0.00000  -0.00001   0.00020   0.00019  -3.14138
   D19        3.14145   0.00000   0.00001   0.00018   0.00018  -3.14155
   D20       -0.00018   0.00000  -0.00003   0.00036   0.00033   0.00015
   D21        3.14145   0.00000  -0.00013   0.00036   0.00024  -3.14150
   D22       -0.00084   0.00001   0.00008   0.00034   0.00042  -0.00042
   D23        0.00009  -0.00000  -0.00011   0.00019   0.00008   0.00017
   D24        3.14098   0.00001   0.00010   0.00016   0.00026   3.14124
   D25        0.00004  -0.00000  -0.00000  -0.00016  -0.00017  -0.00013
   D26        3.14151   0.00000  -0.00004   0.00015   0.00011  -3.14157
   D27       -3.14150  -0.00001   0.00005  -0.00041  -0.00036   3.14133
   D28       -0.00002  -0.00000   0.00001  -0.00010  -0.00009  -0.00011
   D29        0.00021  -0.00001   0.00016  -0.00075  -0.00059  -0.00038
   D30        3.14153  -0.00000   0.00004  -0.00006  -0.00002   3.14151
   D31       -3.14144  -0.00001   0.00011  -0.00053  -0.00041   3.14133
   D32       -0.00012   0.00000  -0.00001   0.00016   0.00015   0.00003
   D33        0.00004  -0.00001   0.00021  -0.00067  -0.00046  -0.00042
   D34        3.14157  -0.00000   0.00007  -0.00019  -0.00012   3.14145
   D35       -3.14087  -0.00001   0.00001  -0.00065  -0.00064  -3.14151
   D36        0.00066  -0.00001  -0.00014  -0.00016  -0.00030   0.00036
   D37       -0.00016   0.00001  -0.00023   0.00090   0.00066   0.00050
   D38        3.14150   0.00000  -0.00006   0.00034   0.00027  -3.14141
   D39       -3.14148   0.00000  -0.00011   0.00022   0.00011  -3.14137
   D40        0.00018  -0.00000   0.00006  -0.00034  -0.00028  -0.00010
         Item               Value     Threshold  Converged?
 Maximum Force            0.014484     0.000450     NO 
 RMS     Force            0.002833     0.000300     NO 
 Maximum Displacement     0.039834     0.001800     NO 
 RMS     Displacement     0.009606     0.001200     NO 
 Predicted change in Energy=-1.178120D-03
 GradGradGradGradGradGradGradGradGradGradGradGradGradGradGradGradGradGrad

                          Input orientation:                          
 ---------------------------------------------------------------------
 Center     Atomic      Atomic             Coordinates (Angstroms)
 Number     Number       Type             X           Y           Z
 ---------------------------------------------------------------------
      1          6           0       -2.168731    0.701431    0.000041
      2          6           0       -2.122004   -0.695239    0.000025
      3          6           0       -0.902178   -1.409813   -0.000001
      4          6           0        0.251061   -0.664243    0.000036
      5          6           0        0.234500    0.759937    0.000022
      6          6           0       -0.993734    1.449351    0.000106
      7          7           0        1.581085   -1.063945    0.000003
      8          6           0        1.578609    1.173351   -0.000219
      9          6           0        2.363006   -0.017244    0.000179
     10          1           0        1.943753   -2.065273    0.000303
     11          1           0        1.965872    2.186595   -0.000373
     12          1           0        3.444107   -0.156700    0.000316
     13          1           0       -3.050849   -1.258816    0.000008
     14          1           0       -0.877051   -2.494117   -0.000005
     15          1           0       -3.129577    1.206935    0.000017
     16          1           0       -1.020968    2.535236    0.000077
[...]
 LinEq1:  Iter= 18 NonCon=     1 RMS=7.98D-09 Max=8.73D-08 NDo=     1
 LinEq1:  Iter= 19 NonCon=     1 RMS=1.98D-09 Max=2.46D-08 NDo=     1
 LinEq1:  Iter= 20 NonCon=     1 RMS=9.91D-10 Max=1.80D-08 NDo=     1
 LinEq1:  Iter= 21 NonCon=     1 RMS=3.44D-10 Max=5.10D-09 NDo=     1
 LinEq1:  Iter= 22 NonCon=     0 RMS=5.23D-11 Max=5.61D-10 NDo=     1
 Linear equations converged to 1.000D-10 1.000D-09 after    22 iterations.
 End of Minotr F.D. properties file   721 does not exist.
 End of Minotr F.D. properties file   722 does not exist.
 End of Minotr F.D. properties file   788 does not exist.
 Calling FoFJK, ICntrl=  10005127 FMM=F ISym2X=0 I1Cent= 0 IOpClX= 0 NMat=1 NMatS=1 NMatT=0.
 ***** Axes restored to original set *****
 -------------------------------------------------------------------
 Center     Atomic                   Forces (Hartrees/Bohr)
 Number     Number              X              Y              Z
 -------------------------------------------------------------------
      1        6           0.001179419   -0.002914553    0.000323348
      2        6          -0.002166153    0.001597540   -0.000630623
      3        6           0.003779881   -0.000007026   -0.000378546
      4        6          -0.006204685    0.000409967    0.000425442
      5        6           0.003471180   -0.001898723   -0.000724889
      6        6          -0.001148809   -0.000931723   -0.001483938
      7        7           0.009716822   -0.017471844    0.002245536
      8        6           0.000037775   -0.000987508    0.000247099
      9        6           0.001788212   -0.000333698    0.000815220
     10        1          -0.009609028    0.016155241   -0.002040874
     11        1           0.000220442    0.000295692    0.000134706
     12        1          -0.000895496    0.004412216   -0.000833020
     13        1          -0.000099427   -0.000092640   -0.000016907
     14        1          -0.001079504   -0.000476804    0.000865153
     15        1          -0.000072170    0.000717578    0.000207747
     16        1           0.001081542    0.001526284    0.000844545
 -------------------------------------------------------------------
 Cartesian Forces:  Max     0.017471844 RMS     0.004298157

 GradGradGradGradGradGradGradGradGradGradGradGradGradGradGradGradGradGrad
 Berny optimization.
 Using GEDIIS/GDIIS optimizer.
 FormGI is forming the generalized inverse of G from B-inverse, IUseBI=4.
 Internal  Forces:  Max     0.018528827 RMS     0.002371338
 Search for a local minimum.
 Step number  25 out of a maximum of   94
 All quantities printed in internal units (Hartrees-Bohrs-Radians)
 Mixed Optimization -- RFO/linear search
 Update second derivatives using D2CorX and points    1    2    3    4    5
                                                      6    7    9    8   11
                                                     13   16   17   18   19
                                                     20   21   22   23   24
                                                     25   10
 ITU=  0  0  0  0  0  0  0  0  0  0  0  0  0 -1  0  1 -1  1  1  1
 ITU=  1  1  1  1  0
 Use linear search instead of GDIIS.
 Skip linear search -- no minimum in search direction.
 Steepest descent instead of Quadratic search.
 Steepest descent step scaled to max of 0.05000.
 Iteration  1 RMS(Cart)=  0.00755039 RMS(Int)=  0.00004157
 Iteration  2 RMS(Cart)=  0.00005086 RMS(Int)=  0.00000290
 Iteration  3 RMS(Cart)=  0.00000000 RMS(Int)=  0.00000290
 Variable       Old X    -DE/DX   Delta X   Delta X   Delta X     New X
                                 (Linear)    (Quad)   (Total)
    R1        2.63962  -0.00133   0.00000  -0.00359  -0.00359   2.63603
    R2        2.62853   0.00009   0.00000   0.00024   0.00024   2.62877
    R3        2.05280   0.00040   0.00000   0.00108   0.00108   2.05388
    R4        2.66861   0.00148   0.00000   0.00399   0.00399   2.67261
    R5        2.05352   0.00013   0.00000   0.00036   0.00036   2.05388
    R6        2.59837  -0.00076   0.00000  -0.00204  -0.00204   2.59633
    R7        2.05257   0.00044   0.00000   0.00118   0.00118   2.05375
    R8        2.68898  -0.00148   0.00000  -0.00398  -0.00398   2.68500
    R9        2.63412   0.00245   0.00000   0.00660   0.00660   2.64072
   R10        2.66289  -0.00048   0.00000  -0.00129  -0.00129   2.66160
   R11        2.65798  -0.00142   0.00000  -0.00382  -0.00382   2.65416
   R12        2.05905   0.00149   0.00000   0.00403   0.00403   2.06307
   R13        2.51947   0.00385   0.00000   0.01038   0.01037   2.52984
   R14        1.96103  -0.01853   0.00000  -0.05000  -0.05000   1.91103
   R15        2.68513  -0.00227   0.00000  -0.00612  -0.00612   2.67900
   R16        2.05050   0.00035   0.00000   0.00095   0.00095   2.05145
   R17        2.05229  -0.00136   0.00000  -0.00367  -0.00367   2.04862
    A1        2.10850   0.00064   0.00000   0.00171   0.00171   2.11022
    A2        2.08444   0.00030   0.00000   0.00081   0.00081   2.08525
    A3        2.09022  -0.00093   0.00000  -0.00252  -0.00252   2.08770
    A4        2.13085  -0.00084   0.00000  -0.00226  -0.00226   2.12859
    A5        2.08005   0.00045   0.00000   0.00121   0.00121   2.08127
    A6        2.07224   0.00039   0.00000   0.00105   0.00105   2.07329
    A7        2.03608  -0.00040   0.00000  -0.00109  -0.00109   2.03499
    A8        2.12246  -0.00092   0.00000  -0.00248  -0.00248   2.11998
    A9        2.12452   0.00133   0.00000   0.00358   0.00358   2.12810
   A10        2.13869   0.00113   0.00000   0.00304   0.00304   2.14173
   A11        2.27651   0.00067   0.00000   0.00182   0.00182   2.27832
   A12        1.86799  -0.00180   0.00000  -0.00486  -0.00485   1.86313
   A13        2.08752  -0.00059   0.00000  -0.00159  -0.00159   2.08593
   A14        1.87094   0.00226   0.00000   0.00611   0.00611   1.87705
   A15        2.32470  -0.00167   0.00000  -0.00452  -0.00452   2.32018
   A16        2.06467   0.00007   0.00000   0.00019   0.00019   2.06486
   A17        2.11725   0.00111   0.00000   0.00298   0.00298   2.12023
   A18        2.10112  -0.00117   0.00000  -0.00315  -0.00315   2.09797
   A19        1.91790  -0.00023   0.00000  -0.00063  -0.00064   1.91726
   A20        2.20732  -0.00336   0.00000  -0.00907  -0.00907   2.19825
   A21        2.15562   0.00363   0.00000   0.00980   0.00980   2.16542
   A22        1.86013   0.00058   0.00000   0.00155   0.00156   1.86168
   A23        2.23463  -0.00018   0.00000  -0.00049  -0.00049   2.23414
   A24        2.18842  -0.00039   0.00000  -0.00106  -0.00106   2.18736
   A25        1.90773  -0.00080   0.00000  -0.00216  -0.00217   1.90556
   A26        2.10934   0.00481   0.00000   0.01297   0.01297   2.12231
   A27        2.26594  -0.00400   0.00000  -0.01079  -0.01079   2.25515
    D1       -0.00574   0.00021   0.00000   0.00057   0.00057  -0.00517
    D2       -3.13761  -0.00009   0.00000  -0.00025  -0.00025  -3.13786
    D3        3.12908   0.00035   0.00000   0.00094   0.00094   3.13003
    D4       -0.00278   0.00005   0.00000   0.00012   0.00013  -0.00266
    D5       -0.00316  -0.00010   0.00000  -0.00026  -0.00026  -0.00342
    D6        3.12029   0.00040   0.00000   0.00109   0.00109   3.12138
    D7       -3.13796  -0.00024   0.00000  -0.00065  -0.00065  -3.13861
    D8       -0.01451   0.00026   0.00000   0.00070   0.00070  -0.01381
    D9        0.01053  -0.00021   0.00000  -0.00055  -0.00055   0.00998
   D10       -3.11384  -0.00048   0.00000  -0.00130  -0.00129  -3.11513
   D11       -3.14075   0.00010   0.00000   0.00026   0.00026  -3.14048
   D12        0.01807  -0.00018   0.00000  -0.00048  -0.00048   0.01759
   D13       -0.00674   0.00009   0.00000   0.00024   0.00024  -0.00650
   D14        3.13555   0.00026   0.00000   0.00071   0.00071   3.13626
   D15        3.11761   0.00034   0.00000   0.00092   0.00092   3.11853
   D16       -0.02329   0.00052   0.00000   0.00139   0.00139  -0.02189
   D17       -0.00176   0.00001   0.00000   0.00004   0.00004  -0.00172
   D18       -3.13617  -0.00010   0.00000  -0.00028  -0.00028  -3.13645
   D19        3.13928  -0.00013   0.00000  -0.00034  -0.00034   3.13894
   D20        0.00487  -0.00024   0.00000  -0.00065  -0.00066   0.00421
   D21       -3.13820  -0.00006   0.00000  -0.00017  -0.00017  -3.13837
   D22       -0.06857   0.00066   0.00000   0.00179   0.00178  -0.06678
   D23        0.00401   0.00009   0.00000   0.00024   0.00024   0.00425
   D24        3.07365   0.00082   0.00000   0.00220   0.00219   3.07584
   D25        0.00680  -0.00001   0.00000  -0.00003  -0.00003   0.00677
   D26       -3.11683  -0.00053   0.00000  -0.00143  -0.00143  -3.11826
   D27        3.13898   0.00016   0.00000   0.00044   0.00044   3.13942
   D28        0.01536  -0.00036   0.00000  -0.00096  -0.00096   0.01440
   D29       -0.01132   0.00028   0.00000   0.00075   0.00075  -0.01057
   D30        3.13435   0.00001   0.00000   0.00002   0.00002   3.13438
   D31        3.13884   0.00013   0.00000   0.00034   0.00034   3.13918
   D32        0.00132  -0.00014   0.00000  -0.00039  -0.00038   0.00094
   D33       -0.01131   0.00010   0.00000   0.00026   0.00026  -0.01105
   D34        3.11166   0.00033   0.00000   0.00089   0.00090   3.11255
   D35       -3.08351  -0.00026   0.00000  -0.00071  -0.00072  -3.08423
   D36        0.03946  -0.00003   0.00000  -0.00009  -0.00009   0.03937
   D37        0.01412  -0.00025   0.00000  -0.00068  -0.00068   0.01345
   D38       -3.10665  -0.00064   0.00000  -0.00172  -0.00172  -3.10837
   D39       -3.13141   0.00001   0.00000   0.00003   0.00003  -3.13138
   D40        0.03100  -0.00038   0.00000  -0.00102  -0.00101   0.02999
         Item               Value     Threshold  Converged?
 Maximum Force            0.018529     0.000450     NO 
 RMS     Force            0.002371     0.000300     NO 
 Maximum Displacement     0.034166     0.001800     NO 
 RMS     Displacement     0.007546     0.001200     NO 
 Predicted change in Energy=-2.974770D-02
 GradGradGradGradGradGradGradGradGradGradGradGradGradGradGradGradGradGrad

                          Input orientation:                          
 ---------------------------------------------------------------------
 Center     Atomic      Atomic             Coordinates (Angstroms)
 Number     Number       Type             X           Y           Z
 ---------------------------------------------------------------------
      1          6           0       -2.160344    0.695883    0.009446
      2          6           0       -2.129384   -0.698698    0.008707
      3          6           0       -0.913228   -1.420483   -0.004995
      4          6           0        0.242763   -0.677963   -0.005354
      5          6           0        0.242733    0.742872   -0.000532
      6          6           0       -0.982958    1.436718    0.002766
      7          7           0        1.580885   -1.080634   -0.011299
      8          6           0        1.581853    1.166379   -0.009315
      9          6           0        2.379066   -0.005891   -0.005026
     10          1           0        1.914183   -2.034123    0.038116
     11          1           0        1.961246    2.183492   -0.014932
     12          1           0        3.458766   -0.100333    0.018710
     13          1           0       -3.065667   -1.250645    0.010493
     14          1           0       -0.898573   -2.506892   -0.029991
     15          1           0       -3.118168    1.209549    0.009278
     16          1           0       -0.996270    2.528215   -0.015537
 ---------------------------------------------------------------------
                    Distance matrix (angstroms):
                    1          2          3          4          5
     1  C    0.000000
     2  C    1.394925   0.000000
     3  C    2.456524   1.414283   0.000000
     4  C    2.768139   2.372280   1.373918   0.000000
     5  C    2.403558   2.775815   2.452829   1.420843   0.000000
     6  C    1.391087   2.423702   2.858062   2.444245   1.408457
     7  N    4.141646   3.729929   2.517168   1.397408   2.261844
     8  C    3.771706   4.153567   3.594065   2.279205   1.404521
     9  C    4.593359   4.561392   3.583332   2.239525   2.263754
    10  H    4.904643   4.258481   2.893556   2.152836   3.241440
    11  H    4.381904   5.004081   4.609916   3.337843   2.242516
    12  H    5.675249   5.620103   4.567022   3.267554   3.324791
    13  H    2.146760   1.086864   2.159185   3.357667   3.862608
    14  H    3.442585   2.187683   1.086796   2.155978   3.444476
    15  H    1.086866   2.149209   3.432059   3.854708   3.393161
    16  H    2.170976   3.420162   3.949585   3.437279   2.173202
                    6          7          8          9         10
     6  C    0.000000
     7  N    3.593124   0.000000
     8  C    2.579047   2.247014   0.000000
     9  C    3.658467   1.338733   1.417668   0.000000
    10  H    4.521218   1.011272   3.218059   2.081274   0.000000
    11  H    3.037485   3.286214   1.085582   2.228917   4.218211
    12  H    4.700180   2.118568   2.264541   1.084083   2.475006
    13  H    3.399950   4.649712   5.238496   5.585228   5.041181
    14  H    3.944649   2.860468   4.432366   4.122930   2.853024
    15  H    2.147271   5.227471   4.700256   5.630016   5.987219
    16  H    1.091732   4.434584   2.915709   4.220746   5.411889
                   11         12         13         14         15
    11  H    0.000000
    12  H    2.731219   0.000000
    13  H    6.088004   6.625067   0.000000
    14  H    5.493496   4.977982   2.505213   0.000000
    15  H    5.172001   6.706112   2.460754   4.328981   0.000000
    16  H    2.977538   5.172793   4.308465   5.036076   2.498389
                   16
    16  H    0.000000
 Stoichiometry    C8H7N
 Framework group  C1[X(C8H7N)]
 Deg. of freedom    42
 Full point group                 C1      NOp   1
 Largest Abelian subgroup         C1      NOp   1
 Largest concise Abelian subgroup C1      NOp   1
                         Standard orientation:                         
 ---------------------------------------------------------------------
 Center     Atomic      Atomic             Coordinates (Angstroms)
 Number     Number       Type             X           Y           Z
 ---------------------------------------------------------------------
      1          6           0       -2.171329    0.656527    0.005338
      2          6           0       -2.113959   -0.737218    0.005154
      3          6           0       -0.884321   -1.435842   -0.005313
      4          6           0        0.257397   -0.671560   -0.003089
      5          6           0        0.230445    0.749021    0.001245
      6          6           0       -1.008172    1.419528    0.001294
      7          7           0        1.602916   -1.048815   -0.005610
      8          6           0        1.561321    1.197813   -0.004396
      9          6           0        2.380580    0.040855    0.002254
     10          1           0        1.954090   -1.995805    0.044951
     11          1           0        1.921393    2.221928   -0.009431
     12          1           0        3.461814   -0.033113    0.028673
     13          1           0       -3.039622   -1.306799    0.004831
     14          1           0       -0.849031   -2.521786   -0.029900
     15          1           0       -3.138707    1.151959    0.002641
     16          1           0       -1.042110    2.510572   -0.017416
 ---------------------------------------------------------------------
 Rotational constants (GHZ):           3.8810682           1.6453157           1.1555033
 Standard basis: 6-31+G(d) (6D, 7F)
 There are   185 symmetry adapted cartesian basis functions of A   symmetry.
 There are   185 symmetry adapted basis functions of A   symmetry.
   185 basis functions,   316 primitive gaussians,   185 cartesian basis functions
    31 alpha electrons       31 beta electrons
       nuclear repulsion energy       400.7626912239 Hartrees.
 NAtoms=   16 NActive=   16 NUniq=   16 SFac= 1.00D+00 NAtFMM=   60 NAOKFM=F Big=F
 Integral buffers will be    131072 words long.
 Regular integral format.
 Two-electron integral symmetry is turned on.
 One-electron integrals computed using PRISM.
 NBasis=   185 RedAO= T EigKep=  1.24D-06  NBF=   185
 NBsUse=   185 1.00D-06 EigRej= -1.00D+00 NBFU=   185
 Initial guess from the checkpoint file:  "FuncsPBE1PBE-V-3rd.chk"
 B after Tr=    -0.000000    0.000000   -0.000000
         Rot=    0.999999    0.000025    0.000003    0.001492 Ang=   0.17 deg.
 ExpMin= 4.38D-02 ExpMax= 4.17D+03 ExpMxC= 6.27D+02 IAcc=3 IRadAn=         5 AccDes= 0.00D+00
 Harris functional with IExCor= 1009 and IRadAn=       5 diagonalized for initial guess.
 HarFok:  IExCor= 1009 AccDes= 0.00D+00 IRadAn=         5 IDoV= 1 UseB2=F ITyADJ=14
 ICtDFT=  3500011 ScaDFX=  1.000000  1.000000  1.000000  1.000000
 FoFCou: FMM=F IPFlag=           0 FMFlag=      100000 FMFlg1=           0
         NFxFlg=           0 DoJE=T BraDBF=F KetDBF=T FulRan=T
         wScrn=  0.000000 ICntrl=       500 IOpCl=  0 I1Cent=   200000004 NGrid=           0
         NMat0=    1 NMatS0=      1 NMatT0=    0 NMatD0=    1 NMtDS0=    0 NMtDT0=    0
 Petite list used in FoFCou.
 Keep R1 ints in memory in canonical form, NReq=152071459.
 Requested convergence on RMS density matrix=1.00D-08 within 128 cycles.
 Requested convergence on MAX density matrix=1.00D-06.
 Requested convergence on             energy=1.00D-06.
 No special actions if energy rises.
 SCF Done:  E(RPBE1PBE) =  -363.399003018     A.U. after   12 cycles
            NFock= 12  Conv=0.67D-08     -V/T= 2.0090
 DoSCS=F DFT=T ScalE2(SS,OS)=  1.000000  1.000000
 ExpMin= 4.38D-02 ExpMax= 4.17D+03 ExpMxC= 6.27D+02 IAcc=3 IRadAn=         5 AccDes= 0.00D+00
 HarFok:  IExCor=  205 AccDes= 0.00D+00 IRadAn=         5 IDoV=-2 UseB2=F ITyADJ=14
 ICtDFT= 12500011 ScaDFX=  1.000000  1.000000  1.000000  1.000000
 Range of M.O.s used for correlation:    10   185
 NBasis=   185 NAE=    31 NBE=    31 NFC=     9 NFV=     0
 NROrb=    176 NOA=    22 NOB=    22 NVA=   154 NVB=   154

 **** Warning!!: The largest alpha MO coefficient is  0.19736006D+03

 Orbital symmetries:
       Occupied  (A) (A) (A) (A) (A) (A) (A) (A) (A) (A) (A) (A)
                 (A) (A) (A) (A) (A) (A) (A) (A) (A) (A) (A) (A)
                 (A) (A) (A) (A) (A) (A) (A)
       Virtual   (A) (A) (A) (A) (A) (A) (A) (A) (A) (A) (A) (A)
                 (A) (A) (A) (A) (A) (A) (A) (A) (A) (A) (A) (A)
                 (A) (A) (A) (A) (A) (A) (A) (A) (A) (A) (A) (A)
                 (A) (A) (A) (A) (A) (A) (A) (A) (A) (A) (A) (A)
                 (A) (A) (A) (A) (A) (A) (A) (A) (A) (A) (A) (A)
                 (A) (A) (A) (A) (A) (A) (A) (A) (A) (A) (A) (A)
                 (A) (A) (A) (A) (A) (A) (A) (A) (A) (A) (A) (A)
                 (A) (A) (A) (A) (A) (A) (A) (A) (A) (A) (A) (A)
                 (A) (A) (A) (A) (A) (A) (A) (A) (A) (A) (A) (A)
                 (A) (A) (A) (A) (A) (A) (A) (A) (A) (A) (A) (A)
                 (A) (A) (A) (A) (A) (A) (A) (A) (A) (A) (A) (A)
                 (A) (A) (A) (A) (A) (A) (A) (A) (A) (A) (A) (A)
                 (A) (A) (A) (A) (A) (A) (A) (A) (A) (A)
 Generating guess from densities on rwf.
 Convergence on wavefunction:    0.000001000000000
 Iteration     1 Dimension    12 NMult     0 NNew     12
 CISAX will form    12 AO SS matrices at one time.
 New state      3 was old state      5
 New state      5 was old state      3
 Iteration     2 Dimension    24 NMult    12 NNew     12
 Iteration     3 Dimension    36 NMult    24 NNew     12
 Iteration     4 Dimension    48 NMult    36 NNew     12
 Iteration     5 Dimension    60 NMult    48 NNew     12
 Iteration     6 Dimension    72 NMult    60 NNew     12
 Iteration     7 Dimension    84 NMult    72 NNew     12
 Iteration     8 Dimension    96 NMult    84 NNew     12
 Iteration     9 Dimension   100 NMult    96 NNew      4
