 Entering Gaussian System, Link 0=/cm/shared/apps/spack/cpu/opt/spack/linux-centos8-zen/gcc-8.3.1/gaussian-16.C.01-po5bqktfeugvmjyga3v7eigbecnokxng/g16/g16
 Initial command:
 /cm/shared/apps/spack/cpu/opt/spack/linux-centos8-zen/gcc-8.3.1/gaussian-16.C.01-po5bqktfeugvmjyga3v7eigbecnokxng/g16/l1.exe "/scratch/scaparas/job_3405957/Gau-99009.inp" -scrdir="/scratch/scaparas/job_3405957/"
 Entering Link 1 = /cm/shared/apps/spack/cpu/opt/spack/linux-centos8-zen/gcc-8.3.1/gaussian-16.C.01-po5bqktfeugvmjyga3v7eigbecnokxng/g16/l1.exe PID=     99010.
  
 Copyright (c) 1988-2019, Gaussian, Inc.  All Rights Reserved.
  
 This is part of the Gaussian(R) 16 program.  It is based on
 the Gaussian(R) 09 system (copyright 2009, Gaussian, Inc.),
 the Gaussian(R) 03 system (copyright 2003, Gaussian, Inc.),
 the Gaussian(R) 98 system (copyright 1998, Gaussian, Inc.),
 the Gaussian(R) 94 system (copyright 1995, Gaussian, Inc.),
 the Gaussian 92(TM) system (copyright 1992, Gaussian, Inc.),
 the Gaussian 90(TM) system (copyright 1990, Gaussian, Inc.),
 the Gaussian 88(TM) system (copyright 1988, Gaussian, Inc.),
 the Gaussian 86(TM) system (copyright 1986, Carnegie Mellon
 University), and the Gaussian 82(TM) system (copyright 1983,
 Carnegie Mellon University). Gaussian is a federally registered
 trademark of Gaussian, Inc.
  
 This software contains proprietary and confidential information,
 including trade secrets, belonging to Gaussian, Inc.
  
 This software is provided under written license and may be
 used, copied, transmitted, or stored only in accord with that
 written license.
  
 The following legend is applicable only to US Government
 contracts under FAR:
  
                    RESTRICTED RIGHTS LEGEND
  
 Use, reproduction and disclosure by the US Government is
 subject to restrictions as set forth in subparagraphs (a)
 and (c) of the Commercial Computer Software - Restricted
 Rights clause in FAR 52.227-19.
  
 Gaussian, Inc.
 340 Quinnipiac St., Bldg. 40, Wallingford CT 06492
  
  
 ---------------------------------------------------------------
 Warning -- This program may not be used in any manner that
 competes with the business of Gaussian, Inc. or will provide
 assistance to any competitor of Gaussian, Inc.  The licensee
 of this program is prohibited from giving any competitor of
 Gaussian, Inc. access to this program.  By using this program,
 the user acknowledges that Gaussian, Inc. is engaged in the
 business of creating and licensing software in the field of
 computational chemistry and represents and warrants to the
 licensee that it is not a competitor of Gaussian, Inc. and that
 it will not use this program in any manner prohibited above.
 ---------------------------------------------------------------
  

 Cite this work as:
 Gaussian 16, Revision C.01,
 M. J. Frisch, G. W. Trucks, H. B. Schlegel, G. E. Scuseria, 
 M. A. Robb, J. R. Cheeseman, G. Scalmani, V. Barone, 
 G. A. Petersson, H. Nakatsuji, X. Li, M. Caricato, A. V. Marenich, 
 J. Bloino, B. G. Janesko, R. Gomperts, B. Mennucci, H. P. Hratchian, 
 J. V. Ortiz, A. F. Izmaylov, J. L. Sonnenberg, D. Williams-Young, 
 F. Ding, F. Lipparini, F. Egidi, J. Goings, B. Peng, A. Petrone, 
 T. Henderson, D. Ranasinghe, V. G. Zakrzewski, J. Gao, N. Rega, 
 G. Zheng, W. Liang, M. Hada, M. Ehara, K. Toyota, R. Fukuda, 
 J. Hasegawa, M. Ishida, T. Nakajima, Y. Honda, O. Kitao, H. Nakai, 
 T. Vreven, K. Throssell, J. A. Montgomery, Jr., J. E. Peralta, 
 F. Ogliaro, M. J. Bearpark, J. J. Heyd, E. N. Brothers, K. N. Kudin, 
 V. N. Staroverov, T. A. Keith, R. Kobayashi, J. Normand, 
 K. Raghavachari, A. P. Rendell, J. C. Burant, S. S. Iyengar, 
 J. Tomasi, M. Cossi, J. M. Millam, M. Klene, C. Adamo, R. Cammi, 
 J. W. Ochterski, R. L. Martin, K. Morokuma, O. Farkas, 
 J. B. Foresman, and D. J. Fox, Gaussian, Inc., Wallingford CT, 2019.
 
 ******************************************
 Gaussian 16:  AS64L-G16RevC.01  3-Jul-2019
                14-Jun-2021 
 ******************************************
 %nprocshared=4
 Will use up to    4 processors via shared memory.
 %chk=FuncsBVP86-V-2nd.chk
 %Mem=3GB
 -----------------------------------------------------------
 # td= (nstates=6, root=2) BVP86/6-31+G* Opt density=current
 -----------------------------------------------------------
 1/18=20,19=15,26=3,38=1/1,3;
 2/9=110,12=2,17=6,18=5,40=1/2;
 3/5=1,6=6,7=11,11=9,25=1,30=1,71=1,74=418/1,2,3,8;
 4//1;
 5/5=2,38=5/2;
 8/6=1,10=2,107=2,108=6/1;
 9/8=2,15=2,41=6,42=1,70=2/14;
 10/5=4,28=2/2;
 6/7=2,8=2,9=2,10=2,22=-1/1;
 7/12=6,13=5,14=2/1,2,3,16;
 1/18=20,19=15,26=3/3(2);
 2/9=110/2;
 99//99;
 2/9=110/2;
 3/5=1,6=6,7=11,11=9,25=1,30=1,71=1,74=418/1,2,3,8;
 4/5=5,16=3,69=1/1;
 5/5=2,38=5/2;
 8/6=1,10=2,107=2,108=6/1;
 9/8=2,15=2,41=6,42=1,49=4,70=2/14;
 10/5=4,28=2/2;
 7/12=6,13=5,14=2/1,2,3,16;
 1/18=20,19=15,26=3/3(-8);
 2/9=110/2;
 6/7=2,8=2,9=2,10=2,22=-1/1;
 99/9=10/99;
 ----------------
 FuncsBVP86-V-2nd
 ----------------
 Symbolic Z-matrix:
 Charge =  0 Multiplicity = 1
 C                    -2.15106   0.68921   0.00009 
 C                    -2.12793  -0.71582   0.00008 
 C                    -0.9323   -1.4131   -0.00001 
 C                     0.24691  -0.6702   -0.00004 
 C                     0.24819   0.7483    0. 
 C                    -0.97947   1.42353   0.00003 
 N                     1.56177  -1.07759  -0.00029 
 C                     1.62013   1.1629   -0.00016 
 C                     2.38201   0.03081   0.00025 
 H                     1.87632  -2.03001   0.00044 
 H                     1.99217   2.17301  -0.00035 
 H                     3.45255  -0.08243   0.00041 
 H                    -3.06159  -1.26202   0.00009 
 H                    -0.91725  -2.49534  -0.00007 
 H                    -3.1042    1.20079   0.00009 
 H                    -1.00935   2.50542  -0.00002 
 

 GradGradGradGradGradGradGradGradGradGradGradGradGradGradGradGradGradGrad
 Berny optimization.
 Initialization pass.
                           ----------------------------
                           !    Initial Parameters    !
                           ! (Angstroms and Degrees)  !
 --------------------------                            --------------------------
 ! Name  Definition              Value          Derivative Info.                !
 --------------------------------------------------------------------------------
 ! R1    R(1,2)                  1.4052         estimate D2E/DX2                !
 ! R2    R(1,6)                  1.3827         estimate D2E/DX2                !
 ! R3    R(1,15)                 1.0818         estimate D2E/DX2                !
 ! R4    R(2,3)                  1.3841         estimate D2E/DX2                !
 ! R5    R(2,13)                 1.0817         estimate D2E/DX2                !
 ! R6    R(3,4)                  1.3937         estimate D2E/DX2                !
 ! R7    R(3,14)                 1.0823         estimate D2E/DX2                !
 ! R8    R(4,5)                  1.4185         estimate D2E/DX2                !
 ! R9    R(4,7)                  1.3765         estimate D2E/DX2                !
 ! R10   R(5,6)                  1.4011         estimate D2E/DX2                !
 ! R11   R(5,8)                  1.4332         estimate D2E/DX2                !
 ! R12   R(6,16)                 1.0823         estimate D2E/DX2                !
 ! R13   R(7,9)                  1.3789         estimate D2E/DX2                !
 ! R14   R(7,10)                 1.003          estimate D2E/DX2                !
 ! R15   R(8,9)                  1.3646         estimate D2E/DX2                !
 ! R16   R(8,11)                 1.0764         estimate D2E/DX2                !
 ! R17   R(9,12)                 1.0765         estimate D2E/DX2                !
 ! A1    A(2,1,6)              121.1349         estimate D2E/DX2                !
 ! A2    A(2,1,15)             119.1671         estimate D2E/DX2                !
 ! A3    A(6,1,15)             119.698          estimate D2E/DX2                !
 ! A4    A(1,2,3)              121.1938         estimate D2E/DX2                !
 ! A5    A(1,2,13)             119.3846         estimate D2E/DX2                !
 ! A6    A(3,2,13)             119.4217         estimate D2E/DX2                !
 ! A7    A(2,3,4)              117.5387         estimate D2E/DX2                !
 ! A8    A(2,3,14)             121.0469         estimate D2E/DX2                !
 ! A9    A(4,3,14)             121.4144         estimate D2E/DX2                !
 ! A10   A(3,4,5)              122.2626         estimate D2E/DX2                !
 ! A11   A(3,4,7)              130.5743         estimate D2E/DX2                !
 ! A12   A(5,4,7)              107.163          estimate D2E/DX2                !
 ! A13   A(4,5,6)              118.7594         estimate D2E/DX2                !
 ! A14   A(4,5,8)              106.8666         estimate D2E/DX2                !
 ! A15   A(6,5,8)              134.374          estimate D2E/DX2                !
 ! A16   A(1,6,5)              119.1105         estimate D2E/DX2                !
 ! A17   A(1,6,16)             120.4966         estimate D2E/DX2                !
 ! A18   A(5,6,16)             120.3928         estimate D2E/DX2                !
 ! A19   A(4,7,9)              109.2874         estimate D2E/DX2                !
 ! A20   A(4,7,10)             125.4909         estimate D2E/DX2                !
 ! A21   A(9,7,10)             125.2217         estimate D2E/DX2                !
 ! A22   A(5,8,9)              107.125          estimate D2E/DX2                !
 ! A23   A(5,8,11)             127.0344         estimate D2E/DX2                !
 ! A24   A(9,8,11)             125.8405         estimate D2E/DX2                !
 ! A25   A(7,9,8)              109.5578         estimate D2E/DX2                !
 ! A26   A(7,9,12)             120.4645         estimate D2E/DX2                !
 ! A27   A(8,9,12)             129.9776         estimate D2E/DX2                !
 ! D1    D(6,1,2,3)             -0.0008         estimate D2E/DX2                !
 ! D2    D(6,1,2,13)          -179.9981         estimate D2E/DX2                !
 ! D3    D(15,1,2,3)           179.996          estimate D2E/DX2                !
 ! D4    D(15,1,2,13)           -0.0013         estimate D2E/DX2                !
 ! D5    D(2,1,6,5)             -0.0018         estimate D2E/DX2                !
 ! D6    D(2,1,6,16)           179.9965         estimate D2E/DX2                !
 ! D7    D(15,1,6,5)          -179.9986         estimate D2E/DX2                !
 ! D8    D(15,1,6,16)           -0.0003         estimate D2E/DX2                !
 ! D9    D(1,2,3,4)              0.002          estimate D2E/DX2                !
 ! D10   D(1,2,3,14)          -179.9968         estimate D2E/DX2                !
 ! D11   D(13,2,3,4)           179.9992         estimate D2E/DX2                !
 ! D12   D(13,2,3,14)            0.0005         estimate D2E/DX2                !
 ! D13   D(2,3,4,5)             -0.0005         estimate D2E/DX2                !
 ! D14   D(2,3,4,7)           -179.9911         estimate D2E/DX2                !
 ! D15   D(14,3,4,5)           179.9982         estimate D2E/DX2                !
 ! D16   D(14,3,4,7)             0.0076         estimate D2E/DX2                !
 ! D17   D(3,4,5,6)             -0.002          estimate D2E/DX2                !
 ! D18   D(3,4,5,8)           -179.9955         estimate D2E/DX2                !
 ! D19   D(7,4,5,6)            179.9905         estimate D2E/DX2                !
 ! D20   D(7,4,5,8)             -0.003          estimate D2E/DX2                !
 ! D21   D(3,4,7,9)           -179.98           estimate D2E/DX2                !
 ! D22   D(3,4,7,10)            -0.0649         estimate D2E/DX2                !
 ! D23   D(5,4,7,9)              0.0284         estimate D2E/DX2                !
 ! D24   D(5,4,7,10)           179.9434         estimate D2E/DX2                !
 ! D25   D(4,5,6,1)              0.0031         estimate D2E/DX2                !
 ! D26   D(4,5,6,16)          -179.9951         estimate D2E/DX2                !
 ! D27   D(8,5,6,1)            179.9944         estimate D2E/DX2                !
 ! D28   D(8,5,6,16)            -0.0038         estimate D2E/DX2                !
 ! D29   D(4,5,8,9)             -0.0234         estimate D2E/DX2                !
 ! D30   D(4,5,8,11)           179.9883         estimate D2E/DX2                !
 ! D31   D(6,5,8,9)            179.9846         estimate D2E/DX2                !
 ! D32   D(6,5,8,11)            -0.0037         estimate D2E/DX2                !
 ! D33   D(4,7,9,8)             -0.0444         estimate D2E/DX2                !
 ! D34   D(4,7,9,12)           179.9847         estimate D2E/DX2                !
 ! D35   D(10,7,9,8)          -179.9597         estimate D2E/DX2                !
 ! D36   D(10,7,9,12)            0.0693         estimate D2E/DX2                !
 ! D37   D(5,8,9,7)              0.0414         estimate D2E/DX2                !
 ! D38   D(5,8,9,12)          -179.9913         estimate D2E/DX2                !
 ! D39   D(11,8,9,7)          -179.9702         estimate D2E/DX2                !
 ! D40   D(11,8,9,12)           -0.0029         estimate D2E/DX2                !
 --------------------------------------------------------------------------------
 Trust Radius=3.00D-01 FncErr=1.00D-07 GrdErr=1.00D-06 EigMax=2.50D+02 EigMin=1.00D-04
 Number of steps in this run=     94 maximum allowed number of steps=    100.
 GradGradGradGradGradGradGradGradGradGradGradGradGradGradGradGradGradGrad

                          Input orientation:                          
 ---------------------------------------------------------------------
 Center     Atomic      Atomic             Coordinates (Angstroms)
 Number     Number       Type             X           Y           Z
 ---------------------------------------------------------------------
      1          6           0       -2.151063    0.689208    0.000088
      2          6           0       -2.127927   -0.715818    0.000075
      3          6           0       -0.932297   -1.413100   -0.000011
      4          6           0        0.246911   -0.670201   -0.000042
      5          6           0        0.248193    0.748299    0.000000
      6          6           0       -0.979474    1.423526    0.000032
      7          7           0        1.561774   -1.077592   -0.000285
      8          6           0        1.620133    1.162900   -0.000157
      9          6           0        2.382013    0.030806    0.000248
     10          1           0        1.876315   -2.030011    0.000438
     11          1           0        1.992173    2.173010   -0.000348
     12          1           0        3.452549   -0.082425    0.000408
     13          1           0       -3.061594   -1.262020    0.000088
     14          1           0       -0.917252   -2.495342   -0.000073
     15          1           0       -3.104203    1.200785    0.000090
     16          1           0       -1.009348    2.505421   -0.000015
 ---------------------------------------------------------------------
                    Distance matrix (angstroms):
                    1          2          3          4          5
     1  C    0.000000
     2  C    1.405216   0.000000
     3  C    2.430039   1.384100   0.000000
     4  C    2.756496   2.375276   1.393711   0.000000
     5  C    2.399984   2.790983   2.462763   1.418501   0.000000
     6  C    1.382694   2.428114   2.837018   2.426461   1.401106
     7  N    4.111781   3.707395   2.516536   1.376529   2.249305
     8  C    3.800829   4.192557   3.626386   2.290414   1.433218
     9  C    4.580641   4.571324   3.615178   2.247236   2.251218
    10  H    4.859416   4.214387   2.875566   2.122273   3.220216
    11  H    4.400917   5.031953   4.627387   3.336134   2.251948
    12  H    5.656491   5.616307   4.582311   3.259079   3.310287
    13  H    2.153220   1.081698   2.134650   3.361020   3.872476
    14  H    3.415208   2.152310   1.082347   2.164813   3.446661
    15  H    1.081752   2.150926   3.398466   3.838040   3.382795
    16  H    2.145261   3.409927   3.919278   3.415079   2.160761
                    6          7          8          9         10
     6  C    0.000000
     7  N    3.565604   0.000000
     8  C    2.612639   2.241252   0.000000
     9  C    3.638580   1.378890   1.364587   0.000000
    10  H    4.481345   1.003015   3.203172   2.121956   0.000000
    11  H    3.064704   3.278972   1.076446   2.177387   4.204618
    12  H    4.680888   2.136677   2.215532   1.076508   2.505515
    13  H    3.398144   4.627045   5.272457   5.595021   4.997275
    14  H    3.919362   2.855798   4.452085   4.155307   2.832058
    15  H    2.136372   5.192528   4.724488   5.609583   5.936632
    16  H    1.082307   4.410062   2.952378   4.198220   5.375611
                   11         12         13         14         15
    11  H    0.000000
    12  H    2.686947   0.000000
    13  H    6.110646   6.620083   0.000000
    14  H    5.500751   4.991726   2.473719   0.000000
    15  H    5.188282   6.681139   2.463174   4.294661   0.000000
    16  H    3.019872   5.158049   4.290143   5.001611   2.467892
                   16
    16  H    0.000000
 Stoichiometry    C8H7N
 Framework group  C1[X(C8H7N)]
 Deg. of freedom    42
 Full point group                 C1      NOp   1
 Largest Abelian subgroup         C1      NOp   1
 Largest concise Abelian subgroup C1      NOp   1
                         Standard orientation:                         
 ---------------------------------------------------------------------
 Center     Atomic      Atomic             Coordinates (Angstroms)
 Number     Number       Type             X           Y           Z
 ---------------------------------------------------------------------
      1          6           0       -2.151063    0.689208    0.000088
      2          6           0       -2.127927   -0.715818    0.000075
      3          6           0       -0.932297   -1.413100   -0.000011
      4          6           0        0.246911   -0.670201   -0.000042
      5          6           0        0.248193    0.748299    0.000000
      6          6           0       -0.979474    1.423526    0.000032
      7          7           0        1.561774   -1.077592   -0.000285
      8          6           0        1.620133    1.162900   -0.000157
      9          6           0        2.382013    0.030806    0.000248
     10          1           0        1.876315   -2.030011    0.000438
     11          1           0        1.992173    2.173010   -0.000348
     12          1           0        3.452549   -0.082425    0.000408
     13          1           0       -3.061594   -1.262020    0.000088
     14          1           0       -0.917252   -2.495342   -0.000073
     15          1           0       -3.104203    1.200785    0.000090
     16          1           0       -1.009348    2.505421   -0.000015
 ---------------------------------------------------------------------
 Rotational constants (GHZ):           3.9080822           1.6429452           1.1566805
 Standard basis: 6-31+G(d) (6D, 7F)
 There are   185 symmetry adapted cartesian basis functions of A   symmetry.
 There are   185 symmetry adapted basis functions of A   symmetry.
   185 basis functions,   316 primitive gaussians,   185 cartesian basis functions
    31 alpha electrons       31 beta electrons
       nuclear repulsion energy       401.3368668897 Hartrees.
 NAtoms=   16 NActive=   16 NUniq=   16 SFac= 1.00D+00 NAtFMM=   60 NAOKFM=F Big=F
 Integral buffers will be    131072 words long.
 Regular integral format.
 Two-electron integral symmetry is turned on.
 One-electron integrals computed using PRISM.
 NBasis=   185 RedAO= T EigKep=  1.26D-06  NBF=   185
 NBsUse=   185 1.00D-06 EigRej= -1.00D+00 NBFU=   185
 ExpMin= 4.38D-02 ExpMax= 4.17D+03 ExpMxC= 6.27D+02 IAcc=3 IRadAn=         5 AccDes= 0.00D+00
 Harris functional with IExCor=  418 and IRadAn=       5 diagonalized for initial guess.
 HarFok:  IExCor=  418 AccDes= 0.00D+00 IRadAn=         5 IDoV= 1 UseB2=F ITyADJ=14
 ICtDFT=  3500011 ScaDFX=  1.000000  1.000000  1.000000  1.000000
 FoFCou: FMM=F IPFlag=           0 FMFlag=      100000 FMFlg1=           0
         NFxFlg=           0 DoJE=T BraDBF=F KetDBF=T FulRan=T
         wScrn=  0.000000 ICntrl=       500 IOpCl=  0 I1Cent=   200000004 NGrid=           0
         NMat0=    1 NMatS0=      1 NMattT0=    0 NMatD0=    1 NMtDS0=    0 NMtDT0=    0
 Petite list used in FoFCou.
 Keep J ints in memory in canonical form, NReq=152071459.
 Requested convergence on RMS density matrix=1.00D-08 within 128 cycles.
 Requested convergence on MAX density matrix=1.00D-06.
 Requested convergence on             energy=1.00D-06.
 No special actions if energy rises.
 SCF Done:  E(RB-VP86) =  -363.845290966     A.U. after   15 cycles
            NFock= 15  Conv=0.74D-08     -V/T= 2.0097
 DoSCS=F DFT=T ScalE2(SS,OS)=  1.000000  1.000000
 ExpMin= 4.38D-02 ExpMax= 4.17D+03 ExpMxC= 6.27D+02 IAcc=3 IRadAn=         5 AccDes= 0.00D+00
 HarFok:  IExCor=  205 AccDes= 0.00D+00 IRadAn=         5 IDoV=-2 UseB2=F ITyADJ=14
 ICtDFT= 12500011 ScaDFX=  1.000000  1.000000  1.000000  1.000000
 Range of M.O.s used for correlation:    10   185
 NBasis=   185 NAE=    31 NBE=    31 NFC=     9 NFV=     0
 NROrb=    176 NOA=    22 NOB=    22 NVA=   154 NVB=   154

 **** Warning!!: The largest alpha MO coefficient is  0.20620289D+03

 Keep J ints in memory in canonical form, NReq=168659827.
 Orbital symmetries:
       Occupied  (A) (A) (A) (A) (A) (A) (A) (A) (A) (A) (A) (A)
                 (A) (A) (A) (A) (A) (A) (A) (A) (A) (A) (A) (A)
                 (A) (A) (A) (A) (A) (A) (A)
       Virtual   (A) (A) (A) (A) (A) (A) (A) (A) (A) (A) (A) (A)
                 (A) (A) (A) (A) (A) (A) (A) (A) (A) (A) (A) (A)
                 (A) (A) (A) (A) (A) (A) (A) (A) (A) (A) (A) (A)
                 (A) (A) (A) (A) (A) (A) (A) (A) (A) (A) (A) (A)
                 (A) (A) (A) (A) (A) (A) (A) (A) (A) (A) (A) (A)
                 (A) (A) (A) (A) (A) (A) (A) (A) (A) (A) (A) (A)
                 (A) (A) (A) (A) (A) (A) (A) (A) (A) (A) (A) (A)
                 (A) (A) (A) (A) (A) (A) (A) (A) (A) (A) (A) (A)
                 (A) (A) (A) (A) (A) (A) (A) (A) (A) (A) (A) (A)
                 (A) (A) (A) (A) (A) (A) (A) (A) (A) (A) (A) (A)
                 (A) (A) (A) (A) (A) (A) (A) (A) (A) (A) (A) (A)
                 (A) (A) (A) (A) (A) (A) (A) (A) (A) (A) (A) (A)
                 (A) (A) (A) (A) (A) (A) (A) (A) (A) (A)
    24 initial guesses have been made.
 Convergence on wavefunction:    0.000001000000000
 Iteration     1 Dimension    24 NMult     0 NNew     24
 CISAX will form    24 AO SS matrices at one time.
 New state      2 was old state      4
 New state      3 was old state      2
 New state      4 was old state      6
 New state      5 was old state      7
 New state      6 was old state      8
 Iteration     2 Dimension    48 NMult    24 NNew     24
 New state      2 was old state      3
 New state      3 was old state      2
 Iteration     3 Dimension    54 NMult    48 NNew      6
 Iteration     4 Dimension    60 NMult    54 NNew      6
 Iteration     5 Dimension    66 NMult    60 NNew      6
 Iteration     6 Dimension    72 NMult    66 NNew      6
 Iteration     7 Dimension    78 NMult    72 NNew      6
 Iteration     8 Dimension    84 NMult    78 NNew      6
 Iteration     9 Dimension    90 NMult    84 NNew      6
 Iteration    10 Dimension    96 NMult    90 NNew      6
 Iteration    11 Dimension   102 NMult    96 NNew      6
 Iteration    12 Dimension   108 NMult   102 NNew      6
 Iteration    13 Dimension   114 NMult   108 NNew      6
 Iteration    14 Dimension   120 NMult   114 NNew      6
 Iteration    15 Dimension   126 NMult   120 NNew      6
 Iteration    16 Dimension   132 NMult   126 NNew      6
 Iteration    17 Dimension   134 NMult   132 NNew      2
 Iteration    18 Dimension   136 NMult   134 NNew      2
 Iteration    19 Dimension   139 NMult   136 NNew      3
 Iteration    20 Dimension   142 NMult   139 NNew      3
 Iteration    21 Dimension   143 NMult   142 NNew      1
 Iteration    22 Dimension   144 NMult   143 NNew      1
 Iteration    23 Dimension   145 NMult   144 NNew      1
 ***********************************************************************
 Excited states from <AA,BB:AA,BB> singles matrix:
 ***********************************************************************
 
 Ground to excited state transition densities written to RWF  633
 Ground to excited state transition electric dipole moments (Au):
       state          X           Y           Z        Dip. S.      Osc.
         1        -0.4651      0.5359     -0.0001      0.5035      0.0550
         2        -0.3909     -0.1204     -0.0001      0.1673      0.0193
         3         0.0007     -0.0003     -0.1086      0.0118      0.0014
         4        -0.0004      0.0002     -0.1325      0.0176      0.0023
         5         0.0005     -0.0000      0.0108      0.0001      0.0000
         6         0.0009      0.0002      0.0963      0.0093      0.0013
 Ground to excited state transition velocity dipole moments (Au):
       state          X           Y           Z        Dip. S.      Osc.
         1         0.0679     -0.0962      0.0000      0.0139      0.0564
         2         0.0634      0.0218      0.0000      0.0045      0.0173
         3        -0.0001      0.0001      0.0109      0.0001      0.0004
         4         0.0001     -0.0000      0.0261      0.0007      0.0023
         5        -0.0001      0.0000     -0.0007      0.0000      0.0000
         6        -0.0002     -0.0000     -0.0197      0.0004      0.0013
 Ground to excited state transition magnetic dipole moments (Au):
       state          X           Y           Z
         1         0.0002     -0.0000      0.1981
         2        -0.0000     -0.0002      0.0105
         3         0.1132     -0.0476      0.0001
         4         0.0098     -0.1836      0.0000
         5         0.2763     -0.0979      0.0002
         6         0.0527      0.3278      0.0006
 Ground to excited state transition velocity quadrupole moments (Au):
       state          XX          YY          ZZ          XY          XZ          YZ
         1         0.1464     -0.0884      0.0077      0.0602      0.0001      0.0001
         2         0.0521     -0.0860      0.0224      0.0112      0.0001     -0.0000
         3        -0.0002      0.0001      0.0001      0.0001      0.0422      0.0507
         4        -0.0001      0.0001     -0.0000     -0.0000      0.1174     -0.0439
         5        -0.0002     -0.0001      0.0000      0.0002      0.1174      0.2106
         6         0.0000     -0.0001      0.0000      0.0003     -0.2899     -0.0178
 <0|del|b> * <b|rxdel|0> + <0|del|b> * <b|delr+rdel|0>
 Rotatory Strengths (R) in cgs (10**-40 erg-esu-cm/Gauss)
       state          XX          YY          ZZ    R(velocity)    E-M Angle
         1         0.0230      0.0448      0.0133      0.0270       90.00
         2        -0.0118     -0.0062     -0.0048     -0.0076       90.00
         3        -0.0061     -0.0314     -0.0133     -0.0169       90.00
         4         0.0179     -0.0029      0.0126      0.0092       90.00
         5        -0.0038     -0.0791     -0.0104     -0.0311       90.00
         6        -0.0654     -0.0213     -0.0236     -0.0367       90.00
 1/2[<0|r|b>*<b|rxdel|0> + (<0|rxdel|b>*<b|r|0>)*]
 Rotatory Strengths (R) in cgs (10**-40 erg-esu-cm/Gauss)
       state          XX          YY          ZZ     R(length)
         1         0.0757      0.0033      0.0151      0.0314
         2        -0.0075     -0.0158      0.0010     -0.0074
         3        -0.0532     -0.0096      0.0110     -0.0172
         4         0.0030      0.0209      0.0033      0.0090
         5        -0.0949     -0.0026     -0.0019     -0.0331
         6        -0.0330     -0.0497     -0.0412     -0.0413
  1/2[<0|del|b>*<b|r|0> + (<0|r|b>*<b|del|0>)*] (Au)
       state          X           Y           Z        Dip. S.   Osc.(frdel)
         1        -0.0316     -0.0515     -0.0000      0.0831      0.0554
         2        -0.0248     -0.0026     -0.0000      0.0274      0.0183
         3        -0.0000     -0.0000     -0.0012      0.0012      0.0008
         4        -0.0000     -0.0000     -0.0035      0.0035      0.0023
         5        -0.0000     -0.0000     -0.0000      0.0000      0.0000
         6        -0.0000     -0.0000     -0.0019      0.0019      0.0013

 Excitation energies and oscillator strengths:
 
 Excited State   1:      Singlet-A      4.4566 eV  278.20 nm  f=0.0550  <S**2>=0.000
      29 -> 32         0.13496
      30 -> 33         0.12102
      31 -> 32         0.66148
 
 Excited State   2:      Singlet-A      4.7050 eV  263.51 nm  f=0.0193  <S**2>=0.000
      30 -> 32         0.55077
      31 -> 33        -0.43625
 This state for optimization and/or second-order correction.
 Total Energy, E(TD-HF/TD-DFT) =  -363.672383892    
 Copying the excited state density for this state as the 1-particle RhoCI density.
 
 Excited State   3:      Singlet-A      4.8470 eV  255.80 nm  f=0.0014  <S**2>=0.000
      31 -> 34         0.70681
 
 Excited State   4:      Singlet-A      5.2949 eV  234.16 nm  f=0.0023  <S**2>=0.000
      30 -> 34         0.70648
 
 Excited State   5:      Singlet-A      5.3526 eV  231.63 nm  f=0.0000  <S**2>=0.000
      31 -> 35         0.70639
 
 Excited State   6:      Singlet-A      5.5532 eV  223.26 nm  f=0.0013  <S**2>=0.000
      31 -> 36         0.70664
 SavETr:  write IOETrn=   770 NScale= 10 NData=  16 NLR=1 NState=    6 LETran=     118.
          IDoAtm=1111111111111111
          Differentiating once with respect to electric field.
                with respect to dipole field.
          Differentiating once with respect to nuclear coordinates.
 Keep J ints in memory in canonical form, NReq=152083851.
          There are     1 degrees of freedom in the 1st order CPHF.  IDoFFX=0 NUNeed=     1.
 LinEq1:  Iter=  0 NonCon=     1 RMS=7.07D-03 Max=2.34D-01 NDo=     1
 AX will form     1 AO Fock derivatives at one time.
 LinEq1:  Iter=  1 NonCon=     1 RMS=4.01D-03 Max=1.07D-01 NDo=     1
 LinEq1:  Iter=  2 NonCon=     1 RMS=4.55D-03 Max=1.41D-01 NDo=     1
 LinEq1:  Iter=  3 NonCon=     1 RMS=2.20D-03 Max=4.97D-02 NDo=     1
 LinEq1:  Iter=  4 NonCon=     1 RMS=2.21D-03 Max=7.54D-02 NDo=     1
 LinEq1:  Iter=  5 NonCon=     1 RMS=1.16D-03 Max=2.66D-02 NDo=     1
 LinEq1:  Iter=  6 NonCon=     1 RMS=7.91D-04 Max=1.62D-02 NDo=     1
 LinEq1:  Iter=  7 NonCon=     1 RMS=5.36D-04 Max=8.58D-03 NDo=     1
 LinEq1:  Iter=  8 NonCon=     1 RMS=2.23D-04 Max=3.54D-03 NDo=     1
 LinEq1:  Iter=  9 NonCon=     1 RMS=1.72D-04 Max=5.29D-03 NDo=     1
 LinEq1:  Iter= 10 NonCon=     1 RMS=9.27D-05 Max=1.99D-03 NDo=     1
 LinEq1:  Iter= 11 NonCon=     1 RMS=7.37D-05 Max=2.09D-03 NDo=     1
 LinEq1:  Iter= 12 NonCon=     1 RMS=2.78D-05 Max=6.67D-04 NDo=     1
 LinEq1:  Iter= 13 NonCon=     1 RMS=1.45D-05 Max=3.47D-04 NDo=     1
 LinEq1:  Iter= 14 NonCon=     1 RMS=6.60D-06 Max=7.04D-05 NDo=     1
 LinEq1:  Iter= 15 NonCon=     1 RMS=1.17D-06 Max=1.95D-05 NDo=     1
 LinEq1:  Iter= 16 NonCon=     1 RMS=1.01D-06 Max=2.34D-05 NDo=     1
 LinEq1:  Iter= 17 NonCon=     1 RMS=2.84D-07 Max=3.69D-06 NDo=     1
 LinEq1:  Iter= 18 NonCon=     1 RMS=4.48D-08 Max=5.23D-07 NDo=     1
 LinEq1:  Iter= 19 NonCon=     1 RMS=1.02D-08 Max=1.04D-07 NDo=     1
 LinEq1:  Iter= 20 NonCon=     1 RMS=3.81D-09 Max=3.68D-08 NDo=     1
 LinEq1:  Iter= 21 NonCon=     1 RMS=8.12D-10 Max=7.83D-09 NDo=     1
 LinEq1:  Iter= 22 NonCon=     1 RMS=1.42D-10 Max=1.25D-09 NDo=     1
 LinEq1:  Iter= 23 NonCon=     0 RMS=2.82D-11 Max=2.72D-10 NDo=     1
 Linear equations converged to 1.000D-10 1.000D-09 after    23 iterations.
 End of Minotr F.D. properties file   721 does not exist.
 End of Minotr F.D. properties file   722 does not exist.
 End of Minotr F.D. properties file   788 does not exist.

 **********************************************************************

            Population analysis using the CI Density.

 **********************************************************************

 Orbital symmetries:
       Occupied  (A) (A) (A) (A) (A) (A) (A) (A) (A) (A) (A) (A)
                 (A) (A) (A) (A) (A) (A) (A) (A) (A) (A) (A) (A)
                 (A) (A) (A) (A) (A) (A) (A)
       Virtual   (A) (A) (A) (A) (A) (A) (A) (A) (A) (A) (A) (A)
                 (A) (A) (A) (A) (A) (A) (A) (A) (A) (A) (A) (A)
                 (A) (A) (A) (A) (A) (A) (A) (A) (A) (A) (A) (A)
                 (A) (A) (A) (A) (A) (A) (A) (A) (A) (A) (A) (A)
                 (A) (A) (A) (A) (A) (A) (A) (A) (A) (A) (A) (A)
                 (A) (A) (A) (A) (A) (A) (A) (A) (A) (A) (A) (A)
                 (A) (A) (A) (A) (A) (A) (A) (A) (A) (A) (A) (A)
                 (A) (A) (A) (A) (A) (A) (A) (A) (A) (A) (A) (A)
                 (A) (A) (A) (A) (A) (A) (A) (A) (A) (A) (A) (A)
                 (A) (A) (A) (A) (A) (A) (A) (A) (A) (A) (A) (A)
                 (A) (A) (A) (A) (A) (A) (A) (A) (A) (A) (A) (A)
                 (A) (A) (A) (A) (A) (A) (A) (A) (A) (A) (A) (A)
                 (A) (A) (A) (A) (A) (A) (A) (A) (A) (A)
 The electronic state is 1-A.
 Alpha  occ. eigenvalues --  -14.07390  -9.94898  -9.94724  -9.91821  -9.91413
 Alpha  occ. eigenvalues --   -9.91227  -9.91214  -9.90785  -9.90637  -0.90790
 Alpha  occ. eigenvalues --   -0.76920  -0.71683  -0.67178  -0.65430  -0.57084
 Alpha  occ. eigenvalues --   -0.54336  -0.52976  -0.49254  -0.43806  -0.42588
 Alpha  occ. eigenvalues --   -0.39554  -0.38652  -0.38191  -0.36894  -0.35143
 Alpha  occ. eigenvalues --   -0.31574  -0.30122  -0.29706  -0.25151  -0.20312
 Alpha  occ. eigenvalues --   -0.18638
 Alpha virt. eigenvalues --   -0.04424  -0.01027  -0.00793   0.01081   0.01855
 Alpha virt. eigenvalues --    0.01959   0.03278   0.03486   0.05210   0.05703
 Alpha virt. eigenvalues --    0.05971   0.06334   0.08087   0.08426   0.09996
 Alpha virt. eigenvalues --    0.10356   0.10568   0.11910   0.12954   0.12956
 Alpha virt. eigenvalues --    0.14307   0.14534   0.15156   0.15661   0.15853
 Alpha virt. eigenvalues --    0.16177   0.17151   0.17671   0.18078   0.18503
 Alpha virt. eigenvalues --    0.18894   0.19173   0.20367   0.20690   0.21516
 Alpha virt. eigenvalues --    0.22097   0.22727   0.22734   0.23762   0.24315
 Alpha virt. eigenvalues --    0.25575   0.26140   0.26430   0.27311   0.27721
 Alpha virt. eigenvalues --    0.28494   0.29782   0.30906   0.32761   0.33673
 Alpha virt. eigenvalues --    0.34507   0.36962   0.38863   0.41466   0.47325
 Alpha virt. eigenvalues --    0.53392   0.57489   0.62720   0.63621   0.65124
 Alpha virt. eigenvalues --    0.67066   0.67344   0.68311   0.68797   0.69221
 Alpha virt. eigenvalues --    0.70352   0.70634   0.72730   0.74144   0.74841
 Alpha virt. eigenvalues --    0.76682   0.80201   0.84103   0.84798   0.85910
 Alpha virt. eigenvalues --    0.88363   0.88923   0.90102   0.90388   0.93116
 Alpha virt. eigenvalues --    0.94694   0.97912   0.99823   1.01130   1.04799
 Alpha virt. eigenvalues --    1.06432   1.06550   1.12056   1.12834   1.15352
 Alpha virt. eigenvalues --    1.17598   1.17621   1.19852   1.25959   1.26074
 Alpha virt. eigenvalues --    1.27987   1.31286   1.35096   1.36156   1.39235
 Alpha virt. eigenvalues --    1.39525   1.40349   1.43295   1.43809   1.48083
 Alpha virt. eigenvalues --    1.52798   1.58884   1.72092   1.77513   1.81185
 Alpha virt. eigenvalues --    1.82274   1.84996   1.87658   1.92063   1.92452
 Alpha virt. eigenvalues --    1.93410   1.98847   2.02445   2.06879   2.09710
 Alpha virt. eigenvalues --    2.10117   2.12361   2.17436   2.18681   2.19169
 Alpha virt. eigenvalues --    2.21395   2.24091   2.30557   2.33292   2.37170
 Alpha virt. eigenvalues --    2.47170   2.48055   2.56069   2.58229   2.59204
 Alpha virt. eigenvalues --    2.61930   2.65567   2.72930   2.76803   2.77600
 Alpha virt. eigenvalues --    2.87543   2.90153   3.02769   3.15691   3.36211
 Alpha virt. eigenvalues --    4.05249   4.16548   4.19560   4.23034   4.26583
 Alpha virt. eigenvalues --    4.30125   4.38503   4.42419   4.69358
          Condensed to atoms (all electrons):
               1          2          3          4          5          6
     1  C    5.978690   0.276462   0.208907  -0.644490  -0.063293  -0.242534
     2  C    0.276462   6.058153  -0.120473   0.388760  -0.863569   0.758062
     3  C    0.208907  -0.120473  15.297049  -3.809087  -4.065648  -3.348126
     4  C   -0.644490   0.388760  -3.809087  15.224469  -3.610938  -0.509859
     5  C   -0.063293  -0.863569  -4.065648  -3.610938  16.377950  -0.795762
     6  C   -0.242534   0.758062  -3.348126  -0.509859  -0.795762  13.482853
     7  N   -0.044280   0.019524  -0.534689  -0.569397   0.924253   0.218573
     8  C    0.250781  -0.363837   3.989940   0.678782  -5.855404  -3.893944
     9  C   -0.089991   0.054053  -1.510697  -0.204542   2.233093   0.984442
    10  H   -0.001686  -0.013527  -0.147604  -0.073801   0.185678   0.025166
    11  H    0.001932   0.001388   0.000279   0.035155  -0.015758   0.005449
    12  H    0.000984   0.000606   0.041265   0.114266  -0.110237  -0.031392
    13  H   -0.002437   0.274585  -0.013897   0.020121  -0.002853   0.017067
    14  H    0.016461   0.029975   0.178761   0.061497   0.023522  -0.023283
    15  H    0.296674  -0.015891   0.034555  -0.028766   0.034222  -0.033874
    16  H    0.016202   0.020309  -0.039740   0.015371   0.075970   0.231740
               7          8          9         10         11         12
     1  C   -0.044280   0.250781  -0.089991  -0.001686   0.001932   0.000984
     2  C    0.019524  -0.363837   0.054053  -0.013527   0.001388   0.000606
     3  C   -0.534689   3.989940  -1.510697  -0.147604   0.000279   0.041265
     4  C   -0.569397   0.678782  -0.204542  -0.073801   0.035155   0.114266
     5  C    0.924253  -5.855404   2.233093   0.185678  -0.015758  -0.110237
     6  C    0.218573  -3.893944   0.984442   0.025166   0.005449  -0.031392
     7  N    7.412273  -0.717606   0.519125   0.262030   0.007275  -0.065741
     8  C   -0.717606  14.265958  -2.862326   0.026381   0.279322   0.022160
     9  C    0.519125  -2.862326   6.936185  -0.045017  -0.030116   0.325795
    10  H    0.262030   0.026381  -0.045017   0.371305  -0.000109  -0.002876
    11  H    0.007275   0.279322  -0.030116  -0.000109   0.517505  -0.001368
    12  H   -0.065741   0.022160   0.325795  -0.002876  -0.001368   0.504249
    13  H   -0.000529  -0.001575   0.001589  -0.000003   0.000000  -0.000000
    14  H   -0.014288  -0.007551   0.007650   0.002650   0.000002   0.000002
    15  H    0.000339   0.005885  -0.000364  -0.000000  -0.000002  -0.000000
    16  H   -0.000743  -0.049878   0.005280   0.000005   0.001757  -0.000002
              13         14         15         16
     1  C   -0.002437   0.016461   0.296674   0.016202
     2  C    0.274585   0.029975  -0.015891   0.020309
     3  C   -0.013897   0.178761   0.034555  -0.039740
     4  C    0.020121   0.061497  -0.028766   0.015371
     5  C   -0.002853   0.023522   0.034222   0.075970
     6  C    0.017067  -0.023283  -0.033874   0.231740
     7  N   -0.000529  -0.014288   0.000339  -0.000743
     8  C   -0.001575  -0.007551   0.005885  -0.049878
     9  C    0.001589   0.007650  -0.000364   0.005280
    10  H   -0.000003   0.002650  -0.000000   0.000005
    11  H    0.000000   0.000002  -0.000002   0.001757
    12  H   -0.000000   0.000002  -0.000000  -0.000002
    13  H    0.537766  -0.005563  -0.005494  -0.000175
    14  H   -0.005563   0.552599  -0.000176   0.000021
    15  H   -0.005494  -0.000176   0.536134  -0.005397
    16  H   -0.000175   0.000021  -0.005397   0.547062
 Mulliken charges:
               1
     1  C    0.041619
     2  C   -0.504581
     3  C   -0.160796
     4  C   -1.087541
     5  C    1.528774
     6  C   -0.844578
     7  N   -0.416120
     8  C    0.232912
     9  C   -0.324157
    10  H    0.411406
    11  H    0.197287
    12  H    0.202288
    13  H    0.181398
    14  H    0.177719
    15  H    0.182154
    16  H    0.182216
 Sum of Mulliken charges =  -0.00000
 Mulliken charges with hydrogens summed into heavy atoms:
               1
     1  C    0.223773
     2  C   -0.323183
     3  C    0.016923
     4  C   -1.087541
     5  C    1.528774
     6  C   -0.662361
     7  N   -0.004714
     8  C    0.430199
     9  C   -0.121869
 Electronic spatial extent (au):  <R**2>=           1007.2993
 Charge=             -0.0000 electrons
 Dipole moment (field-independent basis, Debye):
    X=              2.2583    Y=             -1.3474    Z=              0.0002  Tot=              2.6297
 Quadrupole moment (field-independent basis, Debye-Ang):
   XX=            -46.2457   YY=            -45.9742   ZZ=            -59.2445
   XY=             -2.9475   XZ=              0.0013   YZ=             -0.0016
 Traceless Quadrupole moment (field-independent basis, Debye-Ang):
   XX=              4.2425   YY=              4.5139   ZZ=             -8.7564
   XY=             -2.9475   XZ=              0.0013   YZ=             -0.0016
 Octapole moment (field-independent basis, Debye-Ang**2):
  XXX=             17.9980  YYY=             -9.3021  ZZZ=             -0.0054  XYY=             11.2747
  XXY=             -6.6339  XXZ=              0.0021  XZZ=              3.0858  YZZ=             -1.2702
  YYZ=             -0.0024  XYZ=             -0.0046
 Hexadecapole moment (field-independent basis, Debye-Ang**3):
 XXXX=           -842.6242 YYYY=           -384.3610 ZZZZ=            -79.3206 XXXY=            -19.2603
 XXXZ=              0.0057 YYYX=            -18.9657 YYYZ=             -0.0017 ZZZX=             -0.0008
 ZZZY=              0.0038 XXYY=           -199.3153 XXZZ=           -195.9040 YYZZ=            -98.4616
 XXYZ=             -0.0039 YYXZ=              0.0058 ZZXY=             -3.3708
 N-N= 4.013368668897D+02 E-N=-1.645260781376D+03  KE= 3.605613785204D+02
 Calling FoFJK, ICntrl=  10005527 FMM=F ISym2X=0 I1Cent= 0 IOpClX= 0 NMat=1 NMatS=1 NMatT=0.
 ***** Axes restored to original set *****
 -------------------------------------------------------------------
 Center     Atomic                   Forces (Hartrees/Bohr)
 Number     Number              X              Y              Z
 -------------------------------------------------------------------
      1        6          -0.028670855    0.004380837   -0.000001596
      2        6          -0.019233354   -0.014391928    0.000003804
      3        6           0.003905079   -0.027115563    0.000008836
      4        6           0.007650546   -0.014581073   -0.000015349
      5        6           0.013997098    0.026919963   -0.000019964
      6        6           0.021918974    0.031032116   -0.000005922
      7        7          -0.004717686   -0.007203527    0.000012769
      8        6          -0.026068614    0.019115706    0.000028255
      9        6           0.030195185   -0.013462804   -0.000029750
     10        1           0.003969094   -0.011732281    0.000014445
     11        1           0.002933509    0.008897174    0.000005781
     12        1           0.009141755   -0.001183550   -0.000002305
     13        1          -0.007558852   -0.004576581    0.000001394
     14        1           0.000072334   -0.008777833   -0.000001104
     15        1          -0.007867924    0.004130448   -0.000000540
     16        1           0.000333712    0.008548898    0.000001247
 -------------------------------------------------------------------
 Cartesian Forces:  Max     0.031032116 RMS     0.012623970

 GradGradGradGradGradGradGradGradGradGradGradGradGradGradGradGradGradGrad
 Berny optimization.
 FormGI is forming the generalized inverse of G from B-inverse, IUseBI=4.
 Internal  Forces:  Max     0.045853418 RMS     0.010818283
 Search for a local minimum.
 Step number   1 out of a maximum of   94
 All quantities printed in internal units (Hartrees-Bohrs-Radians)
 Mixed Optimization -- RFO/linear search
 Second derivative matrix not updated -- first step.
 ITU=  0
     Eigenvalues ---    0.01853   0.01931   0.01986   0.02012   0.02070
     Eigenvalues ---    0.02113   0.02148   0.02153   0.02172   0.02209
     Eigenvalues ---    0.02233   0.02248   0.02338   0.16000   0.16000
     Eigenvalues ---    0.16000   0.16000   0.16000   0.16000   0.16000
     Eigenvalues ---    0.22000   0.22188   0.22662   0.24011   0.24651
     Eigenvalues ---    0.35712   0.35717   0.35783   0.35790   0.36420
     Eigenvalues ---    0.36427   0.37009   0.38432   0.42633   0.43465
     Eigenvalues ---    0.45769   0.46692   0.47162   0.47468   0.47567
     Eigenvalues ---    0.48125   0.50955
 RFO step:  Lambda=-2.04647953D-02 EMin= 1.85287394D-02
 Linear search not attempted -- first point.
 Iteration  1 RMS(Cart)=  0.03693774 RMS(Int)=  0.00010590
 Iteration  2 RMS(Cart)=  0.00014495 RMS(Int)=  0.00001941
 Iteration  3 RMS(Cart)=  0.00000002 RMS(Int)=  0.00001941
 Variable       Old X    -DE/DX   Delta X   Delta X   Delta X     New X
                                 (Linear)    (Quad)   (Total)
    R1        2.65547   0.03566   0.00000   0.07747   0.07747   2.73295
    R2        2.61291   0.04585   0.00000   0.09130   0.09132   2.70423
    R3        2.04421   0.00889   0.00000   0.02349   0.02349   2.06770
    R4        2.61557   0.03108   0.00000   0.06211   0.06210   2.67767
    R5        2.04411   0.00884   0.00000   0.02335   0.02335   2.06746
    R6        2.63373   0.02906   0.00000   0.05882   0.05881   2.69254
    R7        2.04534   0.00878   0.00000   0.02325   0.02325   2.06859
    R8        2.68058   0.03842   0.00000   0.08272   0.08267   2.76325
    R9        2.60126   0.01467   0.00000   0.02819   0.02820   2.62946
   R10        2.64771   0.01899   0.00000   0.03954   0.03955   2.68725
   R11        2.70839   0.00120   0.00000   0.00188   0.00184   2.71023
   R12        2.04526   0.00854   0.00000   0.02261   0.02261   2.06787
   R13        2.60573   0.02021   0.00000   0.04082   0.04087   2.64660
   R14        1.89542   0.01239   0.00000   0.02517   0.02517   1.92059
   R15        2.57870   0.03778   0.00000   0.07092   0.07094   2.64964
   R16        2.03419   0.00936   0.00000   0.02434   0.02434   2.05852
   R17        2.03430   0.00922   0.00000   0.02396   0.02396   2.05826
    A1        2.11420   0.00127   0.00000   0.00898   0.00900   2.12320
    A2        2.07986  -0.00072   0.00000  -0.00495  -0.00496   2.07490
    A3        2.08912  -0.00055   0.00000  -0.00403  -0.00404   2.08509
    A4        2.11523  -0.00061   0.00000   0.00044   0.00043   2.11566
    A5        2.08365   0.00044   0.00000   0.00053   0.00054   2.08419
    A6        2.08430   0.00017   0.00000  -0.00097  -0.00097   2.08333
    A7        2.05144  -0.00266   0.00000  -0.01225  -0.01228   2.03916
    A8        2.11267   0.00128   0.00000   0.00584   0.00586   2.11852
    A9        2.11908   0.00138   0.00000   0.00641   0.00642   2.12550
   A10        2.13389   0.00392   0.00000   0.01243   0.01241   2.14630
   A11        2.27895  -0.00354   0.00000  -0.00907  -0.00903   2.26992
   A12        1.87035  -0.00038   0.00000  -0.00336  -0.00338   1.86696
   A13        2.07274   0.00225   0.00000   0.00742   0.00745   2.08019
   A14        1.86517  -0.00030   0.00000  -0.00450  -0.00457   1.86060
   A15        2.34527  -0.00196   0.00000  -0.00292  -0.00287   2.34239
   A16        2.07887  -0.00417   0.00000  -0.01702  -0.01701   2.06186
   A17        2.10306   0.00267   0.00000   0.01174   0.01173   2.11480
   A18        2.10125   0.00150   0.00000   0.00528   0.00528   2.10653
   A19        1.90743   0.00160   0.00000   0.00814   0.00819   1.91561
   A20        2.19023  -0.00072   0.00000  -0.00360  -0.00362   2.18661
   A21        2.18553  -0.00089   0.00000  -0.00454  -0.00456   2.18097
   A22        1.86968   0.00328   0.00000   0.01329   0.01327   1.88296
   A23        2.21717  -0.00197   0.00000  -0.00846  -0.00845   2.20872
   A24        2.19633  -0.00131   0.00000  -0.00483  -0.00482   2.19151
   A25        1.91215  -0.00421   0.00000  -0.01357  -0.01350   1.89864
   A26        2.10250   0.00188   0.00000   0.00557   0.00554   2.10804
   A27        2.26854   0.00232   0.00000   0.00800   0.00797   2.27650
    D1       -0.00001  -0.00000   0.00000  -0.00004  -0.00004  -0.00006
    D2       -3.14156  -0.00000   0.00000  -0.00004  -0.00004   3.14158
    D3        3.14152   0.00000   0.00000   0.00002   0.00002   3.14154
    D4       -0.00002   0.00000   0.00000   0.00002   0.00002  -0.00001
    D5       -0.00003   0.00000   0.00000   0.00006   0.00006   0.00003
    D6        3.14153   0.00000   0.00000   0.00010   0.00010  -3.14156
    D7       -3.14157   0.00000   0.00000   0.00000   0.00000  -3.14157
    D8       -0.00001   0.00000   0.00000   0.00004   0.00004   0.00003
    D9        0.00003  -0.00000   0.00000  -0.00003  -0.00003   0.00001
   D10       -3.14154   0.00000   0.00000   0.00002   0.00002  -3.14151
   D11        3.14158  -0.00000   0.00000  -0.00003  -0.00003   3.14155
   D12        0.00001   0.00000   0.00000   0.00002   0.00002   0.00003
   D13       -0.00001   0.00000   0.00000   0.00008   0.00008   0.00007
   D14       -3.14144  -0.00000   0.00000  -0.00001  -0.00001  -3.14144
   D15        3.14156   0.00000   0.00000   0.00003   0.00003   3.14159
   D16        0.00013  -0.00000   0.00000  -0.00005  -0.00005   0.00008
   D17       -0.00004  -0.00000   0.00000  -0.00006  -0.00006  -0.00010
   D18       -3.14151  -0.00001   0.00000  -0.00016  -0.00016   3.14151
   D19        3.14143   0.00000   0.00000   0.00000   0.00001   3.14143
   D20       -0.00005  -0.00000   0.00000  -0.00009  -0.00009  -0.00015
   D21       -3.14124  -0.00000   0.00000  -0.00014  -0.00014  -3.14139
   D22       -0.00113   0.00000   0.00000   0.00006   0.00006  -0.00107
   D23        0.00049  -0.00001   0.00000  -0.00022  -0.00022   0.00028
   D24        3.14060   0.00000   0.00000  -0.00001  -0.00002   3.14059
   D25        0.00005  -0.00000   0.00000  -0.00001  -0.00001   0.00004
   D26       -3.14151  -0.00000   0.00000  -0.00005  -0.00005  -3.14156
   D27        3.14150   0.00000   0.00000   0.00012   0.00012  -3.14157
   D28       -0.00007   0.00000   0.00000   0.00009   0.00009   0.00002
   D29       -0.00041   0.00002   0.00000   0.00037   0.00037  -0.00003
   D30        3.14139   0.00001   0.00000   0.00013   0.00013   3.14152
   D31        3.14132   0.00001   0.00000   0.00025   0.00025   3.14158
   D32       -0.00006   0.00000   0.00000   0.00001   0.00001  -0.00006
   D33       -0.00077   0.00002   0.00000   0.00047   0.00047  -0.00030
   D34        3.14133   0.00001   0.00000   0.00015   0.00014   3.14147
   D35       -3.14089   0.00001   0.00000   0.00027   0.00027  -3.14062
   D36        0.00121  -0.00000   0.00000  -0.00006  -0.00006   0.00115
   D37        0.00072  -0.00002   0.00000  -0.00052  -0.00052   0.00020
   D38       -3.14144  -0.00001   0.00000  -0.00015  -0.00015   3.14159
   D39       -3.14107  -0.00001   0.00000  -0.00028  -0.00028  -3.14135
   D40       -0.00005   0.00000   0.00000   0.00009   0.00009   0.00004
         Item               Value     Threshold  Converged?
 Maximum Force            0.045853     0.000450     NO 
 RMS     Force            0.010818     0.000300     NO 
 Maximum Displacement     0.118839     0.001800     NO 
 RMS     Displacement     0.036913     0.001200     NO 
 Predicted change in Energy=-1.067487D-02
 GradGradGradGradGradGradGradGradGradGradGradGradGradGradGradGradGradGrad

                          Input orientation:                          
 ---------------------------------------------------------------------
 Center     Atomic      Atomic             Coordinates (Angstroms)
 Number     Number       Type             X           Y           Z
 ---------------------------------------------------------------------
      1          6           0       -2.187968    0.705078    0.000003
      2          6           0       -2.166069   -0.740970    0.000068
      3          6           0       -0.943303   -1.456952    0.000049
      4          6           0        0.254173   -0.684814   -0.000029
      5          6           0        0.258252    0.777427   -0.000003
      6          6           0       -0.981300    1.474342   -0.000015
      7          7           0        1.583906   -1.094631   -0.000224
      8          6           0        1.633777    1.183432    0.000014
      9          6           0        2.424524    0.025555    0.000043
     10          1           0        1.900571   -2.060373    0.000546
     11          1           0        2.008232    2.206374   -0.000030
     12          1           0        3.507534   -0.090260    0.000062
     13          1           0       -3.110834   -1.292672    0.000089
     14          1           0       -0.923593   -2.551423    0.000026
     15          1           0       -3.153935    1.219025   -0.000032
     16          1           0       -1.007063    2.568308   -0.000031
 ---------------------------------------------------------------------
                    Distance matrix (angstroms):
                    1          2          3          4          5
     1  C    0.000000
     2  C    1.446214   0.000000
     3  C    2.494708   1.416964   0.000000
     4  C    2.809956   2.420893   1.424831   0.000000
     5  C    2.447290   2.860570   2.536963   1.462246   0.000000
     6  C    1.431018   2.512226   2.931540   2.487639   1.422034
     7  N    4.179233   3.766615   2.553049   1.391453   2.293896
     8  C    3.851566   4.259361   3.689576   2.322424   1.434193
     9  C    4.662278   4.654149   3.679685   2.283648   2.293043
    10  H    4.935977   4.275322   2.907186   2.145411   3.278768
    11  H    4.456679   5.109953   4.704414   3.381670   2.259274
    12  H    5.750766   5.710796   4.655942   3.307243   3.363141
    13  H    2.200611   1.094055   2.173748   3.419468   3.954245
    14  H    3.493343   2.195788   1.094649   2.207116   3.532421
    15  H    1.094182   2.194871   3.470987   3.903819   3.440644
    16  H    2.205938   3.506367   4.025765   3.489057   2.192779
                    6          7          8          9         10
     6  C    0.000000
     7  N    3.630414   0.000000
     8  C    2.631209   2.278609   0.000000
     9  C    3.701165   1.400520   1.402127   0.000000
    10  H    4.560635   1.016334   3.254758   2.150726   0.000000
    11  H    3.077852   3.328166   1.089324   2.220196   4.268105
    12  H    4.753695   2.170048   2.265669   1.089185   2.542376
    13  H    3.491601   4.698915   5.351862   5.690159   5.069866
    14  H    4.026178   2.899964   4.526509   4.225009   2.866536
    15  H    2.187585   5.272584   4.787845   5.704698   6.025154
    16  H    1.094270   4.486674   2.981933   4.270993   5.466171
                   11         12         13         14         15
    11  H    0.000000
    12  H    2.742706   0.000000
    13  H    6.200658   6.726708   0.000000
    14  H    5.588580   5.068749   2.523584   0.000000
    15  H    5.255742   6.788918   2.512067   4.380719   0.000000
    16  H    3.036940   5.239234   4.396933   5.120411   2.535670
                   16
    16  H    0.000000
 Stoichiometry    C8H7N
 Framework group  C1[X(C8H7N)]
 Deg. of freedom    42
 Full point group                 C1      NOp   1
 Largest Abelian subgroup         C1      NOp   1
 Largest concise Abelian subgroup C1      NOp   1
                         Standard orientation:                         
 ---------------------------------------------------------------------
 Center     Atomic      Atomic             Coordinates (Angstroms)
 Number     Number       Type             X           Y           Z
 ---------------------------------------------------------------------
      1          6           0       -2.188371    0.706302    0.000005
      2          6           0       -2.167655   -0.739763    0.000071
      3          6           0       -0.945475   -1.456745    0.000051
      4          6           0        0.252632   -0.685588   -0.000027
      5          6           0        0.257908    0.776649   -0.000000
      6          6           0       -0.981074    1.474578   -0.000012
      7          7           0        1.582029   -1.096493   -0.000221
      8          6           0        1.633765    1.181529    0.000016
      9          6           0        2.423563    0.023005    0.000046
     10          1           0        1.897904   -2.062493    0.000549
     11          1           0        2.009056    2.204164   -0.000028
     12          1           0        3.506479   -0.093696    0.000064
     13          1           0       -3.112871   -1.290692    0.000091
     14          1           0       -0.926661   -2.551232    0.000028
     15          1           0       -3.153917    1.221039   -0.000029
     16          1           0       -1.005942    2.568565   -0.000028
 ---------------------------------------------------------------------
 Rotational constants (GHZ):           3.7114709           1.5941776           1.1151783
 Standard basis: 6-31+G(d) (6D, 7F)
 There are   185 symmetry adapted cartesian basis functions of    symmetry.
 There are   185 symmetry adapted basis functions of A   symmetry.
   185 basis functions,   316 primitive gaussians,   185 cartesian basis functions
    31 alpha electrons       31 beta electrons
       nuclear repulsion energy       393.7152068966 Hartrees.
 NAtoms=   16 NActive=   16 NUniq=   16 SFac= 1.00D+00 NAtFMM=   60 NAOKFM=F Big=F
 Integral buffers will be    131072 words long.
 Regular integral format.
 Two-electron integral symmetry is turned on.
 One-electron integrals computed using PRISM.
 NBasis=   185 RedAO= T EigKep=  1.57D-06  NBF=   185
 NBsUse=   185 1.00D-06 EigRej= -1.00D+00 NBFU=   185
 Initial guess from the checkpoint file:  "FuncsBVP86-V-2nd.chk"
 B after Tr=     0.000000   -0.000000   -0.000000
         Rot=    1.000000    0.000003    0.000001    0.000440 Ang=   0.05 deg.
 ExpMin= 4.38D-02 ExpMax= 4.17D+03 ExpMxC= 6.27D+02 IAcc=3 IRadAn=         5 AccDes= 0.00D+00
 Harris functional with IExCor=  418 and IRadAn=       5 diagonalized for initial guess.
 HarFok:  IExCor=  418 AccDes= 0.00D+00 IRadAn=         5 IDoV= 1 UseB2=F ITyADJ=14
 ICtDFT=  3500011 ScaDFX=  1.000000  1.000000  1.000000  1.000000
 FoFCou: FMM=F IPFlag=           0 FMFlag=      100000 FMFlg1=           0
         NFxFlg=           0 DoJE=T BraDBF=F KetDBF=T FulRan=T
         wScrn=  0.000000 ICntrl=       500 IOpCl=  0 I1Cent=   200000004 NGrid=           0
         NMat0=    1 NMatS0=      1 NMatT0=    0 NMatD0=    1 NMtDS0=    0 NMtDT0=    0
 Petite list used in FoFCou.
 Keep J ints in memory in canonical form, NReq=152071459.
 Requested convergence on RMS density matrix=1.00D-08 within 128 cycles.
 Requested convergence on MAX density matrix=1.00D-06.
 Requested convergence on             energy=1.00D-06.
 No special actions if energy rises.
 SCF Done:  E(RB-VP86) =  -363.844602573     A.U. after   13 cycles
            NFock= 13  Conv=0.83D-08     -V/T= 2.0120
 DoSCS=F DFT=T ScalE2(SS,OS)=  1.000000  1.000000
 ExpMin= 4.38D-02 ExpMax= 4.17D+03 ExpMxC= 6.27D+02 IAcc=3 IRadAn=         5 AccDes= 0.00D+00
 HarFok:  IExCor=  205 AccDes= 0.00D+00 IRadAn=         5 IDoV=-2 UseB2=F ITyADJ=14
 ICtDFT= 12500011 ScaDFX=  1.000000  1.000000  1.000000  1.000000
 Range of M.O.s used for correlation:    10   185
 NBasis=   185 NAE=    31 NBE=    31 NFC=     9 NFV=     0
 NROrb=    176 NOA=    22 NOB=    22 NVA=   154 NVB=   154

 **** Warning!!: The largest alpha MO coefficient is  0.16828020D+03

  Keep J ints in memory in canonical form, NReq=156218803.
 Orbital symmetries:
       Occupied  (A) (A) (A) (A) (A) (A) (A) (A) (A) (A) (A) (A)
                 (A) (A) (A) (A) (A) (A) (A) (A) (A) (A) (A) (A)
                 (A) (A) (A) (A) (A) (A) (A)
       Virtual   (A) (A) (A) (A) (A) (A) (A) (A) (A) (A) (A) (A)
                 (A) (A) (A) (A) (A) (A) (A) (A) (A) (A) (A) (A)
                 (A) (A) (A) (A) (A) (A) (A) (A) (A) (A) (A) (A)
                 (A) (A) (A) (A) (A) (A) (A) (A) (A) (A) (A) (A)
                 (A) (A) (A) (A) (A) (A) (A) (A) (A) (A) (A) (A)
                 (A) (A) (A) (A) (A) (A) (A) (A) (A) (A) (A) (A)
                 (A) (A) (A) (A) (A) (A) (A) (A) (A) (A) (A) (A)
                 (A) (A) (A) (A) (A) (A) (A) (A) (A) (A) (A) (A)
                 (A) (A) (A) (A) (A) (A) (A) (A) (A) (A) (A) (A)
                 (A) (A) (A) (A) (A) (A) (A) (A) (A) (A) (A) (A)
                 (A) (A) (A) (A) (A) (A) (A) (A) (A) (A) (A) (A)
                 (A) (A) (A) (A) (A) (A) (A) (A) (A) (A) (A) (A)
                 (A) (A) (A) (A) (A) (A) (A) (A) (A) (A)
 Generating guess from densities on rwf.
 Convergence on wavefunction:    0.000001000000000
 Iteration     1 Dimension     6 NMult     0 NNew      6
 CISAX will form     6 AO SS matrices at one time.
 Iteration     2 Dimension    12 NMult     6 NNew      6
 Iteration     3 Dimension    18 NMult    12 NNew      6
 Iteration     4 Dimension    24 NMult    18 NNew      6
 Iteration     5 Dimension    30 NMult    24 NNew      6
 Iteration     6 Dimension    36 NMult    30 NNew      6
 Iteration     7 Dimension    42 NMult    36 NNew      6
 Iteration     8 Dimensin    48 NMult    42 NNew      6
 Iteration     9 Dimension    54 NMult    48 NNew      6
 Iteration    10 Dimension    60 NMult    54 NNew      6
 Iteration    11 Dimension    66 NMult    60 NNew      6
 Iteration    12 Dimension    72 NMult    66 NNew      6
 Iteration    13 Dimension    78 NMult    72 NNew      6
 Iteration    14 Dimension    84 NMult    78 NNew      6
 Iteration    15 Dimension    90 NMult    84 NNew      6
 Iteration    16 Dimension    96 NMult    90 NNew      6
 Iteration    17 Dimension   102 NMult    96 NNew      6
 Iteration    18 Dimension   107 NMult   102 NNew      5
 Iteration    19 Dimension   111 NMult   107 NNew      4
 Iteration    20 Dimension   116 NMult   111 NNew      5
 Iteration    21 Dimension   121 NMult   116 NNew      5
 Iteration    22 Dimension   126 NMult   121 NNew      5
  Iteration    23 Dimension   130 NMult   126 NNew      4
 Iteration    24 Dimension   134 NMult   130 NNew      4
 Iteration    25 Dimension   138 NMult   134 NNew      4
 Iteration    26 Dimension   143 NMult   138 NNew      5
 Iteration    27 Dimension   147 NMult   143 NNew      4
 Iteration    28 Dimension   151 NMult   147 NNew      4
 Iteration    29 Dimension   154 NMult   151 NNew      3
 Iteration    30 Dimension   158 NMult   154 NNew      4
 Iteration    31 Dimension   161 NMult   158 NNew      3
 Iteration    32 Dimension   164 NMult   161 NNew      3
 Iteration    33 Dimension   166 NMult   164 NNew      2
 Iteration    34 Dimension   168 NMult   166 NNew      2
 Iteration    35 Dimension   170 NMult   168 NNew      2
 Iteration    36 Dimension   171 NMult   170 NNew      1
 Iteration    37 Dimension   172 NMult   171 NNew      1
 Iteration    38 Dimension   173 NMult   172 NNew      1
 Iteration    39 Dimension   174 NMult   173 NNew      1
 Iteration    40 Dimension   175 NMult   174 NNew      1
 Iteration    41 Dimension   176 NMult   175 NNew      1
 Iteration    42 Dimension   178 NMult   176 NNew      2
 Iteration    43 Dimension   180 NMult   178 NNew      2
 Iteration    44 Dimension   181 NMult   180 NNew      1
 Iteration    45 Dimension   182 NMult   181 NNew      1
 ***********************************************************************
 Excited states from <AA,BB:AA,BB> singles matrix:
 ***********************************************************************
 
 Ground to excited state transition densities written to RWF  633
 Ground to excited state transition electric dipole moments (Au):
       state          X           Y           Z        Dip. S.      Osc.
         1        -0.4937      0.5529     -0.0000      0.5495      0.0573
         2        -0.3812     -0.1534     -0.0001      0.1689      0.0182
         3         0.0005     -0.0001     -0.1127      0.0127      0.0015
         4        -0.0003      0.0002     -0.1156      0.0134      0.0017
         5         0.0004     -0.0000      0.0076      0.0001      0.0000
         6         1.2454      0.2679      0.0002      1.6228      0.2165
 Ground to excited state transition velocity dipole moments (Au):
       state          X           Y           Z        Dip. S.      Osc.
         1         0.0689     -0.0940      0.0000      0.0136      0.0579
         2         0.0581      0.0260      0.0000      0.0040      0.0167
         3        -0.0001      0.0000      0.0114      0.0001      0.0005
         4         0.0001     -0.0000      0.0234      0.0005      0.0019
         5        -0.0001      0.0000      0.0004      0.0000      0.0000
         6        -0.2440     -0.0527     -0.0000      0.0623      0.2076
 Ground to excited state transition magnetic dipole moments (Au):
       state          X           Y           Z
         1         0.0001      0.0001      0.1765
         2        -0.0001     -0.0001      0.0031
         3         0.1202     -0.0628      0.0002
         4         0.0102     -0.1927     -0.0000
         5         0.2735     -0.1228      0.0003
         6        -0.0001      0.0005      0.5562
 Ground to excited state transition velocity quadrupole moments (Au):
       state          XX          YY          ZZ          XY          XZ          YZ
         1         0.1585     -0.1004      0.0069      0.0496      0.0000     -0.0000
         2         0.0389     -0.0763      0.0175      0.0068      0.0000     -0.0000
         3        -0.0001      0.0000      0.0001      0.0001      0.0483      0.0455
         4        -0.0001      0.0000     -0.0000     -0.0000      0.1142     -0.0421
         5        -0.0001     -0.0000     -0.0000      0.0001      0.1370      0.2080
         6        -0.2179      0.1275     -0.0026      0.3283     -0.0005     -0.0001
 <0|del|b> * <b|rxdel|0> + <0|del|b> * <b|delr+rdel|0>
 Rotatory Strengths (R) in cgs (10**-40 erg-esu-cm/Gauss)
       state          XX          YY          ZZ    R(velocity)    E-M Angle
         1        -0.0090      0.0168      0.0008      0.0029       90.00
         2        -0.0072     -0.0145     -0.0088     -0.0102       90.00
         3         0.0045     -0.0214     -0.0115     -0.0095       90.00
         4         0.0125     -0.0032      0.0105      0.0066       90.00
         5        -0.0021     -0.0597     -0.0080     -0.0233       90.00
         6        -0.1471      0.0710     -0.0242     -0.0334       90.00
 1/2[<0|r|b>*<b|rxdel|0> + (<0|rxdel|b>*<b|r|0>)*]
 Rotatory Strengths (R) in cgs (10**-40 erg-esu-cm/Gauss)
       state          XX          YY          ZZ     R(length)
         1         0.0364     -0.0242      0.0048      0.0057
         2        -0.0216     -0.0099      0.0001     -0.0105
         3        -0.0404     -0.0036      0.0199     -0.0080
         4         0.0024      0.0219     -0.0017      0.0075
         5        -0.0720     -0.0017     -0.0016     -0.0251
         6         0.0708     -0.1034     -0.0695     -0.0340
  1/2[<0|del|b>*<b|r|0> + (<0|r|b>*<b|del|0>)*] (Au)
       state          X           Y           Z        Dip. S.   Osc.(frdel)
         1        -0.0340     -0.0520     -0.0000      0.0860      0.0573
         2        -0.0221     -0.0040     -0.0000      0.0261      0.0174
         3        -0.0000     -0.0000     -0.0013      0.0013      0.0009
         4        -0.0000     -0.0000     -0.0027      0.0027      0.0018
         5        -0.0000     -0.0000      0.0000     -0.0000     -0.0000
         6        -0.3039     -0.0141     -0.0000      0.3180      0.2120

 Excitation energies and oscillator strengths:
 
 Excited State   1:      Singlet-A      4.2530 eV  291.52 nm  f=0.0573  <S**2>=0.000
      29 -> 32         0.13123
      30 -> 33         0.12677
      31 -> 32         0.66054
 
 Excited State   2:      Singlet-A      4.4082 eV  281.26 nm  f=0.0182  <S**2>=0.000
      30 -> 32         0.55489
      31 -> 33        -0.43238
 This state for optimization and/or second-order correction.
 Total Energy, E(TD-HF/TD-DFT) =  -363.682604570    
 Copying the excited state density for this state as the 1-particle RhoCI density.
 
 Excited State   3:      Singlet-A      4.7944 eV  258.60 nm  f=0.0015  <S**2>=0.000
      31 -> 34         0.70675
 
 Excited State   4:      Singlet-A      5.1795 eV  239.37 nm  f=0.0017  <S**2>=0.000
      30 -> 34         0.70672
 
 Excited State   5:      Singlet-A      5.3132 eV  233.35 nm  f=0.0000  <S**2>=0.000
      31 -> 35         0.70666
 
 Excited State   6:      Singlet-A      5.4446 eV  227.72 nm  f=0.2165  <S**2>=0.000
      29 -> 32         0.33353
      30 -> 32        -0.26284
      30 -> 33        -0.24570
      31 -> 32        -0.10672
      31 -> 33        -0.36915
      31 -> 36         0.29857
 SavETr:  write IOETrn=   770 NScale= 10 NData=  16 NLR=1 NState=    6 LETran=     118.
          IDoAtm=1111111111111111
          Differentiating once with respect to electric field.
                with respect to dipole field.
          Differentiating once with respect to nuclear coordinates.
 Keep J ints in memory in canonical form, NReq=152083851.
          There are     1 degrees of freedom in the 1st order CPHF.  IDoFFX=0 NUNeed=     1.
 LinEq1:  Iter=  0 NonCon=     1 RMS=6.16D-03 Max=1.85D-01 NDo=     1
 AX will form     1 AO Fock derivatives at one time.
 LinEq1:  Iter=  1 NonCon=     1 RMS=3.54D-03 Max=1.04D-01 NDo=     1
 LinEq1:  Iter=  2 NonCon=     1 RMS=4.47D-03 Max=1.51D-01 NDo=     1
 LinEq1:  Iter=  3 NonCon=     1 RMS=2.12D-03 Max=5.06D-02 NDo=     1
 LinEq1:  Iter=  4 NonCon=     1 RMS=1.98D-03 Max=7.23D-02 NDo=     1
 LinEq1:  Iter=  5 NonCon=     1 RMS=1.24D-03 Max=2.44D-02 NDo=     1
 LinEq1:  Iter=  6 NonCon=     1 RMS=8.03D-04 Max=2.09D-02 NDo=     1
 LinEq1:  Iter=  7 NonCon=     1 RMS=6.18D-04 Max=1.34D-02 NDo=     1
 LinEq1:  Iter=  8 NonCon=     1 RMS=2.82D-04 Max=5.48D-03 NDo=     1
 LinEq1:  Iter=  9 NonCon=     1 RMS=2.49D-04 Max=7.80D-03 NDo=     1
 LinEq1:  Iter= 10 NonCon=     1 RMS=1.29D-04 Max=2.61D-03 NDo=     1
 LinEq1:  Iter= 11 NonCon=     1 RMS=1.15D-04 Max=2.57D-03 NDo=     1
 LinEq1:  Iter= 12 NonCon=     1 RMS=4.22D-05 Max=8.35D-04 NDo=     1
 LinEq1:  Iter= 13 NonCon=     1 RMS=2.56D-05 Max=4.90D-04 NDo=     1
 LinEq1:  Iter= 14 NonCon=     1 RMS=1.00D-05 Max=1.18D-04 NDo=     1
 LinEq1:  Iter= 15 NonCon=     1 RMS=3.13D-06 Max=5.15D-05 NDo=     1
 LinEq1:  Iter= 16 NonCon=     1 RMS=2.12D-06 Max=3.53D-05 NDo=     1
 LinEq1:  Iter= 17 NonCon=     1 RMS=4.71D-07 Max=6.59D-06 NDo=     1
 LinEq1:  Iter= 18 NonCon=     1 RMS=7.76D-08 Max=1.06D-06 NDo=     1
 LinEq1:  Iter= 19 NonCon=     1 RMS=1.31D-08 Max=1.45D-07 NDo=     1
 LinEq1:  Iter= 20 NonCon=     1 RMS=2.06D-09 Max=1.90D-08 NDo=     1
 LinEq1:  Iter= 21 NonCon=     1 RMS=5.28D-10 Max=4.69D-09 NDo=     1
 LinEq1:  Iter= 22 NonCon=     1 RMS=1.72D-10 Max=1.81D-09 NDo=     1
 LinEq1:  Iter= 23 NonCon=     0 RMS=4.88D-11 Max=4.54D-10 NDo=     1
 Linear equations converged to 1.000D-10 1.000D-09 after    23 iterations.
 End of Minotr F.D. properties file   721 does not exist.
 End of Minotr F.D. properties file   722 does not exist.
 End of Minotr F.D. properties file   788 does not exist.
 Calling FoFJK, ICntrl=  10005527 FMM=F ISym2X=0 I1Cent= 0 IOpClX= 0 NMat=1 NMatS=1 NMatT=0.
 ***** Axes restored to original set *****
 -------------------------------------------------------------------
 Center     Atomic                   Forces (Hartrees/Bohr)
 Number     Number              X              Y              Z
 -------------------------------------------------------------------
      1        6          -0.002579915   -0.002404705    0.000000267
      2        6          -0.000080202   -0.000307576   -0.000000272
      3        6           0.001586650   -0.000442144    0.000005761
      4        6          -0.001183470   -0.005176696   -0.000006828
      5        6           0.004229156    0.004932817   -0.000001805
      6        6           0.005479036    0.001702580   -0.000005106
      7        7          -0.005981490    0.001957453    0.000008038
      8        6          -0.007865005   -0.001038153    0.000003478
      9        6           0.006871210    0.000798521   -0.000005191
     10        1           0.000023917   -0.000392363   -0.000000735
     11        1           0.000592134    0.000166903    0.000001739
     12        1          -0.000487020   -0.000172392   -0.000001978
     13        1          -0.000079555    0.000613875    0.000001682
     14        1           0.000009556    0.000355990    0.000000298
     15        1           0.000047616   -0.000073217    0.000000557
     16        1          -0.000582617   -0.000520892    0.000000098
 -------------------------------------------------------------------
 Cartesian Forces:  Max     0.007865005 RMS     0.002375719

 GradGradGradGradGradGradGradGradGradGradGradGradGradGradGradGradGradGrad
 Berny optimization.
 Using GEDIIS/GDIIS optimizer.
 FormGI is forming the generalized inverse of G from B-inverse, IUseBI=4.
 Internal  Forces:  Max     0.004541931 RMS     0.001070389
 Search for a local minimum.
 Step number   2 out of a maximum of   94
 All quantities printed in internal units (Hartrees-Bohrs-Radians)
 Mixed Optimization -- RFO/linear search
 Update second derivatives using D2CorX and points    1    2
 DE= -1.02D-02 DEPred=-1.07D-02 R= 9.57D-01
 TightC=F SS=  1.41D+00  RLast= 2.08D-01 DXNew= 5.0454D-01 6.2419D-01
 Trust test= 9.57D-01 RLast= 2.08D-01 DXMaxT set to 5.05D-01
 ITU=  1  0
 Use linear search instead of GDIIS.
     Eigenvalues ---    0.01853   0.01931   0.01986   0.02011   0.02071
     Eigenvalues ---    0.02113   0.02148   0.02152   0.02171   0.02209
     Eigenvalues ---    0.02234   0.02248   0.02339   0.15997   0.16000
     Eigenvalues ---    0.16000   0.16000   0.16000   0.16000   0.16007
     Eigenvalues ---    0.21867   0.22014   0.22701   0.23988   0.24643
     Eigenvalues ---    0.35714   0.35746   0.35786   0.35889   0.36399
     Eigenvalues ---    0.36478   0.37297   0.38104   0.42837   0.43215
     Eigenvalues ---    0.45593   0.46442   0.47171   0.47367   0.47605
     Eigenvalues ---    0.49157   0.52439
 RFO step:  Lambda=-2.71239355D-04 EMin= 1.85263262D-02
 Quartic linear search produced a step of  0.03420.
 Iteration  1 RMS(Cart)=  0.00336387 RMS(Int)=  0.00000928
 Iteration  2 RMS(Cart)=  0.00001127 RMS(Int)=  0.00000416
 Iteration  3 RMS(Cart)=  0.00000000 RMS(Int)=  0.00000416
 Variable       Old X    -DE/DX   Delta X   Delta X   Delta X     New X
                                 (Linear)    (Quad)   (Total)
    R1        2.73295  -0.00032   0.00265  -0.00212   0.00053   2.73348
    R2        2.70423   0.00349   0.00312   0.00579   0.00891   2.71314
    R3        2.06770  -0.00008   0.00080  -0.00066   0.00014   2.06784
    R4        2.67767  -0.00007   0.00212  -0.00138   0.00075   2.67842
    R5        2.06746  -0.00024   0.00080  -0.00114  -0.00034   2.06713
    R6        2.69254  -0.00135   0.00201  -0.00427  -0.00226   2.69028
    R7        2.06859  -0.00036   0.00080  -0.00147  -0.00067   2.06791
    R8        2.76325   0.00286   0.00283   0.00464   0.00746   2.77071
    R9        2.62946  -0.00304   0.00096  -0.00697  -0.00600   2.62346
   R10        2.68725  -0.00234   0.00135  -0.00606  -0.00470   2.68255
   R11        2.71023  -0.00454   0.00006  -0.01184  -0.01178   2.69845
   R12        2.06787  -0.00051   0.00077  -0.00189  -0.00112   2.06675
   R13        2.64660   0.00280   0.00140   0.00548   0.00689   2.65349
   R14        1.92059   0.00038   0.00086   0.00035   0.00121   1.92180
   R15        2.64964   0.00181   0.00243   0.00255   0.00498   2.65462
   R16        2.05852   0.00036   0.00083   0.00056   0.00139   2.05992
   R17        2.05826  -0.00047   0.00082  -0.00177  -0.00096   2.05731
    A1        2.12320   0.00059   0.00031   0.00303   0.00333   2.12653
    A2        2.07490  -0.00034  -0.00017  -0.00179  -0.00195   2.07295
    A3        2.08509  -0.00025  -0.00014  -0.00124  -0.00138   2.08371
    A4        2.11566  -0.00019   0.00001  -0.00086  -0.00085   2.11481
    A5        2.08419  -0.00050   0.00002  -0.00339  -0.00337   2.08082
    A6        2.08333   0.00068  -0.00003   0.00425   0.00422   2.08755
    A7        2.03916  -0.00061  -0.00042  -0.00323  -0.00365   2.03550
    A8        2.11852   0.00032   0.00020   0.00172   0.00193   2.12045
    A9        2.12550   0.00029   0.00022   0.00150   0.00173   2.12723
   A10        2.14630   0.00164   0.00042   0.00651   0.00693   2.15323
   A11        2.26992  -0.00012  -0.00031   0.00064   0.00033   2.27025
   A12        1.86696  -0.00153  -0.00012  -0.00714  -0.00727   1.85970
   A13        2.08019  -0.00099   0.00025  -0.00386  -0.00359   2.07660
   A14        1.86060   0.00122  -0.00016   0.00389   0.00372   1.86432
   A15        2.34239  -0.00023  -0.00010  -0.00003  -0.00012   2.34227
   A16        2.06186  -0.00045  -0.00058  -0.00159  -0.00217   2.05969
   A17        2.11480  -0.00039   0.00040  -0.00322  -0.00282   2.11197
   A18        2.10653   0.00084   0.00018   0.00481   0.00499   2.11152
   A19        1.91561   0.00180   0.00028   0.00873   0.00902   1.92463
   A20        2.18661  -0.00100  -0.00012  -0.00499  -0.00512   2.18149
   A21        2.18097  -0.00080  -0.00016  -0.00374  -0.00390   2.17707
   A22        1.88296   0.00097   0.00045   0.00452   0.00497   1.88793
   A23        2.20872   0.00003  -0.00029   0.00108   0.00079   2.20951
   A24        2.19151  -0.00100  -0.00016  -0.00560  -0.00577   2.18574
   A25        1.89864  -0.00247  -0.00046  -0.01000  -0.01044   1.88820
   A26        2.10804   0.00101   0.00019   0.00353   0.00371   2.11175
   A27        2.27650   0.00147   0.00027   0.00646   0.00673   2.28323
    D1       -0.00006  -0.00000  -0.00000  -0.00001  -0.00001  -0.00007
    D2        3.14158  -0.00000  -0.00000  -0.00003  -0.00003   3.14156
    D3        3.14154   0.00000   0.00000   0.00002   0.00002   3.14156
    D4       -0.00001   0.00000   0.00000   0.00001   0.00001  -0.00000
    D5        0.00003  -0.00000   0.00000  -0.00001  -0.00001   0.00002
    D6       -3.14156   0.00000   0.00000   0.00006   0.00006  -3.14150
    D7       -3.14157  -0.00000   0.00000  -0.00004  -0.00004   3.14158
    D8        0.00003   0.00000   0.00000   0.00003   0.00003   0.00006
    D9        0.00001  -0.00000  -0.00000  -0.00001  -0.00001  -0.00000
   D10       -3.14151   0.00000   0.00000   0.00002   0.00002  -3.14149
   D11        3.14155   0.00000  -0.00000   0.00001   0.00000   3.14156
   D12        0.00003   0.00000   0.00000   0.00003   0.00003   0.00006
   D13        0.00007   0.00000   0.00000   0.00005   0.00006   0.00013
   D14       -3.14144  -0.00000  -0.00000  -0.00001  -0.00001  -3.14145
   D15        3.14159   0.00000   0.00000   0.00003   0.00003  -3.14157
   D16        0.00008  -0.00000  -0.00000  -0.00004  -0.00004   0.00004
   D17       -0.00010  -0.00000  -0.00000  -0.00008  -0.00008  -0.00018
   D18        3.14151  -0.00000  -0.00001  -0.00011  -0.00012   3.14139
   D19        3.14143  -0.00000   0.00000  -0.00003  -0.00003   3.14140
   D20       -0.00015  -0.00000  -0.00000  -0.00006  -0.00006  -0.00021
   D21       -3.14139   0.00000  -0.00000   0.00000  -0.00000  -3.14139
   D22       -0.00107   0.00000   0.00000   0.00011   0.00011  -0.00096
   D23        0.00028  -0.00000  -0.00001  -0.00005  -0.00006   0.00022
   D24        3.14059   0.00000  -0.00000   0.00005   0.00005   3.14064
   D25        0.00004   0.00000  -0.00000   0.00006   0.00005   0.00010
   D26       -3.14156  -0.00000  -0.00000  -0.00001  -0.00002  -3.14157
   D27       -3.14157   0.00000   0.00000   0.00009   0.00010  -3.14147
[...]
 ! D9    D(1,2,3,4)              0.0003         -DE/DX =    0.0                 !
 ! D10   D(1,2,3,14)          -179.9945         -DE/DX =    0.0                 !
 ! D11   D(13,2,3,4)           179.9981         -DE/DX =    0.0                 !
 ! D12   D(13,2,3,14)            0.0033         -DE/DX =    0.0                 !
 ! D13   D(2,3,4,5)              0.0077         -DE/DX =    0.0                 !
 ! D14   D(2,3,4,7)           -179.9938         -DE/DX =    0.0                 !
 ! D15   D(14,3,4,5)          -179.9975         -DE/DX =    0.0                 !
 ! D16   D(14,3,4,7)             0.001          -DE/DX =    0.0                 !
 ! D17   D(3,4,5,6)             -0.0114         -DE/DX =    0.0                 !
 ! D18   D(3,4,5,8)            179.9884         -DE/DX =    0.0                 !
 ! D19   D(7,4,5,6)            179.9898         -DE/DX =    0.0                 !
 ! D20   D(7,4,5,8)             -0.0104         -DE/DX =    0.0                 !
 ! D21   D(3,4,7,9)           -179.9852         -DE/DX =    0.0                 !
 ! D22   D(3,4,7,10)            -0.0472         -DE/DX =    0.0                 !
 ! D23   D(5,4,7,9)              0.0135         -DE/DX =    0.0                 !
 ! D24   D(5,4,7,10)           179.9515         -DE/DX =    0.0                 !
 ! D25   D(4,5,6,1)              0.0065         -DE/DX =    0.0                 !
 ! D26   D(4,5,6,16)          -179.9979         -DE/DX =    0.0                 !
 ! D27   D(8,5,6,1)           -179.9932         -DE/DX =    0.0                 !
 ! D28   D(8,5,6,16)             0.0024         -DE/DX =    0.0                 !
 ! D29   D(4,5,8,9)              0.0036         -DE/DX =    0.0                 !
 ! D30   D(4,5,8,11)          -179.9996         -DE/DX =    0.0                 !
 ! D31   D(6,5,8,9)           -179.9967         -DE/DX =    0.0                 !
 ! D32   D(6,5,8,11)             0.0001         -DE/DX =    0.0                 !
 ! D33   D(4,7,9,8)             -0.0115         -DE/DX =    0.0                 !
 ! D34   D(4,7,9,12)           179.9977         -DE/DX =    0.0                 !
 ! D35   D(10,7,9,8)          -179.9497         -DE/DX =    0.0                 !
 ! D36   D(10,7,9,12)            0.0595         -DE/DX =    0.0                 !
 ! D37   D(5,8,9,7)              0.0045         -DE/DX =    0.0                 !
 ! D38   D(5,8,9,12)           179.994          -DE/DX =    0.0                 !
 ! D39   D(11,8,9,7)          -179.9923         -DE/DX =    0.0                 !
 ! D40   D(11,8,9,12)           -0.0028         -DE/DX =    0.0                 !
 --------------------------------------------------------------------------------
 GradGradGradGradGradGradGradGradGradGradGradGradGradGradGradGradGradGrad

                          Input orientation:                          
 ---------------------------------------------------------------------
 Center     Atomic      Atomic             Coordinates (Angstroms)
 Number     Number       Type             X           Y           Z
 ---------------------------------------------------------------------
      1          6           0       -2.184292    0.701848   -0.000040
      2          6           0       -2.163135   -0.743211    0.000092
      3          6           0       -0.942050   -1.460958    0.000084
      4          6           0        0.251367   -0.685864   -0.000055
      5          6           0        0.261546    0.782376   -0.000019
      6          6           0       -0.975376    1.478226   -0.000085
      7          7           0        1.577999   -1.091283   -0.000212
      8          6           0        1.628248    1.183775    0.000087
      9          6           0        2.428259    0.026314    0.000032
     10          1           0        1.892733   -2.058387    0.000434
     11          1           0        2.006694    2.206144    0.000144
     12          1           0        3.509676   -0.094127   -0.000006
     13          1           0       -3.111562   -1.288086    0.000164
     14          1           0       -0.920917   -2.554706    0.000094
     15          1           0       -3.150869    1.214397   -0.000080
     16          1           0       -1.011418    2.570989   -0.000096
 ---------------------------------------------------------------------
                    Distance matrix (angstroms):
                    1          2          3          4          5
     1  C    0.000000
     2  C    1.445214   0.000000
     3  C    2.494172   1.416407   0.000000
     4  C    2.803244   2.415183   1.423031   0.000000
     5  C    2.447163   2.864698   2.545818   1.468275   0.000000
     6  C    1.436746   2.519038   2.939374   2.487606   1.419220
     7  N    4.167751   3.757291   2.547019   1.387197   2.289901
     8  C    3.842878   4.252982   3.687960   2.321928   1.424428
     9  C    4.661756   4.655434   3.683878   2.290426   2.294836
    10  H    4.923518   4.263772   2.897054   2.139603   3.275775
    11  H    4.452782   5.107462   4.705607   3.383029   2.252256
    12  H    5.749334   5.709824   4.656833   3.311605   3.364313
    13  H    2.195374   1.093802   2.176388   3.416426   3.957862
    14  H    3.493031   2.196502   1.093952   2.206088   3.540386
    15  H    1.094065   2.192680   3.469352   3.896948   3.439654
    16  H    2.206654   3.508614   4.032543   3.493095   2.195353
                    6          7          8          9         10
     6  C    0.000000
     7  N    3.622445   0.000000
     8  C    2.620221   2.275613   0.000000
     9  C    3.700376   1.404267   1.407031   0.000000
    10  H    4.553426   1.017029   3.252932   2.152385   0.000000
    11  H    3.069627   3.325178   1.090165   2.220221   4.266054
    12  H    4.752682   2.173866   2.274381   1.088103   2.544173
    13  H    3.495107   4.693688   5.345642   5.693616   5.063234
    14  H    4.033300   2.895891   4.524874   4.228314   2.857090
    15  H    2.191432   5.261022   4.779215   5.704228   6.012407
    16  H    1.093356   4.485233   2.981978   4.278638   5.464907
                   11         12         13         14         15
    11  H    0.000000
    12  H    2.747764   0.000000
    13  H    6.197273   6.728025   0.000000
    14  H    5.588972   5.067998   2.530465   0.000000
    15  H    5.252050   6.787864   2.502791   4.379364   0.000000
    16  H    3.040084   5.248155   4.393525   5.126494   2.533297
                   16
    16  H    0.000000
 Stoichiometry    C8H7N
 Framework group  C1[X(C8H7N)]
 Deg. of freedom    42
 Full point group                 C1      NOp   1
 Largest Abelian subgroup         C1      NOp   1
 Largest concise Abelian subgroup C1      NOp   1
                         Standard orientation:                         
 ---------------------------------------------------------------------
 Center     Atomic      Atomic             Coordinates (Angstroms)
 Number     Number       Type             X           Y           Z
 ---------------------------------------------------------------------
      1          6           0       -2.183718    0.707177   -0.000036
      2          6           0       -2.166643   -0.737936    0.000096
      3          6           0       -0.947591   -1.459130    0.000088
      4          6           0        0.248011   -0.687410   -0.000051
      5          6           0        0.262338    0.780795   -0.000015
      6          6           0       -0.972614    1.480137   -0.000081
      7          7           0        1.573492   -1.096576   -0.000208
      8          6           0        1.630168    1.178332    0.000091
      9          6           0        2.426906    0.018615    0.000036
     10          1           0        1.885494   -2.064565    0.000438
     11          1           0        2.011501    2.199628    0.000148
     12          1           0        3.507979   -0.104881   -0.000002
     13          1           0       -3.116606   -1.280130    0.000168
     14          1           0       -0.929547   -2.552934    0.000098
     15          1           0       -3.148844    1.222454   -0.000076
     16          1           0       -1.005568    2.572996   -0.000092
 ---------------------------------------------------------------------
 Rotational constants (GHZ):           3.7038848           1.5982197           1.1164664

 **********************************************************************

            Population analysis using the CI Density.

 **********************************************************************

 Orbital symmetries:
       Occupied  (A) (A) (A) (A) (A) (A) (A) (A) (A) (A) (A) (A)
                 (A) (A) (A) (A) (A) (A) (A) (A) (A) (A) (A) (A)
                 (A) (A) (A) (A) (A) (A) (A)
       Virtual   (A) (A) (A) (A) (A) (A) (A) (A) (A) (A) (A) (A)
                 (A) (A) (A) (A) (A) (A) (A) (A) (A) (A) (A) (A)
                 (A) (A) (A) (A) (A) (A) (A) (A) (A) (A) (A) (A)
                 (A) (A) (A) (A) (A) (A) (A) (A) (A) (A) (A) (A)
                 (A) (A) (A) (A) (A) (A) (A) (A) (A) (A) (A) (A)
                 (A) (A) (A) (A) (A) (A) (A) (A) (A) (A) (A) (A)
                 (A) (A) (A) (A) (A) (A) (A) (A) (A) (A) (A) (A)
                 (A) (A) (A) (A) (A) (A) (A) (A) (A) (A) (A) (A)
                 (A) (A) (A) (A) (A) (A) (A) (A) (A) (A) (A) (A)
                 (A) (A) (A) (A) (A) (A) (A) (A) (A) (A) (A) (A)
                 (A) (A) (A) (A) (A) (A) (A) (A) (A) (A) (A) (A)
                 (A) (A) (A) (A) (A) (A) (A) (A) (A) (A) (A) (A)
                 (A) (A) (A) (A) (A) (A) (A) (A) (A) (A)
 The electronic state is 1-A.
 Alpha  occ. eigenvalues --  -14.08022  -9.95845  -9.95827  -9.92875  -9.92407
 Alpha  occ. eigenvalues --   -9.92369  -9.92360  -9.92066  -9.91516  -0.89787
 Alpha  occ. eigenvalues --   -0.75509  -0.71198  -0.66263  -0.64858  -0.56651
 Alpha  occ. eigenvalues --   -0.54285  -0.52348  -0.48640  -0.44019  -0.42189
 Alpha  occ. eigenvalues --   -0.39104  -0.38677  -0.37462  -0.36332  -0.35289
 Alpha  occ. eigenvalues --   -0.31614  -0.29942  -0.29301  -0.25187  -0.19940
 Alpha  occ. eigenvalues --   -0.18542
 Alpha virt. eigenvalues --   -0.05270  -0.01994  -0.00921   0.01015   0.01295
 Alpha virt. eigenvalues --    0.01735   0.03021   0.03332   0.05218   0.05694
 Alpha virt. eigenvalues --    0.05752   0.06037   0.07711   0.08449   0.09903
 Alpha virt. eigenvalues --    0.10086   0.10350   0.11484   0.12594   0.12774
 Alpha virt. eigenvalues --    0.13746   0.13862   0.14303   0.15305   0.15536
 Alpha virt. eigenvalues --    0.15977   0.16578   0.17284   0.17613   0.17970
 Alpha virt. eigenvalues --    0.18698   0.19053   0.19749   0.20068   0.21019
 Alpha virt. eigenvalues --    0.21542   0.21909   0.22575   0.23263   0.23965
 Alpha virt. eigenvalues --    0.25153   0.25727   0.26036   0.26142   0.26594
 Alpha virt. eigenvalues --    0.27845   0.29002   0.29983   0.31165   0.32523
 Alpha virt. eigenvalues --    0.33054   0.35849   0.36997   0.40124   0.45417
 Alpha virt. eigenvalues --    0.50000   0.53390   0.62703   0.63492   0.65044
 Alpha virt. eigenvalues --    0.66055   0.67160   0.67317   0.68174   0.68764
 Alpha virt. eigenvalues --    0.69594   0.70202   0.72355   0.73110   0.73816
 Alpha virt. eigenvalues --    0.75714   0.79706   0.83257   0.84004   0.84913
 Alpha virt. eigenvalues --    0.88183   0.88800   0.89811   0.90023   0.92753
 Alpha virt. eigenvalues --    0.93510   0.97538   0.99379   1.00297   1.04216
 Alpha virt. eigenvalues --    1.05476   1.05752   1.11223   1.12200   1.14330
 Alpha virt. eigenvalues --    1.16907   1.17971   1.18482   1.24941   1.25955
 Alpha virt. eigenvalues --    1.28212   1.29995   1.33950   1.34429   1.36807
 Alpha virt. eigenvalues --    1.39013   1.40930   1.42619   1.42721   1.46820
 Alpha virt. eigenvalues --    1.51205   1.56785   1.69949   1.73913   1.79870
 Alpha virt. eigenvalues --    1.81137   1.81819   1.82754   1.89302   1.89950
 Alpha virt. eigenvalues --    1.92580   1.93799   1.95685   2.02637   2.03178
 Alpha virt. eigenvalues --    2.06564   2.08674   2.13657   2.15097   2.16030
 Alpha virt. eigenvalues --    2.16686   2.20536   2.26532   2.31033   2.35430
 Alpha virt. eigenvalues --    2.42422   2.43949   2.52306   2.53581   2.55838
 Alpha virt. eigenvalues --    2.57532   2.61437   2.68512   2.71862   2.73652
 Alpha virt. eigenvalues --    2.85655   2.86737   2.96333   3.11069   3.25346
 Alpha virt. eigenvalues --    4.02758   4.12383   4.19040   4.21298   4.24525
 Alpha virt. eigenvalues --    4.29341   4.36731   4.41148   4.65394
          Condensed to atoms (all electrons):
               1          2          3          4          5          6
     1  C    5.747853   0.328463   0.162336  -0.424146  -0.171507  -0.034361
     2  C    0.328463   5.825022   0.048110   0.150354  -0.604562   0.617325
     3  C    0.162336   0.048110  13.366397  -2.593424  -3.563731  -2.885342
     4  C   -0.424146   0.150354  -2.593424  13.088898  -3.029258  -0.553034
     5  C   -0.171507  -0.604562  -3.563731  -3.029258  14.751576  -0.395031
     6  C   -0.034361   0.617325  -2.885342  -0.553034  -0.395031  12.458324
     7  N   -0.034251   0.020359  -0.490930  -0.433808   0.837135   0.171357
     8  C    0.180964  -0.290956   3.257690   0.982920  -5.232700  -3.754019
     9  C   -0.069071   0.036682  -1.107277  -0.293398   1.807647   0.878968
    10  H   -0.002622  -0.009572  -0.142353  -0.056346   0.165376   0.022386
    11  H    0.001106   0.001351  -0.000742   0.028401  -0.010483   0.009438
    12  H    0.000977   0.000275   0.034055   0.095991  -0.088512  -0.023476
    13  H    0.002929   0.277898  -0.013722   0.017312  -0.001796   0.012604
    14  H    0.010494   0.030214   0.189306   0.059700   0.016696  -0.016568
    15  H    0.295380  -0.005985   0.026064  -0.021777   0.029165  -0.034839
    16  H    0.013762   0.014337  -0.028370   0.007633   0.066468   0.242297
               7          8          9         10         11         12
     1  C   -0.034251   0.180964  -0.069071  -0.002622   0.001106   0.000977
     2  C    0.020359  -0.290956   0.036682  -0.009572   0.001351   0.000275
     3  C   -0.490930   3.257690  -1.107277  -0.142353  -0.000742   0.034055
     4  C   -0.433808   0.982920  -0.293398  -0.056346   0.028401   0.095991
     5  C    0.837135  -5.232700   1.807647   0.165376  -0.010483  -0.088512
     6  C    0.171357  -3.754019   0.878968   0.022386   0.009438  -0.023476
     7  N    7.329065  -0.694670   0.494124   0.261128   0.007538  -0.060674
     8  C   -0.694670  13.401588  -2.294329   0.017651   0.280251   0.017927
     9  C    0.494124  -2.294329   6.577474  -0.035179  -0.029369   0.325343
    10  H    0.261128   0.017651  -0.035179   0.367902  -0.000088  -0.002456
    11  H    0.007538   0.280251  -0.029369  -0.000088   0.513869  -0.001038
    12  H   -0.060674   0.017927   0.325343  -0.002456  -0.001038   0.496600
    13  H   -0.000435  -0.001524   0.001373  -0.000002   0.000000  -0.000000
    14  H   -0.011586  -0.005758   0.005850   0.002376   0.000002   0.000002
    15  H    0.000230   0.006845  -0.000349  -0.000000  -0.000001  -0.000000
    16  H   -0.000644  -0.037980   0.003107   0.000004   0.001639  -0.000001
              13         14         15         16
     1  C    0.002929   0.010494   0.295380   0.013762
     2  C    0.277898   0.030214  -0.005985   0.014337
     3  C   -0.013722   0.189306   0.026064  -0.028370
     4  C    0.017312   0.059700  -0.021777   0.007633
     5  C   -0.001796   0.016696   0.029165   0.066468
     6  C    0.012604  -0.016568  -0.034839   0.242297
     7  N   -0.000435  -0.011586   0.000230  -0.000644
     8  C   -0.001524  -0.005758   0.006845  -0.037980
     9  C    0.001373   0.005850  -0.000349   0.003107
    10  H   -0.000002   0.002376  -0.000000   0.000004
    11  H    0.000000   0.000002  -0.000001   0.001639
    12  H   -0.000000   0.000002  -0.000000  -0.000001
    13  H    0.529976  -0.004386  -0.004539  -0.000120
    14  H   -0.004386   0.541475  -0.000130   0.000014
    15  H   -0.004539  -0.000130   0.529316  -0.003956
    16  H   -0.000120   0.000014  -0.003956   0.534370
 Mulliken charges:
               1
     1  C   -0.008307
     2  C   -0.439315
     3  C   -0.258069
     4  C   -1.026016
     5  C    1.423516
     6  C   -0.716029
     7  N   -0.393940
     8  C    0.166098
     9  C   -0.301596
    10  H    0.411795
    11  H    0.198126
    12  H    0.204986
    13  H    0.184431
    14  H    0.182301
    15  H    0.184578
    16  H    0.187441
 Sum of Mulliken charges =  -0.00000
 Mulliken charges with hydrogens summed into heavy atoms:
               1
     1  C    0.176271
     2  C   -0.254884
     3  C   -0.075768
     4  C   -1.026016
     5  C    1.423516
     6  C   -0.528589
     7  N    0.017855
     8  C    0.364224
     9  C   -0.096610
 Electronic spatial extent (au):  <R**2>=           1039.2025
 Charge=             -0.0000 electrons
 Dipole moment (field-independent basis, Debye):
    X=              2.0767    Y=             -1.3571    Z=              0.0007  Tot=              2.4808
 Quadrupole moment (field-independent basis, Debye-Ang):
   XX=            -46.0777   YY=            -45.5106   ZZ=            -59.9248
   XY=             -3.0539   XZ=              0.0013   YZ=             -0.0016
 Traceless Quadrupole moment (field-independent basis, Debye-Ang):
   XX=              4.4267   YY=              4.9937   ZZ=             -9.4205
   XY=             -3.0539   XZ=              0.0013   YZ=             -0.0016
 Octapole moment (field-independent basis, Debye-Ang**2):
  XXX=             17.3159  YYY=             -9.7819  ZZZ=             -0.0020  XYY=             10.8077
  XXY=             -6.9982  XXZ=              0.0019  XZZ=              3.0056  YZZ=             -1.3911
  YYZ=              0.0035  XYZ=             -0.0032
 Hexadecapole moment (field-independent basis, Debye-Ang**3):
 XXXX=           -859.0356 YYYY=           -397.7828 ZZZZ=            -80.4680 XXXY=            -20.5369
 XXXZ=              0.0008 YYYX=            -19.8316 YYYZ=             -0.0028 ZZZX=              0.0002
 ZZZY=              0.0054 XXYY=           -205.5297 XXZZ=           -202.5130 YYZZ=           -102.6382
 XXYZ=             -0.0050 YYXZ=              0.0096 ZZXY=             -3.4775
 N-N= 3.938028452413D+02 E-N=-1.629571027503D+03  KE= 3.597450678851D+02
 Unable to Open any file for archive entry.
 1\1\GINC-EXP-2-51\FOpt\RBVP86 TD-FC\6-31+G(d)\C8H7N1\SCAPARAS\14-Jun-2
 021\0\\# td= (nstates=6, root=2) BVP86/6-31+G* Opt density=current\\Fu
 ncsBVP86-V-2nd\\0,1\C,-2.1842919089,0.701848023,-0.0000399638\C,-2.163
 1348863,-0.7432110519,0.0000920958\C,-0.9420502603,-1.4609581736,0.000
 083604\C,0.2513672444,-0.6858636732,-0.0000547712\C,0.261546164,0.7823
 757347,-0.0000193529\C,-0.9753764339,1.4782264102,-0.0000852399\N,1.57
 79990085,-1.0912831955,-0.0002122833\C,1.6282477466,1.1837753167,0.000
 0868495\C,2.4282588346,0.0263136021,0.0000318823\H,1.8927334457,-2.058
 3867098,0.000433767\H,2.0066939028,2.2061444209,0.0001437056\H,3.50967
 58119,-0.0941273928,-0.0000062152\H,-3.1115617592,-1.2880861202,0.0001
 642548\H,-0.9209167294,-2.554706303,0.0000937648\H,-3.1508694843,1.214
 3965392,-0.0000801741\H,-1.0114176964,2.570988573,-0.0000959237\\Versi
 on=AS64L-G16RevC.01\State=1-A\HF=-363.8438309\RMSD=7.282e-09\RMSF=6.44
 4e-05\Dipole=0.8170445,-0.5339374,0.0002584\Quadrupole=3.2911605,3.712
 7222,-7.0038828,-2.270463,0.0009925,-0.0012223\PG=C01 [X(C8H7N1)]\\@
 The archive entry for this job was punched.


 DEMOCRATS BUY MOST OF THE BOOKS THAT HAVE BEEN
 BANNED; REPUBLICANS FORM CENSORSHIP COMMITTEES AND
 READ THEM AS A GROUP.
 Job cpu time:       0 days  3 hours 31 minutes 36.8 seconds.
 Elapsed time:       0 days  0 hours 53 minutes 50.1 seconds.
 File lengths (MBytes):  RWF=    213 Int=      0 D2E=      0 Chk=     11 Scr=      1
 Normal termination of Gaussian 16 at Mon Jun 14 12:50:25 2021.
 at Mon Jun 14 12:36:16 2021.
