 Entering Gaussian System, Link 0=/cm/shared/apps/spack/cpu/opt/spack/linux-centos8-zen/gcc-8.3.1/gaussian-16.C.01-po5bqktfeugvmjyga3v7eigbecnokxng/g16/g16
 Initial command:
 /cm/shared/apps/spack/cpu/opt/spack/linux-centos8-zen/gcc-8.3.1/gaussian-16.C.01-po5bqktfeugvmjyga3v7eigbecnokxng/g16/l1.exe "/scratch/scaparas/job_3406259/Gau-6709.inp" -scrdir="/scratch/scaparas/job_3406259/"
 Entering Link 1 = /cm/shared/apps/spack/cpu/opt/spack/linux-centos8-zen/gcc-8.3.1/gaussian-16.C.01-po5bqktfeugvmjyga3v7eigbecnokxng/g16/l1.exe PID=      6710.
  
 Copyright (c) 1988-2019, Gaussian, Inc.  All Rights Reserved.
  
 This is part of the Gaussian(R) 16 program.  It is based on
 the Gaussian(R) 09 system (copyright 2009, Gaussian, Inc.),
 the Gaussian(R) 03 system (copyright 2003, Gaussian, Inc.),
 the Gaussian(R) 98 system (copyright 1998, Gaussian, Inc.),
 the Gaussian(R) 94 system (copyright 1995, Gaussian, Inc.),
 the Gaussian 92(TM) system (copyright 1992, Gaussian, Inc.),
 the Gaussian 90(TM) system (copyright 1990, Gaussian, Inc.),
 the Gaussian 88(TM) system (copyright 1988, Gaussian, Inc.),
 the Gaussian 86(TM) system (copyright 1986, Carnegie Mellon
 University), and the Gaussian 82(TM) system (copyright 1983,
 Carnegie Mellon University). Gaussian is a federally registered
 trademark of Gaussian, Inc.
  
 This software contains proprietary and confidential information,
 including trade secrets, belonging to Gaussian, Inc.
  
 This software is provided under written license and may be
 used, copied, transmitted, or stored only in accord with that
 written license.
  
 The following legend is applicable only to US Government
 contracts under FAR:
  
                    RESTRICTED RIGHTS LEGEND
  
 Use, reproduction and disclosure by the US Government is
 subject to restrictions as set forth in subparagraphs (a)
 and (c) of the Commercial Computer Software - Restricted
 Rights clause in FAR 52.227-19.
  
 Gaussian, Inc.
 340 Quinnipiac St., Bldg. 40, Wallingford CT 06492
  
  
 ---------------------------------------------------------------
 Warning -- This program may not be used in any manner that
 competes with the business of Gaussian, Inc. or will provide
 assistance to any competitor of Gaussian, Inc.  The licensee
 of this program is prohibited from giving any competitor of
 Gaussian, Inc. access to this program.  By using this program,
 the user acknowledges that Gaussian, Inc. is engaged in the
 business of creating and licensing software in the field of
 computational chemistry and represents and warrants to the
 licensee that it is not a competitor of Gaussian, Inc. and that
 it will not use this program in any manner prohibited above.
 ---------------------------------------------------------------
  

 Cite this work as:
 Gaussian 16, Revision C.01,
 M. J. Frisch, G. W. Trucks, H. B. Schlegel, G. E. Scuseria, 
 M. A. Robb, J. R. Cheeseman, G. Scalmani, V. Barone, 
 G. A. Petersson, H. Nakatsuji, X. Li, M. Caricato, A. V. Marenich, 
 J. Bloino, B. G. Janesko, R. Gomperts, B. Mennucci, H. P. Hratchian, 
 J. V. Ortiz, A. F. Izmaylov, J. L. Sonnenberg, D. Williams-Young, 
 F. Ding, F. Lipparini, F. Egidi, J. Goings, B. Peng, A. Petrone, 
 T. Henderson, D. Ranasinghe, V. G. Zakrzewski, J. Gao, N. Rega, 
 G. Zheng, W. Liang, M. Hada, M. Ehara, K. Toyota, R. Fukuda, 
 J. Hasegawa, M. Ishida, T. Nakajima, Y. Honda, O. Kitao, H. Nakai, 
 T. Vreven, K. Throssell, J. A. Montgomery, Jr., J. E. Peralta, 
 F. Ogliaro, M. J. Bearpark, J. J. Heyd, E. N. Brothers, K. N. Kudin, 
 V. N. Staroverov, T. A. Keith, R. Kobayashi, J. Normand, 
 K. Raghavachari, A. P. Rendell, J. C. Burant, S. S. Iyengar, 
 J. Tomasi, M. Cossi, J. M. Millam, M. Klene, C. Adamo, R. Cammi, 
 J. W. Ochterski, R. L. Martin, K. Morokuma, O. Farkas, 
 J. B. Foresman, and D. J. Fox, Gaussian, Inc., Wallingford CT, 2019.
 
 ******************************************
 Gaussian 16:  AS64L-G16RevC.01  3-Jul-2019
                14-Jun-2021 
 ******************************************
 %nprocshared=4
 Will use up to    4 processors via shared memory.
 %chk=FuncsMPW1PW91-V-2nd.chk
 %Mem=3GB
 --------------------------------------------------------------
 # td= (nstates=6, root=2) MPW1PW91/6-31+G* Opt density=current
 --------------------------------------------------------------
 1/18=20,19=15,26=3,38=1/1,3;
 2/9=110,12=2,17=6,18=5,40=1/2;
 3/5=1,6=6,7=11,11=9,25=1,30=1,71=1,74=-7/1,2,3,8;
 4//1;
 5/5=2,38=5/2;
 8/6=1,10=2,107=2,108=6/1;
 9/8=2,15=2,41=6,42=1,70=2/14;
 10/5=4,28=2/2;
 6/7=2,8=2,9=2,10=2,22=-1/1;
 7/12=6,13=5,14=2/1,2,3,16;
 1/18=20,19=15,26=3/3(2);
 2/9=110/2;
 99//99;
 2/9=110/2;
 3/5=1,6=6,7=11,11=9,25=1,30=1,71=1,74=-7/1,2,3,8;
 4/5=5,16=3,69=1/1;
 5/5=2,38=5/2;
 8/6=1,10=2,107=2,108=6/1;
 9/8=2,15=2,41=6,42=1,49=4,70=2/14;
 10/5=4,28=2/2;
 7/12=6,13=5,14=2/1,2,3,16;
 1/18=20,19=15,26=3/3(-8);
 2/9=110/2;
 6/7=2,8=2,9=2,10=2,22=-1/1;
 99/9=10/99;
 -------------------
 FuncsMPW1PW91-V-2nd
 -------------------
 Symbolic Z-matrix:
 Charge =  0 Multiplicity = 1
 C                    -2.15106   0.68921   0.00009 
 C                    -2.12793  -0.71582   0.00008 
 C                    -0.9323   -1.4131   -0.00001 
 C                     0.24691  -0.6702   -0.00004 
 C                     0.24819   0.7483    0. 
 C                    -0.97947   1.42353   0.00003 
 N                     1.56177  -1.07759  -0.00029 
 C                     1.62013   1.1629   -0.00016 
 C                     2.38201   0.03081   0.00025 
 H                     1.87632  -2.03001   0.00044 
 H                     1.99217   2.17301  -0.00035 
 H                     3.45255  -0.08243   0.00041 
 H                    -3.06159  -1.26202   0.00009 
 H                    -0.91725  -2.49534  -0.00007 
 H                    -3.1042    1.20079   0.00009 
 H                    -1.00935   2.50542  -0.00002 
 

 GradGradGradGradGradGradGradGradGradGradGradGradGradGradGradGradGradGrad
 Berny optimization.
 Initialization pass.
                           ----------------------------
                           !    Initial Parameters    !
                           ! (Angstroms and Degrees)  !
 --------------------------                            --------------------------
 ! Name  Definition              Value          Derivative Info.                !
 --------------------------------------------------------------------------------
 ! R1    R(1,2)                  1.4052         estimate D2E/DX2                !
 ! R2    R(1,6)                  1.3827         estimate D2E/DX2                !
 ! R3    R(1,15)                 1.0818         estimate D2E/DX2                !
 ! R4    R(2,3)                  1.3841         estimate D2E/DX2                !
 ! R5    R(2,13)                 1.0817         estimate D2E/DX2                !
 ! R6    R(3,4)                  1.3937         estimate D2E/DX2                !
 ! R7    R(3,14)                 1.0823         estimate D2E/DX2                !
 ! R8    R(4,5)                  1.4185         estimate D2E/DX2                !
 ! R9    R(4,7)                  1.3765         estimate D2E/DX2                !
 ! R10   R(5,6)                  1.4011         estimate D2E/DX2                !
 ! R11   R(5,8)                  1.4332         estimate D2E/DX2                !
 ! R12   R(6,16)                 1.0823         estimate D2E/DX2                !
 ! R13   R(7,9)                  1.3789         estimate D2E/DX2                !
 ! R14   R(7,10)                 1.003          estimate D2E/DX2                !
 ! R15   R(8,9)                  1.3646         estimate D2E/DX2                !
 ! R16   R(8,11)                 1.0764         estimate D2E/DX2                !
 ! R17   R(9,12)                 1.0765         estimate D2E/DX2                !
 ! A1    A(2,1,6)              121.1349         estimate D2E/DX2                !
 ! A2    A(2,1,15)             119.1671         estimate D2E/DX2                !
 ! A3    A(6,1,15)             119.698          estimate D2E/DX2                !
 ! A4    A(1,2,3)              121.1938         estimate D2E/DX2                !
 ! A5    A(1,2,13)             119.3846         estimate D2E/DX2                !
 ! A6    A(3,2,13)             119.4217         estimate D2E/DX2                !
 ! A7    A(2,3,4)              117.5387         estimate D2E/DX2                !
 ! A8    A(2,3,14)             121.0469         estimate D2E/DX2                !
 ! A9    A(4,3,14)             121.4144         estimate D2E/DX2                !
 ! A10   A(3,4,5)              122.2626         estimate D2E/DX2                !
 ! A11   A(3,4,7)              130.5743         estimate D2E/DX2                !
 ! A12   A(5,4,7)              107.163          estimate D2E/DX2                !
 ! A13   A(4,5,6)              118.7594         estimate D2E/DX2                !
 ! A14   A(4,5,8)              106.8666         estimate D2E/DX2                !
 ! A15   A(6,5,8)              134.374          estimate D2E/DX2                !
 ! A16   A(1,6,5)              119.1105         estimate D2E/DX2                !
 ! A17   A(1,6,16)             120.4966         estimate D2E/DX2                !
 ! A18   A(5,6,16)             120.3928         estimate D2E/DX2                !
 ! A19   A(4,7,9)              109.2874         estimate D2E/DX2                !
 ! A20   A(4,7,10)             125.4909         estimate D2E/DX2                !
 ! A21   A(9,7,10)             125.2217         estimate D2E/DX2                !
 ! A22   A(5,8,9)              107.125          estimate D2E/DX2                !
 ! A23   A(5,8,11)             127.0344         estimate D2E/DX2                !
 ! A24   A(9,8,11)             125.8405         estimate D2E/DX2                !
 ! A25   A(7,9,8)              109.5578         estimate D2E/DX2                !
 ! A26   A(7,9,12)             120.4645         estimate D2E/DX2                !
 ! A27   A(8,9,12)             129.9776         estimate D2E/DX2                !
 ! D1    D(6,1,2,3)             -0.0008         estimate D2E/DX2                !
 ! D2    D(6,1,2,13)          -179.9981         estimate D2E/DX2                !
 ! D3    D(15,1,2,3)           179.996          estimate D2E/DX2                !
 ! D4    D(15,1,2,13)           -0.0013         estimate D2E/DX2                !
 ! D5    D(2,1,6,5)             -0.0018         estimate D2E/DX2                !
 ! D6    D(2,1,6,16)           179.9965         estimate D2E/DX2                !
 ! D7    D(15,1,6,5)          -179.9986         estimate D2E/DX2                !
 ! D8    D(15,1,6,16)           -0.0003         estimate D2E/DX2                !
 ! D9    D(1,2,3,4)              0.002          estimate D2E/DX2                !
 ! D10   D(1,2,3,14)          -179.9968         estimate D2E/DX2                !
 ! D11   D(13,2,3,4)           179.9992         estimate D2E/DX2                !
 ! D12   D(13,2,3,14)            0.0005         estimate D2E/DX2                !
 ! D13   D(2,3,4,5)             -0.0005         estimate D2E/DX2                !
 ! D14   D(2,3,4,7)           -179.9911         estimate D2E/DX2                !
 ! D15   D(14,3,4,5)           179.9982         estimate D2E/DX2                !
 ! D16   D(14,3,4,7)             0.0076         estimate D2E/DX2                !
 ! D17   D(3,4,5,6)             -0.002          estimate D2E/DX2                !
 ! D18   D(3,4,5,8)           -179.9955         estimate D2E/DX2                !
 ! D19   D(7,4,5,6)            179.9905         estimate D2E/DX2                !
 ! D20   D(7,4,5,8)             -0.003          estimate D2E/DX2                !
 ! D21   D(3,4,7,9)           -179.98           estimate D2E/DX2                !
 ! D22   D(3,4,7,10)            -0.0649         estimate D2E/DX2                !
 ! D23   D(5,4,7,9)              0.0284         estimate D2E/DX2                !
 ! D24   D(5,4,7,10)           179.9434         estimate D2E/DX2                !
 ! D25   D(4,5,6,1)              0.0031         estimate D2E/DX2                !
 ! D26   D(4,5,6,16)          -179.9951         estimate D2E/DX2                !
 ! D27   D(8,5,6,1)            179.9944         estimate D2E/DX2                !
 ! D28   D(8,5,6,16)            -0.0038         estimate D2E/DX2                !
 ! D29   D(4,5,8,9)             -0.0234         estimate D2E/DX2                !
 ! D30   D(4,5,8,11)           179.9883         estimate D2E/DX2                !
 ! D31   D(6,5,8,9)            179.9846         estimate D2E/DX2                !
 ! D32   D(6,5,8,11)            -0.0037         estimate D2E/DX2                !
 ! D33   D(4,7,9,8)             -0.0444         estimate D2E/DX2                !
 ! D34   D(4,7,9,12)           179.9847         estimate D2E/DX2                !
 ! D35   D(10,7,9,8)          -179.9597         estimate D2E/DX2                !
 ! D36   D(10,7,9,12)            0.0693         estimate D2E/DX2                !
 ! D37   D(5,8,9,7)              0.0414         estimate D2E/DX2                !
 ! D38   D(5,8,9,12)          -179.9913         estimate D2E/DX2                !
 ! D39   D(11,8,9,7)          -179.9702         estimate D2E/DX2                !
 ! D40   D(11,8,9,12)           -0.0029         estimate D2E/DX2                !
 --------------------------------------------------------------------------------
 Trust Radius=3.00D-01 FncErr=1.00D-07 GrdErr=1.00D-06 EigMax=2.50D+02 EigMin=1.00D-04
 Number of steps in this run=     94 maximum allowed number of steps=    100.
 GradGradGradGradGradGradGradGradGradGradGradGradGradGradGradGradGradGrad

                          Input orientation:                          
 ---------------------------------------------------------------------
 Center     Atomic      Atomic             Coordinates (Angstroms)
 Number     Number       Type             X           Y           Z
 ---------------------------------------------------------------------
      1          6           0       -2.151063    0.689208    0.000088
      2          6           0       -2.127927   -0.715818    0.000075
      3          6           0       -0.932297   -1.413100   -0.000011
      4          6           0        0.246911   -0.670201   -0.000042
      5          6           0        0.248193    0.748299    0.000000
      6          6           0       -0.979474    1.423526    0.000032
      7          7           0        1.561774   -1.077592   -0.000285
      8          6           0        1.620133    1.162900   -0.000157
      9          6           0        2.382013    0.030806    0.000248
     10          1           0        1.876315   -2.030011    0.000438
     11          1           0        1.992173    2.173010   -0.000348
     12          1           0        3.452549   -0.082425    0.000408
     13          1           0       -3.061594   -1.262020    0.000088
     14          1           0       -0.917252   -2.495342   -0.000073
     15          1           0       -3.104203    1.200785    0.000090
     16          1           0       -1.009348    2.505421   -0.000015
 ---------------------------------------------------------------------
                    Distance matrix (angstroms):
                    1          2          3          4          5
     1  C    0.000000
     2  C    1.405216   0.000000
     3  C    2.430039   1.384100   0.000000
     4  C    2.756496   2.375276   1.393711   0.000000
     5  C    2.399984   2.790983   2.462763   1.418501   0.000000
     6  C    1.382694   2.428114   2.837018   2.426461   1.401106
     7  N    4.111781   3.707395   2.516536   1.376529   2.249305
     8  C    3.800829   4.192557   3.626386   2.290414   1.433218
     9  C    4.580641   4.571324   3.615178   2.247236   2.251218
    10  H    4.859416   4.214387   2.875566   2.122273   3.220216
    11  H    4.400917   5.031953   4.627387   3.336134   2.251948
    12  H    5.656491   5.616307   4.582311   3.259079   3.310287
    13  H    2.153220   1.081698   2.134650   3.361020   3.872476
    14  H    3.415208   2.152310   1.082347   2.164813   3.446661
    15  H    1.081752   2.150926   3.398466   3.838040   3.382795
    16  H    2.145261   3.409927   3.919278   3.415079   2.160761
                    6          7          8          9         10
     6  C    0.000000
     7  N    3.565604   0.000000
     8  C    2.612639   2.241252   0.000000
     9  C    3.638580   1.378890   1.364587   0.000000
    10  H    4.481345   1.003015   3.203172   2.121956   0.000000
    11  H    3.064704   3.278972   1.076446   2.177387   4.204618
    12  H    4.680888   2.136677   2.215532   1.076508   2.505515
    13  H    3.398144   4.627045   5.272457   5.595021   4.997275
    14  H    3.919362   2.855798   4.452085   4.155307   2.832058
    15  H    2.136372   5.192528   4.724488   5.609583   5.936632
    16  H    1.082307   4.410062   2.952378   4.198220   5.375611
                   11         12         13         14         15
    11  H    0.000000
    12  H    2.686947   0.000000
    13  H    6.110646   6.620083   0.000000
    14  H    5.500751   4.991726   2.473719   0.000000
    15  H    5.188282   6.681139   2.463174   4.294661   0.000000
    16  H    3.019872   5.158049   4.290143   5.001611   2.467892
                   16
    16  H    0.000000
 Stoichiometry    C8H7N
 Framework group  C1[X(C8H7N)]
 Deg. of freedom    42
 Full point group                 C1      NOp   1
 Largest Abelian subgroup         C1      NOp   1
 Largest concise Abelian subgroup C1      NOp   1
                         Standard orientation:                         
 ---------------------------------------------------------------------
 Center     Atomic      Atomic             Coordinates (Angstroms)
 Number     Number       Type             X           Y           Z
 ---------------------------------------------------------------------
      1          6           0       -2.151063    0.689208    0.000088
      2          6           0       -2.127927   -0.715818    0.000075
      3          6           0       -0.932297   -1.413100   -0.000011
      4          6           0        0.246911   -0.670201   -0.000042
      5          6           0        0.248193    0.748299    0.000000
      6          6           0       -0.979474    1.423526    0.000032
      7          7           0        1.561774   -1.077592   -0.000285
      8          6           0        1.620133    1.162900   -0.000157
      9          6           0        2.382013    0.030806    0.000248
     10          1           0        1.876315   -2.030011    0.000438
     11          1           0        1.992173    2.173010   -0.000348
     12          1           0        3.452549   -0.082425    0.000408
     13          1           0       -3.061594   -1.262020    0.000088
     14          1           0       -0.917252   -2.495342   -0.000073
     15          1           0       -3.104203    1.200785    0.000090
     16          1           0       -1.009348    2.505421   -0.000015
 ---------------------------------------------------------------------
 Rotational constants (GHZ):           3.9080822           1.6429452           1.1566805
 Standard basis: 6-31+G(d) (6D, 7F)
 There are   185 symmetry adapted cartesian basis functions of A   symmetry.
 There are   185 symmetry adapted basis functions of A   symmetry.
   185 basis functions,   316 primitive gaussians,   185 cartesian basis functions
    31 alpha electrons       31 beta electrons
       nuclear repulsion energy       401.3368668897 Hartrees.
 NAtoms=   16 NActive=   16 NUniq=   16 SFac= 1.00D+00 NAtFMM=   60 NAOKFM=F Big=F
 Integral buffers will be    131072 words long.
 Regular integral format.
 Two-electron integral symmetry is turned on.
 One-electron integrals computed using PRISM.
 NBasis=   185 RedAO= T EigKep=  1.26D-06  NBF=   185
 NBsUse=   185 1.00D-06 EigRej= -1.00D+00 NBFU=   185
 ExpMin= 4.38D-02 ExpMax= 4.17D+03 ExpMxC= 6.27D+02 IAcc=3 IRadAn=         5 AccDes= 0.00D+00
 Harris functional with IExCor=  908 and IRadAn=       5 diagonalized for initial guess.
 HarFok:  IExCor=  908 AccDes= 0.00D+00 IRadAn=         5 IDoV= 1 UseB2=F ITyADJ=14
 ICtDFT=  3500011 ScaDFX=  1.000000  1.000000  1.000000  1.000000
 FoFCou: FMM=F IPFlag=           0 FMFlag=      100000 FMFlg1=           0
         NFxFlg=           0 DoJE=T BraDBF=F KetDBF=T FulRan=T
         wScrn=  0.000000 ICntrl=       500 IOpCl=  0 I1Cent=   200000004 NGrid=           0
         NMat0=    1 NMatS0=      1 NMatT0=    0 NMatD0=    1 NMtDS0=    0 NMtDT0=    0
 Petite list used in FoFCou.
 Keep R1 ints in memory in canonical form, NReq=152071459.
 Requested convergence on RMS density matrix=1.00D-08 within 128 cycles.
 Requested convergence on MAX density matrix=1.00D-06.
 Requested convergence on             energy=1.00D-06.
 No special actions if energy rises.
 SCF Done:  E(RmPW1PW91) =  -363.747106292     A.U. after   14 cycles
            NFock= 14  Conv=0.67D-08     -V/T= 2.0091
 DoSCS=F DFT=T ScalE2(SS,OS)=  1.000000  1.000000
 ExpMin= 4.38D-02 ExpMax= 4.17D+03 ExpMxC= 6.27D+02 IAcc=3 IRadAn=         5 AccDes= 0.00D+00
 HarFok:  IExCor=  205 AccDes= 0.00D+00 IRadAn=         5 IDoV=-2 UseB2=F ITyADJ=14
 ICtDFT= 12500011 ScaDFX=  1.000000  1.000000  1.000000  1.000000
 Range of M.O.s used for correlation:    10   185
 NBasis=   185 NAE=    31 NBE=    31 NFC=     9 NFV=     0
 NROrb=    176 NOA=    22 NOB=    22 NVA=   154 NVB=   154

 **** Warning!!: The largest alpha MO coefficient is  0.17904056D+03

 Orbital symmetries:
       Occupied  (A) (A) (A) (A) (A) (A) (A) (A) (A) (A) (A) (A)
                 (A) (A) (A) (A) (A) (A) (A) (A) (A) (A) (A) (A)
                 (A) (A) (A) (A) (A) (A) (A)
       Virtual   (A) (A) (A) (A) (A) (A) (A) (A) (A) (A) (A) (A)
                 (A) (A) (A) (A) (A) (A) (A) (A) (A) (A) (A) (A)
                 (A) (A) (A) (A) (A) (A) (A) (A) (A) (A) (A) (A)
                 (A) (A) (A) (A) (A) (A) (A) (A) (A) (A) (A) (A)
                 (A) (A) (A) (A) (A) (A) (A) (A) (A) (A) (A) (A)
                 (A) (A) (A) (A) (A) (A) (A) (A) (A) (A) (A) (A)
                 (A) (A) (A) (A) (A) (A) (A) (A) (A) (A) (A) (A)
                 (A) (A) (A) (A) (A) (A) (A) (A) (A) (A) (A) (A)
                 (A) (A) (A) (A) (A) (A) (A) (A) (A) (A) (A) (A)
                 (A) (A) (A) (A) (A) (A) (A) (A) (A) (A) (A) (A)
                 (A) (A) (A) (A) (A) (A) (A) (A) (A) (A) (A) (A)
                 (A) (A) (A) (A) (A) (A) (A) (A) (A) (A) (A) (A)
                 (A) (A) (A) (A) (A) (A) (A) (A) (A) (A)
    24 initial guesses have been made.
 Convergence on wavefunction:    0.000001000000000
 Iteration     1 Dimension    24 NMult     0 NNew     24
 CISAX will form    24 AO SS matrices at one time.
 New state      1 was old state      2
 New state      2 was old state      3
 New state      3 was old state      1
 New state      6 was old state      7
 Iteration     2 Dimension    36 NMult    24 NNew     12
 New state      1 was old state      3
 New state      2 was old state      1
 New state      3 was old state      2
 Iteration     3 Dimension    48 NMult    36 NNew     12
 New state      2 was old state      3
 New state      3 was old state      2
 Iteration     4 Dimension    60 NMult    48 NNew     12
 Iteration     5 Dimension    72 NMult    60 NNew     12
 Iteration     6 Dimension    84 NMult    72 NNew     12
 Iteration     7 Dimension    96 NMult    84 NNew     12
 Iteration     8 Dimension   108 NMult    96 NNew     12
 Iteration     9 Dimension   120 NMult   108 NNew     12
 Iteration    10 Dimension   124 NMult   120 NNew      4
 Iteration    11 Dimension   128 NMult   124 NNew      4
 ***********************************************************************
 Excited states from <AA,BB:AA,BB> singles matrix:
 ***********************************************************************
 
 Ground to excited state transition densities written to RWF  633
 Ground to excited state transition electric dipole moments (Au):
       state          X           Y           Z        Dip. S.      Osc.
         1        -0.5458      0.6320     -0.0002      0.6973      0.0833
         2        -0.5691     -0.0964     -0.0006      0.3332      0.0409
         3         0.0031     -0.0006     -0.1237      0.0153      0.0019
         4        -0.0003      0.0001     -0.1329      0.0177      0.0024
         5         0.0004     -0.0000      0.0062      0.0000      0.0000
         6         0.0005      0.0002      0.0982      0.0096      0.0014
 Ground to excited state transition velocity dipole moments (Au):
       state          X           Y           Z        Dip. S.      Osc.
         1         0.0891     -0.1223      0.0000      0.0229      0.0852
         2         0.0990      0.0183      0.0001      0.0101      0.0367
         3        -0.0005      0.0001      0.0144      0.0002      0.0007
         4         0.0001     -0.0000      0.0287      0.0008      0.0027
         5        -0.0001      0.0000     -0.0003      0.0000      0.0000
         6        -0.0001     -0.0000     -0.0203      0.0004      0.0013
 Ground to excited state transition magnetic dipole moments (Au):
       state          X           Y           Z
         1         0.0004     -0.0001      0.1822
         2         0.0004     -0.0004     -0.0314
         3         0.1231     -0.0628      0.0000
         4         0.0417     -0.2296      0.0000
         5         0.2918     -0.1527      0.0002
         6         0.1165      0.3333      0.0004
 Ground to excited state transition velocity quadrupole moments (Au):
       state          XX          YY          ZZ          XY          XZ          YZ
         1         0.1988     -0.1121      0.0120      0.0474      0.0001      0.0001
         2         0.0783     -0.1153      0.0256     -0.0002      0.0003      0.0002
         3        -0.0007      0.0006     -0.0000     -0.0000      0.0553      0.0527
         4        -0.0000      0.0000     -0.0000     -0.0000      0.1594     -0.0145
         5        -0.0002     -0.0000      0.0000      0.0001      0.1838      0.2515
         6         0.0001     -0.0001      0.0001      0.0002     -0.2906      0.0230
 <0|del|b> * <b|rxdel|0> + <0|del|b> * <b|delr+rdel|0>
 Rotatory Strengths (R) in cgs (10**-40 erg-esu-cm/Gauss)
       state          XX          YY          ZZ    R(velocity)    E-M Angle
         1         0.0633      0.0924      0.0331      0.0630       90.00
         2        -0.0311      0.1038      0.0431      0.0386       90.00
         3        -0.0255     -0.1763     -0.0730     -0.0916       90.00
         4         0.0175      0.0039      0.0101      0.0105       90.00
         5        -0.0032     -0.0691     -0.0049     -0.0257       90.00
         6        -0.0439     -0.0287     -0.0156     -0.0294       90.00
 1/2[<0|r|b>*<b|rxdel|0> + (<0|rxdel|b>*<b|r|0>)*]
 Rotatory Strengths (R) in cgs (10**-40 erg-esu-cm/Gauss)
       state          XX          YY          ZZ     R(length)
         1         0.1432      0.0361      0.0300      0.0697
         2         0.1649     -0.0302     -0.0128      0.0406
         3        -0.2700     -0.0247      0.0041     -0.0969
         4         0.0095      0.0190      0.0006      0.0097
         5        -0.0769     -0.0035     -0.0007     -0.0271
         6        -0.0378     -0.0390     -0.0294     -0.0354
  1/2[<0|del|b>*<b|r|0> + (<0|r|b>*<b|del|0>)*] (Au)
       state          X           Y           Z        Dip. S.   Osc.(frdel)
         1        -0.0486     -0.0773     -0.0000      0.1259      0.0840
         2        -0.0563     -0.0018     -0.0000      0.0581      0.0387
         3        -0.0000     -0.0000     -0.0018      0.0018      0.0012
         4        -0.0000     -0.0000     -0.0038      0.0038      0.0025
         5        -0.0000     -0.0000     -0.0000      0.0000      0.0000
         6        -0.0000     -0.0000     -0.0020      0.0020      0.0013

 Excitation energies and oscillator strengths:
 
 Excited State   1:      Singlet-A      4.8759 eV  254.28 nm  f=0.0833  <S**2>=0.000
      30 -> 32        -0.14813
      30 -> 35         0.15719
      31 -> 32         0.66062
 
 Excited State   2:      Singlet-A      5.0070 eV  247.62 nm  f=0.0409  <S**2>=0.000
      30 -> 32         0.56377
      31 -> 32         0.12986
      31 -> 35        -0.39462
 This state for optimization and/or second-order correction.
 Total Energy, E(TD-HF/TD-DFT) =  -363.563101686    
 Copying the excited state density for this state as the 1-particle RhoCI density.
 
 Excited State   3:      Singlet-A      5.0268 eV  246.65 nm  f=0.0019  <S**2>=0.000
      31 -> 33         0.70309
 
 Excited State   4:      Singlet-A      5.5025 eV  225.33 nm  f=0.0024  <S**2>=0.000
      30 -> 33         0.69149
      31 -> 34         0.11367
 
 Excited State   5:      Singlet-A      5.6309 eV  220.19 nm  f=0.0000  <S**2>=0.000
      30 -> 33        -0.11674
      31 -> 34         0.68981
 
 Excited State   6:      Singlet-A      5.7301 eV  216.37 nm  f=0.0014  <S**2>=0.000
      31 -> 36         0.69613
 SavETr:  write IOETrn=   770 NScale= 10 NData=  16 NLR=1 NState=    6 LETran=     118.
          IDoAtm=1111111111111111
          Differentiating once with respect to electric field.
                with respect to dipole field.
          Differentiating once with respect to nuclear coordinates.
 Keep R1 ints in memory in canonical form, NReq=152083851.
          There are     1 degrees of freedom in the 1st order CPHF.  IDoFFX=0 NUNeed=     1.
 LinEq1:  Iter=  0 NonCon=     1 RMS=5.36D-03 Max=1.61D-01 NDo=     1
 AX will form     1 AO Fock derivatives at one time.
 LinEq1:  Iter=  1 NonCon=     1 RMS=2.17D-03 Max=6.08D-02 NDo=     1
 LinEq1:  Iter=  2 NonCon=     1 RMS=1.85D-03 Max=6.39D-02 NDo=     1
 LinEq1:  Iter=  3 NonCon=     1 RMS=7.19D-04 Max=1.56D-02 NDo=     1
 LinEq1:  Iter=  4 NonCon=     1 RMS=3.66D-04 Max=1.28D-02 NDo=     1
 LinEq1:  Iter=  5 NonCon=     1 RMS=1.92D-04 Max=3.89D-03 NDo=     1
 LinEq1:  Iter=  6 NonCon=     1 RMS=1.17D-04 Max=2.92D-03 NDo=     1
 LinEq1:  Iter=  7 NonCon=     1 RMS=4.59D-05 Max=8.21D-04 NDo=     1
 LinEq1:  Iter=  8 NonCon=     1 RMS=3.15D-05 Max=8.40D-04 NDo=     1
 LinEq1:  Iter=  9 NonCon=     1 RMS=9.83D-06 Max=2.13D-04 NDo=     1
 LinEq1:  Iter= 10 NonCon=     1 RMS=7.51D-06 Max=1.85D-04 NDo=     1
 LinEq1:  Iter= 11 NonCon=     1 RMS=2.27D-06 Max=4.04D-05 NDo=     1
 LinEq1:  Iter= 12 NonCon=     1 RMS=1.41D-06 Max=2.91D-05 NDo=     1
 LinEq1:  Iter= 13 NonCon=     1 RMS=4.92D-07 Max=4.86D-06 NDo=     1
 LinEq1:  Iter= 14 NonCon=     1 RMS=1.29D-07 Max=1.74D-06 NDo=     1
 LinEq1:  Iter= 15 NonCon=     1 RMS=8.09D-08 Max=1.29D-06 NDo=     1
 LinEq1:  Iter= 16 NonCon=     1 RMS=1.65D-08 Max=2.45D-07 NDo=     1
 LinEq1:  Iter= 17 NonCon=     1 RMS=6.99D-09 Max=1.57D-07 NDo=     1
 LinEq1:  Iter= 18 NonCon=     1 RMS=3.29D-09 Max=5.20D-08 NDo=     1
 LinEq1:  Iter= 19 NonCon=     1 RMS=6.85D-10 Max=1.55D-08 NDo=     1
 LinEq1:  Iter= 20 NonCon=     1 RMS=1.49D-10 Max=3.19D-09 NDo=     1
 LinEq1:  Iter= 21 NonCon=     1 RMS=5.67D-11 Max=1.08D-09 NDo=     1
 LinEq1:  Iter= 22 NonCon=     0 RMS=1.82D-11 Max=1.93D-10 NDo=     1
 Linear equations converged to 1.000D-10 1.000D-09 after    22 iterations.
 End of Minotr F.D. properties file   721 does not exist.
 End of Minotr F.D. properties file   722 does not exist.
 End of Minotr F.D. properties file   788 does not exist.

 **********************************************************************

            Population analysis using the CI Density.

 **********************************************************************

 Orbital symmetries:
       Occupied  (A) (A) (A) (A) (A) (A) (A) (A) (A) (A) (A) (A)
                 (A) (A) (A) (A) (A) (A) (A) (A) (A) (A) (A) (A)
                 (A) (A) (A) (A) (A) (A) (A)
       Virtual   (A) (A) (A) (A) (A) (A) (A) (A) (A) (A) (A) (A)
                 (A) (A) (A) (A) (A) (A) (A) (A) (A) (A) (A) (A)
                 (A) (A) (A) (A) (A) (A) (A) (A) (A) (A) (A) (A)
                 (A) (A) (A) (A) (A) (A) (A) (A) (A) (A) (A) (A)
                 (A) (A) (A) (A) (A) (A) (A) (A) (A) (A) (A) (A)
                 (A) (A) (A) (A) (A) (A) (A) (A) (A) (A) (A) (A)
                 (A) (A) (A) (A) (A) (A) (A) (A) (A) (A) (A) (A)
                 (A) (A) (A) (A) (A) (A) (A) (A) (A) (A) (A) (A)
                 (A) (A) (A) (A) (A) (A) (A) (A) (A) (A) (A) (A)
                 (A) (A) (A) (A) (A) (A) (A) (A) (A) (A) (A) (A)
                 (A) (A) (A) (A) (A) (A) (A) (A) (A) (A) (A) (A)
                 (A) (A) (A) (A) (A) (A) (A) (A) (A) (A) (A) (A)
                 (A) (A) (A) (A) (A) (A) (A) (A) (A) (A)
 The electronic state is 1-A.
 Alpha  occ. eigenvalues --  -14.46431 -10.28479 -10.28286 -10.25244 -10.24855
 Alpha  occ. eigenvalues --  -10.24709 -10.24702 -10.24191 -10.23956  -1.01451
 Alpha  occ. eigenvalues --   -0.86870  -0.81054  -0.76192  -0.74333  -0.64741
 Alpha  occ. eigenvalues --   -0.61742  -0.60367  -0.56063  -0.50189  -0.48951
 Alpha  occ. eigenvalues --   -0.45496  -0.44637  -0.44041  -0.42795  -0.40800
 Alpha  occ. eigenvalues --   -0.37039  -0.35052  -0.34955  -0.29337  -0.23571
 Alpha  occ. eigenvalues --   -0.21874
 Alpha virt. eigenvalues --   -0.01259   0.00129   0.02066   0.02425   0.02579
 Alpha virt. eigenvalues --    0.04130   0.04207   0.05076   0.06330   0.06422
 Alpha virt. eigenvalues --    0.07023   0.07141   0.08985   0.09288   0.11118
 Alpha virt. eigenvalues --    0.11146   0.11768   0.13006   0.13898   0.14530
 Alpha virt. eigenvalues --    0.15909   0.15992   0.17152   0.17211   0.17958
 Alpha virt. eigenvalues --    0.18766   0.19349   0.19379   0.20364   0.20770
 Alpha virt. eigenvalues --    0.20828   0.21005   0.22560   0.23195   0.23882
 Alpha virt. eigenvalues --    0.24190   0.24619   0.25361   0.26548   0.26738
 Alpha virt. eigenvalues --    0.27757   0.27867   0.28662   0.30407   0.30985
 Alpha virt. eigenvalues --    0.31898   0.32457   0.34075   0.35902   0.37664
 Alpha virt. eigenvalues --    0.38797   0.40879   0.44742   0.46007   0.52567
 Alpha virt. eigenvalues --    0.59468   0.63982   0.68734   0.68774   0.71407
 Alpha virt. eigenvalues --    0.73003   0.73527   0.74461   0.75159   0.75703
 Alpha virt. eigenvalues --    0.76830   0.77284   0.79329   0.80802   0.81582
 Alpha virt. eigenvalues --    0.82935   0.86961   0.90997   0.91817   0.92981
 Alpha virt. eigenvalues --    0.95275   0.96029   0.96875   0.97479   1.00021
 Alpha virt. eigenvalues --    1.01983   1.04672   1.06309   1.08037   1.10790
 Alpha virt. eigenvalues --    1.12667   1.13053   1.18458   1.19325   1.21867
 Alpha virt. eigenvalues --    1.23839   1.24596   1.26628   1.33220   1.33274
 Alpha virt. eigenvalues --    1.35261   1.38301   1.42671   1.43197   1.46712
 Alpha virt. eigenvalues --    1.47274   1.47958   1.51071   1.51644   1.55413
 Alpha virt. eigenvalues --    1.60477   1.66527   1.80290   1.86120   1.90062
 Alpha virt. eigenvalues --    1.90762   1.93918   1.95967   2.01281   2.01549
 Alpha virt. eigenvalues --    2.02168   2.08156   2.11832   2.16029   2.19095
 Alpha virt. eigenvalues --    2.19124   2.21697   2.26653   2.27835   2.28358
 Alpha virt. eigenvalues --    2.30445   2.33354   2.39960   2.42756   2.46590
 Alpha virt. eigenvalues --    2.56847   2.57818   2.65763   2.67932   2.69013
 Alpha virt. eigenvalues --    2.72146   2.75798   2.83168   2.86881   2.88035
 Alpha virt. eigenvalues --    2.97731   3.00207   3.13624   3.26671   3.47270
 Alpha virt. eigenvalues --    4.17868   4.29000   4.31972   4.35454   4.39046
 Alpha virt. eigenvalues --    4.42599   4.50941   4.54869   4.81898
          Condensed to atoms (all electrons):
               1          2          3          4          5          6
     1  C    6.234170   0.093036   0.394154  -0.768659   0.171944  -0.504972
     2  C    0.093036   6.345882  -0.249836   0.402430  -1.058483   0.961295
     3  C    0.394154  -0.249836  13.876384  -1.974211  -3.890629  -3.524285
     4  C   -0.768659   0.402430  -1.974211  13.778796  -4.506435  -0.712110
     5  C    0.171944  -1.058483  -3.890629  -4.506435  15.469562  -0.193881
     6  C   -0.504972   0.961295  -3.524285  -0.712110  -0.193881  13.684950
     7  N   -0.046693   0.007400  -0.609142  -0.457908   1.045783   0.201301
     8  C    0.157972  -0.315272   3.287373   2.034420  -4.674063  -4.311431
     9  C   -0.091214   0.025074  -1.234335  -0.769999   1.821309   1.119799
    10  H   -0.002158  -0.010506  -0.148211  -0.062919   0.183328   0.026898
    11  H    0.002297   0.001386   0.003703   0.026366   0.005650   0.007645
    12  H    0.001430   0.000304   0.045735   0.125244  -0.140153  -0.025507
    13  H    0.041893   0.231017   0.032366  -0.002765   0.019987  -0.016302
    14  H    0.001209   0.078678   0.163388   0.081564  -0.006994  -0.017341
    15  H    0.253382   0.026882   0.016565  -0.020365   0.027326  -0.004027
    16  H    0.051245   0.002241  -0.020421   0.009336   0.101040   0.166451
               7          8          9         10         11         12
     1  C   -0.046693   0.157972  -0.091214  -0.002158   0.002297   0.001430
     2  C    0.007400  -0.315272   0.025074  -0.010506   0.001386   0.000304
     3  C   -0.609142   3.287373  -1.234335  -0.148211   0.003703   0.045735
     4  C   -0.457908   2.034420  -0.769999  -0.062919   0.026366   0.125244
     5  C    1.045783  -4.674063   1.821309   0.183328   0.005650  -0.140153
     6  C    0.201301  -4.311431   1.119799   0.026898   0.007645  -0.025507
     7  N    7.342117  -0.861015   0.608288   0.276463   0.005538  -0.061892
     8  C   -0.861015  12.209404  -1.931741  -0.008326   0.260539   0.089512
     9  C    0.608288  -1.931741   6.453447  -0.016980  -0.009620   0.278400
    10  H    0.276463  -0.008326  -0.016980   0.319672  -0.000084  -0.002192
    11  H    0.005538   0.260539  -0.009620  -0.000084   0.468834  -0.000756
    12  H   -0.061892   0.089512   0.278400  -0.002192  -0.000756   0.462202
    13  H   -0.000503   0.001506   0.000999  -0.000002   0.000000  -0.000000
    14  H   -0.010528   0.001342   0.004005   0.001910   0.000002   0.000002
    15  H    0.000343   0.008714  -0.000042  -0.000000  -0.000002  -0.000000
    16  H   -0.000970  -0.016703   0.003585   0.000004   0.001272  -0.000001
              13         14         15         16
     1  C    0.041893   0.001209   0.253382   0.051245
     2  C    0.231017   0.078678   0.026882   0.002241
     3  C    0.032366   0.163388   0.016565  -0.020421
     4  C   -0.002765   0.081564  -0.020365   0.009336
     5  C    0.019987  -0.006994   0.027326   0.101040
     6  C   -0.016302  -0.017341  -0.004027   0.166451
     7  N   -0.000503  -0.010528   0.000343  -0.000970
     8  C    0.001506   0.001342   0.008714  -0.016703
     9  C    0.000999   0.004005  -0.000042   0.003585
    10  H   -0.000002   0.001910  -0.000000   0.000004
    11  H    0.000000   0.000002  -0.000002   0.001272
    12  H   -0.000000   0.000002  -0.000000  -0.000001
    13  H    0.486628  -0.003851  -0.003826  -0.000137
    14  H   -0.003851   0.496484  -0.000138   0.000016
    15  H   -0.003826  -0.000138   0.486223  -0.003736
    16  H   -0.000137   0.000016  -0.003736   0.493212
 Mulliken charges:
               1
     1  C    0.010966
     2  C   -0.541528
     3  C   -0.168600
     4  C   -1.182786
     5  C    1.624708
     6  C   -0.858484
     7  N   -0.438582
     8  C    0.067767
     9  C   -0.260975
    10  H    0.443102
    11  H    0.227230
    12  H    0.227674
    13  H    0.212988
    14  H    0.210252
    15  H    0.212700
    16  H    0.213566
 Sum of Mulliken charges =  -0.00000
 Mulliken charges with hydrogens summed into heavy atoms:
               1
     1  C    0.223666
     2  C   -0.328540
     3  C    0.041652
     4  C   -1.182786
     5  C    1.624708
     6  C   -0.644918
     7  N    0.004520
     8  C    0.294997
     9  C   -0.033300
 Electronic spatial extent (au):  <R**2>=           1006.7975
 Charge=             -0.0000 electrons
 Dipole moment (field-independent basis, Debye):
    X=              2.1902    Y=             -1.4143    Z=             -0.0022  Tot=              2.6072
 Quadrupole moment (field-independent basis, Debye-Ang):
   XX=            -45.3137   YY=            -45.8245   ZZ=            -59.6513
   XY=             -2.8813   XZ=             -0.0029   YZ=              0.0041
 Traceless Quadrupole moment (field-independent basis, Debye-Ang):
   XX=              4.9494   YY=              4.4387   ZZ=             -9.3881
   XY=             -2.8813   XZ=             -0.0029   YZ=              0.0041
 Octapole moment (field-independent basis, Debye-Ang**2):
  XXX=             17.3523  YYY=             -9.3359  ZZZ=             -0.0165  XYY=             11.1527
  XXY=             -7.0330  XXZ=             -0.0148  XZZ=              2.9742  YZZ=             -1.3171
  YYZ=             -0.0227  XYZ=             -0.0009
 Hexadecapole moment (field-independent basis, Debye-Ang**3):
 XXXX=           -826.2318 YYYY=           -380.5072 ZZZZ=            -80.7443 XXXY=            -19.2419
 XXXZ=             -0.0678 YYYX=            -18.3631 YYYZ=              0.0481 ZZZX=             -0.0171
 ZZZY=              0.0277 XXYY=           -196.1495 XXZZ=           -196.8246 YYZZ=            -99.8095
 XXYZ=              0.0423 YYXZ=             -0.0025 ZZXY=             -3.1969
 N-N= 4.013368668897D+02 E-N=-1.645214776099D+03  KE= 3.606603570992D+02
 Calling FoFJK, ICntrl=  10005127 FMM=F ISym2X=0 I1Cent= 0 IOpClX= 0 NMat=1 NMatS=1 NMatT=0.
 ***** Axes restored to original set *****
 -------------------------------------------------------------------
 Center     Atomic                   Forces (Hartrees/Bohr)
 Number     Number              X              Y              Z
 -------------------------------------------------------------------
      1        6          -0.022177853    0.002348220   -0.000018738
      2        6          -0.017070142   -0.008293705    0.000018592
      3        6           0.005145690   -0.028077152    0.000005841
      4        6           0.016205792   -0.015850361   -0.000056410
      5        6           0.018114334    0.024589702   -0.000005847
      6        6           0.015329305    0.029580036    0.000025815
      7        7          -0.010353964   -0.001918191    0.000031740
      8        6          -0.024167488    0.009521309    0.000020081
      9        6           0.018138564   -0.010701726   -0.000035237
     10        1           0.000914879   -0.003002537    0.000018391
     11        1           0.000721242    0.002706113    0.000007057
     12        1           0.002730629   -0.000446643   -0.000002463
     13        1          -0.001925914   -0.001156631    0.000002596
     14        1           0.000095821   -0.001945462   -0.000003536
     15        1          -0.002081229    0.000896582   -0.000006004
     16        1           0.000380335    0.001750445   -0.000001878
 -------------------------------------------------------------------
 Cartesian Forces:  Max     0.029580036 RMS     0.010704990

 GradGradGradGradGradGradGradGradGradGradGradGradGradGradGradGradGradGrad
 Berny optimization.
 FormGI is forming the generalized inverse of G from B-inverse, IUseBI=4.
 Internal  Forces:  Max     0.032176758 RMS     0.007314451
 Search for a local minimum.
 Step number   1 out of a maximum of   94
 All quantities printed in internal units (Hartrees-Bohrs-Radians)
 Mixed Optimization -- RFO/linear search
 Second derivative matrix not updated -- first step.
 ITU=  0
     Eigenvalues ---    0.01853   0.01931   0.01986   0.02012   0.02070
     Eigenvalues ---    0.02113   0.02148   0.02153   0.02172   0.02209
     Eigenvalues ---    0.02233   0.02248   0.02338   0.16000   0.16000
     Eigenvalues ---    0.16000   0.16000   0.16000   0.16000   0.16000
     Eigenvalues ---    0.22000   0.22188   0.22662   0.24011   0.24651
     Eigenvalues ---    0.35712   0.35717   0.35783   0.35790   0.36420
     Eigenvalues ---    0.36427   0.37009   0.38432   0.42633   0.43465
     Eigenvalues ---    0.45769   0.46692   0.47162   0.47468   0.47567
     Eigenvalues ---    0.48125   0.50955
 RFO step:  Lambda=-9.81257016D-03 EMin= 1.85287394D-02
 Linear search not attempted -- first point.
 Iteration  1 RMS(Cart)=  0.02258907 RMS(Int)=  0.00011049
 Iteration  2 RMS(Cart)=  0.00018053 RMS(Int)=  0.00001448
 Iteration  3 RMS(Cart)=  0.00000002 RMS(Int)=  0.00001448
 Variable       Old X    -DE/DX   Delta X   Delta X   Delta X     New X
                                 (Linear)    (Quad)   (Total)
    R1        2.65547   0.02442   0.00000   0.05396   0.05394   2.70941
    R2        2.61291   0.03218   0.00000   0.06525   0.06524   2.67816
    R3        2.04421   0.00226   0.00000   0.00614   0.00614   2.05036
    R4        2.61557   0.02358   0.00000   0.04797   0.04795   2.66352
    R5        2.04411   0.00225   0.00000   0.00611   0.00611   2.05022
    R6        2.63373   0.01929   0.00000   0.04008   0.04009   2.67382
    R7        2.04534   0.00195   0.00000   0.00531   0.00531   2.05064
    R8        2.68058   0.03033   0.00000   0.06831   0.06830   2.74888
    R9        2.60126  -0.00286   0.00000  -0.00601  -0.00602   2.59524
   R10        2.64771   0.01276   0.00000   0.02731   0.02733   2.67504
   R11        2.70839  -0.01008   0.00000  -0.02415  -0.02416   2.68423
   R12        2.04526   0.00174   0.00000   0.00474   0.00474   2.05000
   R13        2.60573   0.00835   0.00000   0.01682   0.01685   2.62257
   R14        1.89542   0.00314   0.00000   0.00652   0.00652   1.90194
   R15        2.57870   0.02175   0.00000   0.04154   0.04156   2.62026
   R16        2.03419   0.00279   0.00000   0.00745   0.00745   2.04164
   R17        2.03430   0.00276   0.00000   0.00739   0.00739   2.04169
    A1        2.11420   0.00260   0.00000   0.01349   0.01347   2.12767
    A2        2.07986  -0.00150   0.00000  -0.00792  -0.00790   2.07196
    A3        2.08912  -0.00110   0.00000  -0.00558  -0.00556   2.08356
    A4        2.11523   0.00127   0.00000   0.00728   0.00723   2.12246
    A5        2.08365  -0.00061   0.00000  -0.00348  -0.00346   2.08019
    A6        2.08430  -0.00066   0.00000  -0.00379  -0.00377   2.08053
    A7        2.05144  -0.00493   0.00000  -0.02160  -0.02163   2.02981
    A8        2.11267   0.00253   0.00000   0.01122   0.01123   2.12389
    A9        2.11908   0.00239   0.00000   0.01039   0.01040   2.12948
   A10        2.13389   0.00390   0.00000   0.01452   0.01455   2.14844
   A11        2.27895  -0.00361   0.00000  -0.01213  -0.01213   2.26682
   A12        1.87035  -0.00029   0.00000  -0.00239  -0.00243   1.86792
   A13        2.07274   0.00282   0.00000   0.01028   0.01033   2.08307
   A14        1.86517  -0.00163   0.00000  -0.00683  -0.00687   1.85830
   A15        2.34527  -0.00119   0.00000  -0.00346  -0.00346   2.34181
   A16        2.07887  -0.00566   0.00000  -0.02397  -0.02396   2.05491
   A17        2.10306   0.00327   0.00000   0.01457   0.01456   2.11762
   A18        2.10125   0.00239   0.00000   0.00940   0.00940   2.11065
   A19        1.90743   0.00166   0.00000   0.00633   0.00634   1.91377
   A20        2.19023  -0.00090   0.00000  -0.00357  -0.00358   2.18665
   A21        2.18553  -0.00076   0.00000  -0.00276  -0.00276   2.18277
   A22        1.86968   0.00234   0.00000   0.01097   0.01100   1.88068
   A23        2.21717  -0.00143   0.00000  -0.00704  -0.00705   2.21012
   A24        2.19633  -0.00091   0.00000  -0.00394  -0.00395   2.19238
   A25        1.91215  -0.00208   0.00000  -0.00808  -0.00804   1.90411
   A26        2.10250   0.00088   0.00000   0.00310   0.00308   2.10558
   A27        2.26854   0.00120   0.00000   0.00498   0.00496   2.27350
    D1       -0.00001  -0.00001   0.00000  -0.00029  -0.00029  -0.00031
    D2       -3.14156  -0.00001   0.00000  -0.00020  -0.00020   3.14142
    D3        3.14152  -0.00000   0.00000  -0.00014  -0.00014   3.14138
    D4       -0.00002  -0.00000   0.00000  -0.00005  -0.00005  -0.00007
    D5       -0.00003   0.00001   0.00000   0.00034   0.00034   0.00030
    D6        3.14153   0.00000   0.00000   0.00013   0.00013  -3.14153
    D7       -3.14157   0.00001   0.00000   0.00018   0.00018  -3.14139
    D8       -0.00001  -0.00000   0.00000  -0.00003  -0.00003  -0.00003
    D9        0.00003   0.00000   0.00000   0.00003   0.00003   0.00007
   D10       -3.14154   0.00000   0.00000   0.00006   0.00006  -3.14148
   D11        3.14158  -0.00000   0.00000  -0.00006  -0.00006   3.14152
   D12        0.00001  -0.00000   0.00000  -0.00003  -0.00003  -0.00003
   D13       -0.00001   0.00000   0.00000   0.00017   0.00017   0.00016
   D14       -3.14144  -0.00001   0.00000  -0.00029  -0.00029   3.14146
   D15        3.14156   0.00000   0.00000   0.00015   0.00015  -3.14148
   D16        0.00013  -0.00001   0.00000  -0.00032  -0.00032  -0.00018
   D17       -0.00004  -0.00000   0.00000  -0.00012  -0.00013  -0.00016
   D18       -3.14151  -0.00000   0.00000  -0.00017  -0.00017   3.14150
   D19        3.14143   0.00001   0.00000   0.00024   0.00025  -3.14151
   D20       -0.00005   0.00001   0.00000   0.00020   0.00020   0.00015
   D21       -3.14124  -0.00000   0.00000  -0.00013  -0.00013  -3.14138
   D22       -0.00113   0.00000   0.00000   0.00007   0.00007  -0.00107
   D23        0.00049  -0.00002   0.00000  -0.00054  -0.00054  -0.00005
   D24        3.14060  -0.00001   0.00000  -0.00034  -0.00034   3.14026
   D25        0.00005  -0.00000   0.00000  -0.00013  -0.00013  -0.00008
   D26       -3.14151   0.00000   0.00000   0.00008   0.00008  -3.14143
   D27        3.14150  -0.00000   0.00000  -0.00007  -0.00007   3.14143
   D28       -0.00007   0.00000   0.00000   0.00014   0.00014   0.00007
   D29       -0.00041   0.00001   0.00000   0.00022   0.00022  -0.00019
   D30        3.14139   0.00000   0.00000   0.00006   0.00006   3.14145
   D31        3.14132   0.00001   0.00000   0.00016   0.00016   3.14148
   D32       -0.00006   0.00000   0.00000   0.00001   0.00001  -0.00006
   D33       -0.00077   0.00002   0.00000   0.00070   0.00070  -0.00008
   D34        3.14133   0.00001   0.00000   0.00024   0.00024   3.14157
   D35       -3.14089   0.00002   0.00000   0.00050   0.00050  -3.14039
   D36        0.00121   0.00000   0.00000   0.00004   0.00004   0.00125
   D37        0.00072  -0.00002   0.00000  -0.00055  -0.00055   0.00017
   D38       -3.14144  -0.00000   0.00000  -0.00004  -0.00004  -3.14148
   D39       -3.14107  -0.00001   0.00000  -0.00041  -0.00040  -3.14148
   D40       -0.00005   0.00000   0.00000   0.00011   0.00011   0.00006
         Item               Value     Threshold  Converged?
 Maximum Force            0.032177     0.000450     NO 
 RMS     Force            0.007314     0.000300     NO 
 Maximum Displacement     0.090095     0.001800     NO 
 RMS     Displacement     0.022587     0.001200     NO 
 Predicted change in Energy=-5.015222D-03
 GradGradGradGradGradGradGradGradGradGradGradGradGradGradGradGradGradGrad

                          Input orientation:                          
 ---------------------------------------------------------------------
 Center     Atomic      Atomic             Coordinates (Angstroms)
 Number     Number       Type             X           Y           Z
 ---------------------------------------------------------------------
      1          6           0       -2.166860    0.700569   -0.000014
      2          6           0       -2.144070   -0.733008    0.000080
      3          6           0       -0.932097   -1.452552   -0.000037
      4          6           0        0.254519   -0.681868   -0.000169
      5          6           0        0.256895    0.772775    0.000013
      6          6           0       -0.975824    1.468647    0.000139
      7          7           0        1.567027   -1.086090   -0.000157
      8          6           0        1.619681    1.173332   -0.000073
      9          6           0        2.397741    0.025627   -0.000040
     10          1           0        1.880852   -2.042376    0.000830
     11          1           0        1.993646    2.186936   -0.000104
     12          1           0        3.471984   -0.089695    0.000011
     13          1           0       -3.082728   -1.277064    0.000116
     14          1           0       -0.913296   -2.537543   -0.000069
     15          1           0       -3.126601    1.206658   -0.000116
     16          1           0       -1.003965    2.553097    0.000127
 ---------------------------------------------------------------------
                    Distance matrix (angstroms):
                    1          2          3          4          5
     1  C    0.000000
     2  C    1.433758   0.000000
     3  C    2.482049   1.409476   0.000000
     4  C    2.788227   2.399134   1.414924   0.000000
     5  C    2.424830   2.834081   2.523050   1.454645   0.000000
     6  C    1.417220   2.492405   2.921526   2.477591   1.415568
     7  N    4.139331   3.727856   2.525849   1.373343   2.274165
     8  C    3.815940   4.218999   3.661534   2.303352   1.420433
     9  C    4.614231   4.604734   3.643190   2.256978   2.267477
    10  H    4.889552   4.232546   2.874121   2.120364   3.249971
    11  H    4.418042   5.064264   4.669673   3.354788   2.239678
    12  H    5.693952   5.652780   4.610131   3.271506   3.328762
    13  H    2.179414   1.084931   2.157779   3.389908   3.918535
    14  H    3.472289   2.184296   1.085154   2.192560   3.511061
    15  H    1.085002   2.174321   3.447788   3.872790   3.411202
    16  H    2.187278   3.478265   4.006294   3.471136   2.181586
                    6          7          8          9         10
     6  C    0.000000
     7  N    3.604549   0.000000
     8  C    2.612251   2.260035   0.000000
     9  C    3.669229   1.387805   1.386579   0.000000
    10  H    4.526354   1.006464   3.226296   2.131622   0.000000
    11  H    3.055109   3.300713   1.080391   2.198761   4.230816
    12  H    4.712900   2.149806   2.241934   1.080416   2.518862
    13  H    3.460921   4.653675   5.302554   5.633164   5.022233
    14  H    4.006678   2.873798   4.492946   4.187219   2.837684
    15  H    2.166675   5.223680   4.746398   5.649175   5.969155
    16  H    1.084815   4.455748   2.964333   4.237890   5.425914
                   11         12         13         14         15
    11  H    0.000000
    12  H    2.714505   0.000000
    13  H    6.145638   6.661388   0.000000
    14  H    5.547163   5.022215   2.509032   0.000000
    15  H    5.213240   6.724720   2.484110   4.349455   0.000000
    16  H    3.019892   5.197930   4.357911   5.091447   2.513659
                   16
    16  H    0.000000
 Stoichiometry    C8H7N
 Framework group  C1[X(C8H7N)]
 Deg. of freedom    42
 Full point group                 C1      NOp   1
 Largest Abelian subgroup         C1      NOp   1
 Largest concise Abelian subgroup C1      NOp   1
                         Standard orientation:                         
 ---------------------------------------------------------------------
 Center     Atomic      Atomic             Coordinates (Angstroms)
 Number     Number       Type             X           Y           Z
 ---------------------------------------------------------------------
      1          6           0       -2.167802    0.699479    0.000000
      2          6           0       -2.144701   -0.734093    0.000095
      3          6           0       -0.932572   -1.453375   -0.000022
      4          6           0        0.253877   -0.682434   -0.000154
      5          6           0        0.255938    0.772209    0.000027
      6          6           0       -0.976932    1.467814    0.000154
      7          7           0        1.566472   -1.086373   -0.000143
      8          6           0        1.618637    1.173061   -0.000058
      9          6           0        2.396945    0.025525   -0.000026
     10          1           0        1.880504   -2.042590    0.000845
     11          1           0        1.992382    2.186746   -0.000089
     12          1           0        3.471214   -0.089565    0.000026
     13          1           0       -3.083241   -1.278353    0.000131
     14          1           0       -0.913537   -2.538362   -0.000054
     15          1           0       -3.127652    1.205360   -0.000101
     16          1           0       -1.005308    2.552259    0.000142
 ---------------------------------------------------------------------
 Rotational constants (GHZ):           3.7565495           1.6261358           1.1348722
 Standard basis: 6-31+G(d) (6D, 7F)
 There are   185 symmetry adapted cartesian basis functions of A   symmetry.
 There are   185 symmetry adapted basis functions of A   symmetry.
   185 basis functions,   316 primitive gaussians,   185 cartesian basis functions
    31 alpha electrons       31 beta electrons
       nuclear repulsion energy       397.0532605721 Hartrees.
 NAtoms=   16 NActive=   16 NUniq=   16 SFac= 1.00D+00 NAtFMM=   60 NAOKFM=F Big=F
 Integral buffers will be    131072 words long.
 Regular integral format.
 Two-electron integral symmetry is turned on.
 One-electron integrals computed using PRISM.
 NBasis=   185 RedAO= T EigKep=  1.46D-06  NBF=   185
 NBsUse=   185 1.00D-06 EigRej= -1.00D+00 NBFU=   185
 Initial guess from the checkpoint file:  "FuncsMPW1PW91-V-2nd.chk"
 B after Tr=     0.000000    0.000000   -0.000000
         Rot=    1.000000   -0.000004   -0.000003   -0.000073 Ang=  -0.01 deg.
 ExpMin= 4.38D-02 ExpMax= 4.17D+03 ExpMxC= 6.27D+02 IAcc=3 IRadAn=         5 AccDes= 0.00D+00
 Harris functional with IExCor=  908 and IRadAn=       5 diagonalized for initial guess.
 HarFok:  IExCor=  908 AccDes= 0.00D+00 IRadAn=         5 IDoV= 1 UseB2=F ITyADJ=14
 ICtDFT=  3500011 ScaDFX=  1.000000  1.000000  1.000000  1.000000
 FoFCou: FMM=F IPFlag=           0 FMFlag=      100000 FMFlg1=           0
         NFxFlg=           0 DoJE=T BraDBF=F KetDBF=T FulRan=T
         wScrn=  0.000000 ICntrl=       500 IOpCl=  0 I1Cent=   200000004 NGrid=           0
         NMat0=    1 NMatS0=      1 NMatT0=    0 NMatD0=    1 NMtDS0=    0 NMtDT0=    0
 Petite list used in FoFCou.
 Keep R1 ints in memory in canonical form, NReq=152071459.
 Requested convergence on RMS density matrix=1.00D-08 within 128 cycles.
 Requested convergence on MAX density matrix=1.00D-06.
 Requested convergence on             energy=1.00D-06.
 No special actions if energy rises.
 SCF Done:  E(RmPW1PW91) =  -363.743308816     A.U. after   12 cycles
            NFock= 12  Conv=0.58D-08     -V/T= 2.0104
 DoSCS=F DFT=T ScalE2(SS,OS)=  1.000000  1.000000
 ExpMin= 4.38D-02 ExpMax= 4.17D+03 ExpMxC= 6.27D+02 IAcc=3 IRadAn=         5 AccDes= 0.00D+00
 HarFok:  IExCor=  205 AccDes= 0.00D+00 IRadAn=         5 IDoV=-2 UseB2=F ITyADJ=14
 ICtDFT= 12500011 ScaDFX=  1.000000  1.000000  1.000000  1.000000
 Range of M.O.s used for correlation:    10   185
 NBasis=   185 NAE=    31 NBE=    31 NFC=     9 NFV=     0
 NROrb=    176 NOA=    22 NOB=    22 NVA=   154 NVB=   154

 **** Warning!!: The largest alpha MO coefficient is  0.17113763D+03

 Orbital symmetries:
       Occupied  (A) (A) (A) (A) (A) (A) (A) (A) (A) (A) (A) (A)
                 (A) (A) (A) (A) (A) (A) (A) (A) (A) (A) (A) (A)
                 (A) (A) (A) (A) (A) (A) (A)
       Virtual   (A) (A) (A) (A) (A) (A) (A) (A) (A) (A) (A) (A)
                 (A) (A) (A) (A) (A) (A) (A) (A) (A) (A) (A) (A)
                 (A) (A) (A) (A) (A) (A) (A) (A) (A) (A) (A) (A)
                 (A) (A) (A) (A) (A) (A) (A) (A) (A) (A) (A) (A)
                 (A) (A) (A) (A) (A) (A) (A) (A) (A) (A) (A) (A)
                 (A) (A) (A) (A) (A) (A) (A) (A) (A) (A) (A) (A)
                 (A) (A) (A) (A) (A) (A) (A) (A) (A) (A) (A) (A)
                 (A) (A) (A) (A) (A) (A) (A) (A) (A) (A) (A) (A)
                 (A) (A) (A) (A) (A) (A) (A) (A) (A) (A) (A) (A)
                 (A) (A) (A) (A) (A) (A) (A) (A) (A) (A) (A) (A)
                 (A) (A) (A) (A) (A) (A) (A) (A) (A) (A) (A) (A)
                 (A) (A) (A) (A) (A) (A) (A) (A) (A) (A) (A) (A)
                 (A) (A) (A) (A) (A) (A) (A) (A) (A) (A)
 Generating guess from densities on rwf.
 Convergence on wavefunction:    0.000001000000000
 Iteration     1 Dimension    12 NMult     0 NNew     12
 CISAX will form    12 AO SS matrices at one time.
 Iteration     2 Dimension    24 NMult    12 NNew     12
 Iteration     3 Dimension    36 NMult    24 NNew     12
 Iteration     4 Dimension    48 NMult    36 NNew     12
 Iteration     5 Dimension    60 NMult    48 NNew     12
 Iteration     6 Dimension    72 NMult    60 NNew     12
 Iteration     7 Dimension    84 NMult    72 NNew     12
 Iteration     8 Dimension    96 NMult    84 NNew     12
 Iteration     9 Dimension   108 NMult    96 NNew     12
 Iteration    10 Dimension   112 NMult   108 NNew      4
 ***********************************************************************
 Excited states from <AA,BB:AA,BB> singles matrix:
 ***********************************************************************
 
 Ground to excited state transition densities written to RWF  633
 Ground to excited state transition electric dipole moments (Au):
       state          X           Y           Z        Dip. S.      Osc.
         1        -0.6442      0.6340     -0.0000      0.8169      0.0945
         2        -0.5466     -0.1953     -0.0001      0.3369      0.0394
         3         0.0012     -0.0001     -0.1381      0.0191      0.0023
         4        -0.0005      0.0002     -0.1099      0.0121      0.0016
         5         0.0000     -0.0001     -0.0095      0.0001      0.0000
         6        -0.0000      0.0000      0.0959      0.0092      0.0013
 Ground to excited state transition velocity dipole moments (Au):
       state          X           Y           Z        Dip. S.      Osc.
         1         0.1023     -0.1182     -0.0000      0.0244      0.0939
         2         0.0914      0.0359      0.0000      0.0096      0.0366
         3        -0.0002      0.0000      0.0170      0.0003      0.0011
         4         0.0001     -0.0000      0.0244      0.0006      0.0020
         5        -0.0000      0.0000      0.0030      0.0000      0.0000
         6         0.0000      0.0000     -0.0189      0.0004      0.0011
 Ground to excited state transition magnetic dipole moments (Au):
       state          X           Y           Z
         1         0.0002     -0.0000      0.1752
         2        -0.0000     -0.0002     -0.0662
         3         0.1188     -0.0840      0.0002
         4         0.0294     -0.2216     -0.0000
         5         0.2706     -0.2142      0.0001
         6         0.1492      0.3111      0.0002
 Ground to excited state transition velocity quadrupole moments (Au):
       state          XX          YY          ZZ          XY          XZ          YZ
         1         0.2160     -0.1344      0.0143      0.0458      0.0001     -0.0000
         2         0.0442     -0.0980      0.0192     -0.0113      0.0001     -0.0000
         3        -0.0002      0.0003      0.0001      0.0000      0.0691      0.0383
         4        -0.0000     -0.0001     -0.0000      0.0001      0.1408     -0.0227
         5         0.0000     -0.0001      0.0000     -0.0000      0.2371      0.2416
         6         0.0000     -0.0000      0.0001      0.0001     -0.2650      0.0491
 <0|del|b> * <b|rxdel|0> + <0|del|b> * <b|delr+rdel|0>
 Rotatory Strengths (R) in cgs (10**-40 erg-esu-cm/Gauss)
       state          XX          YY          ZZ    R(velocity)    E-M Angle
         1         0.0176      0.0277      0.0269      0.0241       90.00
         2        -0.0201     -0.0113     -0.0062     -0.0125       90.00
         3        -0.0003     -0.0533     -0.0310     -0.0282       90.00
         4         0.0265     -0.0016      0.0147      0.0132       90.00
         5        -0.0167      0.0002      0.0008     -0.0052       90.00
         6        -0.0082     -0.0007      0.0022     -0.0022       90.00
 1/2[<0|r|b>*<b|rxdel|0> + (<0|rxdel|b>*<b|r|0>)*]
 Rotatory Strengths (R) in cgs (10**-40 erg-esu-cm/Gauss)
       state          XX          YY          ZZ     R(length)
         1         0.0715      0.0099      0.0034      0.0282
         2        -0.0083     -0.0232     -0.0065     -0.0127
         3        -0.0980     -0.0063      0.0207     -0.0279
         4         0.0097      0.0287     -0.0007      0.0126
         5        -0.0021     -0.0162      0.0005     -0.0059
         6         0.0035     -0.0056     -0.0167     -0.0063
  1/2[<0|del|b>*<b|r|0> + (<0|r|b>*<b|del|0>)*] (Au)
       state          X           Y           Z        Dip. S.   Osc.(frdel)
         1        -0.0659     -0.0749      0.0000      0.1409      0.0939
         2        -0.0499     -0.0070     -0.0000      0.0569      0.0380
         3        -0.0000     -0.0000     -0.0023      0.0023      0.0016
         4        -0.0000     -0.0000     -0.0027      0.0027      0.0018
         5        -0.0000     -0.0000     -0.0000      0.0000      0.0000
         6        -0.0000      0.0000     -0.0018      0.0018      0.0012

 Excitation energies and oscillator strengths:
 
 Excited State   1:      Singlet-A      4.7226 eV  262.54 nm  f=0.0945  <S**2>=0.000
      30 -> 32        -0.10789
      30 -> 34         0.16865
      31 -> 32         0.66591
 
 Excited State   2:      Singlet-A      4.7721 eV  259.81 nm  f=0.0394  <S**2>=0.000
      30 -> 32         0.58249
      31 -> 34        -0.38108
 This state for optimization and/or second-order correction.
 Total Energy, E(TD-HF/TD-DFT) =  -363.567938661    
 Copying the excited state density for this state as the 1-particle RhoCI density.
 
 Excited State   3:      Singlet-A      4.9791 eV  249.01 nm  f=0.0023  <S**2>=0.000
      31 -> 33         0.70338
 
 Excited State   4:      Singlet-A      5.3859 eV  230.20 nm  f=0.0016  <S**2>=0.000
      30 -> 33         0.69762
 
 Excited State   5:      Singlet-A      5.5903 eV  221.78 nm  f=0.0000  <S**2>=0.000
      31 -> 35         0.69445
 
 Excited State   6:      Singlet-A      5.6838 eV  218.14 nm  f=0.0013  <S**2>=0.000
      31 -> 36         0.69487
 SavETr:  write IOETrn=   770 NScale= 10 NData=  16 NLR=1 NState=    6 LETran=     118.
          IDoAtm=1111111111111111
          Differentiating once with respect to electric field.
                with respect to dipole field.
          Differentiating once with respect to nuclear coordinates.
 Keep R1 ints in memory in canonical form, NReq=152083851.
          There are     1 degrees of freedom in the 1st order CPHF.  IDoFFX=0 NUNeed=     1.
 LinEq1:  Iter=  0 NonCon=     1 RMS=4.97D-03 Max=1.32D-01 NDo=     1
 AX will form     1 AO Fock derivatives at one time.
 LinEq1:  Iter=  1 NonCon=     1 RMS=1.88D-03 Max=5.64D-02 NDo=     1
 LinEq1:  Iter=  2 NonCon=     1 RMS=1.68D-03 Max=6.32D-02 NDo=     1
 LinEq1:  Iter=  3 NonCon=     1 RMS=6.67D-04 Max=1.50D-02 NDo=     1
 LinEq1:  Iter=  4 NonCon=     1 RMS=3.18D-04 Max=1.09D-02 NDo=     1
 LinEq1:  Iter=  5 NonCon=     1 RMS=1.88D-04 Max=4.35D-03 NDo=     1
 LinEq1:  Iter=  6 NonCon=     1 RMS=1.09D-04 Max=2.04D-03 NDo=     1
 LinEq1:  Iter=  7 NonCon=     1 RMS=4.70D-05 Max=1.02D-03 NDo=     1
 LinEq1:  Iter=  8 NonCon=     1 RMS=3.24D-05 Max=6.97D-04 NDo=     1
 LinEq1:  Iter=  9 NonCon=     1 RMS=1.23D-05 Max=2.47D-04 NDo=     1
 LinEq1:  Iter= 10 NonCon=     1 RMS=9.37D-06 Max=2.36D-04 NDo=     1
 LinEq1:  Iter= 11 NonCon=     1 RMS=2.49D-06 Max=6.26D-05 NDo=     1
 LinEq1:  Iter= 12 NonCon=     1 RMS=1.47D-06 Max=2.36D-05 NDo=     1
 LinEq1:  Iter= 13 NonCon=     1 RMS=6.49D-07 Max=1.37D-05 NDo=     1
 LinEq1:  Iter= 14 NonCon=     1 RMS=2.23D-07 Max=3.61D-06 NDo=     1
 LinEq1:  Iter= 15 NonCon=     1 RMS=1.37D-07 Max=2.50D-06 NDo=     1
 LinEq1:  Iter= 16 NonCon=     1 RMS=3.17D-08 Max=5.53D-07 NDo=     1
 LinEq1:  Iter= 17 NonCon=     1 RMS=1.66D-08 Max=3.55D-07 NDo=     1
 LinEq1:  Iter= 18 NonCon=     1 RMS=5.92D-09 Max=6.95D-08 NDo=     1
 LinEq1:  Iter= 19 NonCon=     1 RMS=1.24D-09 Max=2.06D-08 NDo=     1
 LinEq1:  Iter= 20 NonCon=     1 RMS=1.88D-10 Max=3.04D-09 NDo=     1
 LinEq1:  Iter= 21 NonCon=     0 RMS=3.55D-11 Max=4.32D-10 NDo=     1
 Linear equations converged to 1.000D-10 1.000D-09 after    21 iterations.
 End of Minotr F.D. properties file   721 does not exist.
 End of Minotr F.D. properties file   722 does not exist.
 End of Minotr F.D. properties file   788 does not exist.
 Calling FoFJK, ICntrl=  10005127 FMM=F ISym2X=0 I1Cent= 0 IOpClX= 0 NMat=1 NMatS=1 NMatT=0.
 ***** Axes restored to original set *****
 -------------------------------------------------------------------
 Center     Atomic                   Forces (Hartrees/Bohr)
 Number     Number              X              Y              Z
 -------------------------------------------------------------------
      1        6           0.000166202   -0.004139175    0.000007742
      2        6          -0.000436495    0.000962802   -0.000005420
      3        6           0.000106808   -0.000291352    0.000002296
      4        6           0.002534547   -0.006834470    0.000017643
      5        6           0.000712626    0.004051271   -0.000018256
      6        6           0.004191876    0.000427676   -0.000006314
      7        7          -0.012226511    0.003382764   -0.000000926
      8        6          -0.001126482   -0.004294808    0.000005140
      9        6           0.006834412    0.006455132    0.000007750
     10        1          -0.000173913   -0.000168326   -0.000007785
     11        1           0.000504959   -0.000106976    0.000000195
     12        1          -0.000596602    0.000054878   -0.000002226
     13        1           0.000004229    0.000887249    0.000001040
     14        1          -0.000061122    0.000820960   -0.000001702
     15        1           0.000042125   -0.000293629   -0.000000919
     16        1          -0.000476660   -0.000913996    0.000001741
 -------------------------------------------------------------------
 Cartesian Forces:  Max     0.012226511 RMS     0.002808124

 GradGradGradGradGradGradGradGradGradGradGradGradGradGradGradGradGradGrad
 Berny optimization.
 Using GEDIIS/GDIIS optimizer.
 FormGI is forming the generalized inverse of G from B-inverse, IUseBI=4.
 Internal  Forces:  Max     0.007397132 RMS     0.001491460
 Search for a local minimum.
 Step number   2 out of a maximum of   94
 All quantities printed in internal units (Hartrees-Bohrs-Radians)
 Mixed Optimization -- RFO/linear search
 Update second derivatives using D2CorX and points    1    2
 DE= -4.84D-03 DEPred=-5.02D-03 R= 9.64D-01
 TightC=F SS=  1.41D+00  RLast= 1.49D-01 DXNew= 5.0454D-01 4.4701D-01
 Trust test= 9.64D-01 RLast= 1.49D-01 DXMaxT set to 4.47D-01
 ITU=  1  0
 Use linear search instead of GDIIS.
     Eigenvalues ---    0.01853   0.01932   0.01986   0.02011   0.02071
     Eigenvalues ---    0.02113   0.02148   0.02153   0.02171   0.02209
     Eigenvalues ---    0.02234   0.02248   0.02339   0.15985   0.16000
     Eigenvalues ---    0.16000   0.16000   0.16000   0.16000   0.16009
     Eigenvalues ---    0.20925   0.22019   0.22885   0.24054   0.24636
     Eigenvalues ---    0.35712   0.35715   0.35785   0.35817   0.36410
     Eigenvalues ---    0.36450   0.36981   0.38196   0.42275   0.42963
     Eigenvalues ---    0.44362   0.46593   0.46885   0.47168   0.47604
     Eigenvalues ---    0.48505   0.58455
 RFO step:  Lambda=-5.27649350D-04 EMin= 1.85279954D-02
 Quartic linear search produced a step of  0.00422.
 Iteration  1 RMS(Cart)=  0.00598369 RMS(Int)=  0.00002190
 Iteration  2 RMS(Cart)=  0.00002730 RMS(Int)=  0.00000816
 Iteration  3 RMS(Cart)=  0.00000000 RMS(Int)=  0.00000816
 Variable       Old X    -DE/DX   Delta X   Delta X   Delta X     New X
                                 (Linear)    (Quad)   (Total)
    R1        2.70941  -0.00280   0.00023  -0.00373  -0.00350   2.70591
    R2        2.67816   0.00179   0.00028   0.00681   0.00709   2.68524
    R3        2.05036  -0.00017   0.00003  -0.00019  -0.00016   2.05020
    R4        2.66352  -0.00119   0.00020  -0.00013   0.00007   2.66360
    R5        2.05022  -0.00045   0.00003  -0.00096  -0.00093   2.04929
    R6        2.67382  -0.00052   0.00017   0.00095   0.00112   2.67494
    R7        2.05064  -0.00082   0.00002  -0.00205  -0.00202   2.04862
    R8        2.74888   0.00184   0.00029   0.00746   0.00773   2.75661
    R9        2.59524  -0.00740  -0.00003  -0.01555  -0.01557   2.57967
   R10        2.67504  -0.00336   0.00012  -0.00606  -0.00595   2.66909
   R11        2.68423  -0.00070  -0.00010  -0.00272  -0.00284   2.68139
   R12        2.05000  -0.00090   0.00002  -0.00230  -0.00228   2.04773
   R13        2.62257   0.00553   0.00007   0.01218   0.01227   2.63484
   R14        1.90194   0.00011   0.00003   0.00055   0.00057   1.90251
   R15        2.62026  -0.00363   0.00018  -0.00457  -0.00438   2.61587
   R16        2.04164   0.00007   0.00003   0.00057   0.00060   2.04225
   R17        2.04169  -0.00060   0.00003  -0.00128  -0.00125   2.04044
    A1        2.12767   0.00176   0.00006   0.00810   0.00816   2.13583
    A2        2.07196  -0.00113  -0.00003  -0.00565  -0.00568   2.06627
    A3        2.08356  -0.00063  -0.00002  -0.00245  -0.00248   2.08108
    A4        2.12246  -0.00081   0.00003  -0.00373  -0.00370   2.11876
    A5        2.08019  -0.00038  -0.00001  -0.00304  -0.00305   2.07714
    A6        2.08053   0.00119  -0.00002   0.00677   0.00675   2.08728
    A7        2.02981  -0.00070  -0.00009  -0.00423  -0.00433   2.02548
    A8        2.12389   0.00030   0.00005   0.00183   0.00189   2.12578
    A9        2.12948   0.00040   0.00004   0.00240   0.00244   2.13192
   A10        2.14844   0.00176   0.00006   0.00869   0.00876   2.15720
   A11        2.26682   0.00069  -0.00005   0.00267   0.00264   2.26946
   A12        1.86792  -0.00245  -0.00001  -0.01137  -0.01139   1.85653
   A13        2.08307  -0.00180   0.00004  -0.00642  -0.00636   2.07671
   A14        1.85830   0.00130  -0.00003   0.00444   0.00438   1.86269
   A15        2.34181   0.00050  -0.00001   0.00198   0.00198   2.34379
   A16        2.05491  -0.00020  -0.00010  -0.00242  -0.00252   2.05240
   A17        2.11762  -0.00041   0.00006  -0.00187  -0.00181   2.11581
   A18        2.11065   0.00061   0.00004   0.00429   0.00433   2.11498
   A19        1.91377   0.00360   0.00003   0.01607   0.01611   1.92987
   A20        2.18665  -0.00201  -0.00002  -0.00935  -0.00937   2.17728
   A21        2.18277  -0.00160  -0.00001  -0.00672  -0.00674   2.17603
   A22        1.88068   0.00065   0.00005   0.00455   0.00460   1.88528
   A23        2.21012   0.00020  -0.00003   0.00091   0.00088   2.21100
   A24        2.19238  -0.00085  -0.00002  -0.00546  -0.00548   2.18690
   A25        1.90411  -0.00311  -0.00003  -0.01370  -0.01370   1.89041
   A26        2.10558   0.00155   0.00001   0.00674   0.00674   2.11232
   A27        2.27350   0.00156   0.00002   0.00695   0.00696   2.28046
    D1       -0.00031   0.00000  -0.00000   0.00008   0.00008  -0.00023
    D2        3.14142   0.00000  -0.00000   0.00004   0.00004   3.14147
    D3        3.14138   0.00000  -0.00000   0.00001   0.00001   3.14140
    D4       -0.00007  -0.00000  -0.00000  -0.00002  -0.00002  -0.00009
    D5        0.00030  -0.00000   0.00000  -0.00008  -0.00008   0.00023
    D6       -3.14153   0.00000   0.00000   0.00002   0.00002  -3.14150
    D7       -3.14139  -0.00000   0.00000  -0.00001  -0.00001  -3.14140
    D8       -0.00003   0.00000  -0.00000   0.00009   0.00009   0.00006
    D9        0.00007  -0.00000   0.00000  -0.00000  -0.00000   0.00006
   D10       -3.14148   0.00000   0.00000   0.00004   0.00004  -3.14144
   D11        3.14152   0.00000  -0.00000   0.00003   0.00003   3.14155
   D12       -0.00003   0.00000  -0.00000   0.00007   0.00007   0.00005
   D13        0.00016  -0.00000   0.00000  -0.00007  -0.00007   0.00009
   D14        3.14146   0.00000  -0.00000   0.00013   0.00013   3.14159
   D15       -3.14148  -0.00000   0.00000  -0.00011  -0.00011  -3.14159
   D16       -0.00018   0.00000  -0.00000   0.00009   0.00009  -0.00010
   D17       -0.00016   0.00000  -0.00000   0.00007   0.00007  -0.00009
   D18        3.14150  -0.00000  -0.00000  -0.00006  -0.00006   3.14143
   D19       -3.14151  -0.00000   0.00000  -0.00009  -0.00009   3.14158
   D20        0.00015  -0.00000   0.00000  -0.00023  -0.00023  -0.00008
   D21       -3.14138   0.00000  -0.00000   0.00002   0.00002  -3.14136
   D22       -0.00107   0.00000   0.00000   0.00010   0.00010  -0.00097
   D23       -0.00005   0.00000  -0.00000   0.00020   0.00020   0.00015
   D24        3.14026   0.00001  -0.00000   0.00028   0.00028   3.14054
   D25       -0.00008   0.00000  -0.00000   0.00001   0.00001  -0.00007
   D26       -3.14143  -0.00000   0.00000  -0.00009  -0.00009  -3.14153
   D27        3.14143   0.00000  -0.00000   0.00019   0.00019  -3.14157
   D28        0.00007   0.00000   0.00000   0.00009   0.00009   0.00016
   D29       -0.00019   0.00000   0.00000   0.00017   0.00017  -0.00002
   D30        3.14145   0.00000   0.00000   0.00008   0.00008   3.14154
   D31        3.14148   0.00000   0.00000   0.00001   0.00001   3.14149
   D32       -0.00006  -0.00000   0.00000  -0.00008  -0.00008  -0.00014
   D33       -0.00008  -0.00000   0.00000  -0.00009  -0.00009  -0.00017
   D34        3.14157  -0.00000   0.00000  -0.00001  -0.00001   3.14156
   D35       -3.14039  -0.00000   0.00000  -0.00017  -0.00017  -3.14056
   D36        0.00125  -0.00000   0.00000  -0.00009  -0.00009   0.00116
   D37        0.00017  -0.00000  -0.00000  -0.00006  -0.00006   0.00011
   D38       -3.14148  -0.00000  -0.00000  -0.00015  -0.00015   3.14156
   D39       -3.14148   0.00000  -0.00000   0.00003   0.00003  -3.14145
   D40        0.00006  -0.00000   0.00000  -0.00006  -0.00006   0.00000
         Item               Value     Threshold  Converged?
 Maximum Force            0.007397     0.000450     NO 
 RMS     Force            0.001491     0.000300     NO 
 Maximum Displacement     0.024723     0.001800     NO 
 RMS     Displacement     0.005985     0.001200     NO 
 Predicted change in Energy=-2.642051D-04
 GradGradGradGradGradGradGradGradGradGradGradGradGradGradGradGradGradGrad

                          Input orientation:                          
 ---------------------------------------------------------------------
 Center     Atomic      Atomic             Coordinates (Angstroms)
 Number     Number       Type             X           Y           Z
 ---------------------------------------------------------------------
      1          6           0       -2.161505    0.694577   -0.000020
      2          6           0       -2.145607   -0.737242    0.000106
      3          6           0       -0.934386   -1.458128    0.000029
      4          6           0        0.250222   -0.683279   -0.000098
      5          6           0        0.260651    0.775417   -0.000037
      6          6           0       -0.969914    1.468702    0.000047
      7          7           0        1.557193   -1.077400   -0.000189
      8          6           0        1.622449    1.174008    0.000011
      9          6           0        2.403176    0.030922    0.000006
     10          1           0        1.867769   -2.035065    0.000624
     11          1           0        1.998565    2.187157    0.000014
     12          1           0        3.476352   -0.088077    0.000004
     13          1           0       -3.088075   -1.273676    0.000166
     14          1           0       -0.914741   -2.542033   -0.000017
     15          1           0       -3.121619    1.199775   -0.000142
     16          1           0       -1.003628    2.551788    0.000033
 ---------------------------------------------------------------------
                    Distance matrix (angstroms):
[...]
   A21        2.17770  -0.00006  -0.00012  -0.00010  -0.00021   2.17749
   A22        1.88734   0.00002   0.00019   0.00029   0.00048   1.88782
   A23        2.21134   0.00001   0.00019  -0.00008   0.00011   2.21145
   A24        2.18450  -0.00003  -0.00038  -0.00021  -0.00059   2.18391
   A25        1.89240  -0.00006   0.00001  -0.00026  -0.00025   1.89215
   A26        2.10916   0.00004  -0.00018   0.00008  -0.00010   2.10906
   A27        2.28163   0.00002   0.00017   0.00018   0.00035   2.28198
    D1       -0.00009   0.00000   0.00003   0.00001   0.00005  -0.00004
    D2        3.14153   0.00000   0.00002   0.00001   0.00003   3.14157
    D3        3.14150   0.00000   0.00003   0.00002   0.00005   3.14155
    D4       -0.00006   0.00000   0.00001   0.00002   0.00003  -0.00003
    D5        0.00009  -0.00000  -0.00004  -0.00002  -0.00005   0.00003
    D6       -3.14156  -0.00000  -0.00001  -0.00000  -0.00002  -3.14158
    D7       -3.14150  -0.00000  -0.00003  -0.00002  -0.00005  -3.14156
    D8        0.00004  -0.00000  -0.00001  -0.00001  -0.00002   0.00002
    D9        0.00001  -0.00000  -0.00001  -0.00000  -0.00001   0.00000
   D10       -3.14149  -0.00000  -0.00001  -0.00001  -0.00002  -3.14151
   D11        3.14158   0.00000   0.00001  -0.00000   0.00001   3.14158
   D12        0.00008  -0.00000   0.00000  -0.00001  -0.00000   0.00007
   D13        0.00007  -0.00000  -0.00001  -0.00001  -0.00002   0.00004
   D14       -3.14157  -0.00000   0.00001  -0.00000   0.00000  -3.14156
   D15        3.14157  -0.00000  -0.00001  -0.00000  -0.00001   3.14155
   D16       -0.00007   0.00000   0.00001   0.00001   0.00001  -0.00005
   D17       -0.00007   0.00000   0.00001   0.00001   0.00002  -0.00005
   D18        3.14148   0.00000   0.00001   0.00001   0.00002   3.14150
   D19        3.14156  -0.00000  -0.00001   0.00000  -0.00000   3.14155
   D20       -0.00008  -0.00000  -0.00001   0.00000  -0.00000  -0.00008
   D21       -3.14140  -0.00000  -0.00002  -0.00002  -0.00004  -3.14144
   D22       -0.00080   0.00000   0.00006   0.00007   0.00014  -0.00066
   D23        0.00016  -0.00000   0.00000  -0.00002  -0.00002   0.00014
   D24        3.14076   0.00000   0.00008   0.00008   0.00016   3.14092
   D25       -0.00001   0.00000   0.00001   0.00001   0.00002   0.00001
   D26       -3.14155  -0.00000  -0.00001  -0.00001  -0.00002  -3.14157
   D27       -3.14155   0.00000   0.00001   0.00000   0.00002  -3.14153
   D28        0.00010  -0.00000  -0.00001  -0.00001  -0.00002   0.00008
   D29       -0.00003   0.00000   0.00001   0.00001   0.00002  -0.00001
   D30        3.14154   0.00000   0.00001   0.00001   0.00002   3.14156
   D31        3.14152   0.00000   0.00001   0.00001   0.00002   3.14154
   D32       -0.00010   0.00000   0.00001   0.00001   0.00002  -0.00008
   D33       -0.00018   0.00000   0.00000   0.00003   0.00003  -0.00015
   D34        3.14158   0.00000   0.00001   0.00001   0.00002  -3.14159
   D35       -3.14078  -0.00000  -0.00008  -0.00007  -0.00015  -3.14093
   D36        0.00098  -0.00000  -0.00007  -0.00009  -0.00016   0.00082
   D37        0.00012  -0.00000  -0.00001  -0.00002  -0.00003   0.00009
   D38        3.14153  -0.00000  -0.00001  -0.00000  -0.00002   3.14151
   D39       -3.14145  -0.00000  -0.00001  -0.00002  -0.00003  -3.14147
   D40       -0.00004  -0.00000  -0.00001  -0.00000  -0.00002  -0.00006
         Item               Value     Threshold  Converged?
 Maximum Force            0.000641     0.000450     NO 
 RMS     Force            0.000141     0.000300     YES
 Maximum Displacement     0.001217     0.001800     YES
 RMS     Displacement     0.000385     0.001200     YES
 Predicted change in Energy=-1.340825D-06
 GradGradGradGradGradGradGradGradGradGradGradGradGradGradGradGradGradGrad

                          Input orientation:                          
 ---------------------------------------------------------------------
 Center     Atomic      Atomic             Coordinates (Angstroms)
 Number     Number       Type             X           Y           Z
 ---------------------------------------------------------------------
      1          6           0       -2.159315    0.696946    0.000003
      2          6           0       -2.137783   -0.732962    0.000060
      3          6           0       -0.931096   -1.457974    0.000048
      4          6           0        0.252815   -0.682743   -0.000023
      5          6           0        0.258535    0.776742   -0.000028
      6          6           0       -0.973609    1.472449   -0.000022
      7          7           0        1.559346   -1.080869   -0.000085
      8          6           0        1.616169    1.171954    0.000015
      9          6           0        2.400018    0.026939    0.000053
     10          1           0        1.871210   -2.038096    0.000457
     11          1           0        1.994232    2.184396   -0.000006
     12          1           0        3.472805   -0.092507    0.000023
     13          1           0       -3.081366   -1.267856    0.000102
     14          1           0       -0.912358   -2.541503    0.000013
     15          1           0       -3.121881    1.197434   -0.000025
     16          1           0       -1.010820    2.555093   -0.000050
 ---------------------------------------------------------------------
                    Distance matrix (angstroms):
                    1          2          3          4          5
     1  C    0.000000
     2  C    1.430071   0.000000
     3  C    2.480364   1.407741   0.000000
     4  C    2.778833   2.391125   1.415142   0.000000
     5  C    2.419167   2.832234   2.531636   1.459497   0.000000
     6  C    1.416794   2.493821   2.930732   2.479712   1.414987
     7  N    4.121780   3.713462   2.518831   1.365843   2.267780
     8  C    3.805249   4.209616   3.661295   2.301877   1.413988
     9  C    4.608300   4.600988   3.647093   2.261445   2.268954
    10  H    4.870893   4.216089   2.861724   2.110968   3.244077
    11  H    4.411855   5.058116   4.671660   3.354553   2.234756
    12  H    5.687180   5.647025   4.610732   3.273640   3.329734
    13  H    2.170397   1.084647   2.158658   3.385132   3.916034
    14  H    3.470224   2.184602   1.083691   2.193767   3.518770
    15  H    1.084906   2.166767   3.442489   3.863112   3.406493
    16  H    2.184434   3.475824   4.013859   3.475681   2.184902
                    6          7          8          9         10
     6  C    0.000000
     7  N    3.596567   0.000000
     8  C    2.607154   2.253540   0.000000
     9  C    3.670267   1.390672   1.387616   0.000000
    10  H    4.518509   1.006749   3.220166   2.131668   0.000000
    11  H    3.052041   3.294098   1.080727   2.195287   4.224284
    12  H    4.713777   2.153645   2.246321   1.079416   2.520005
    13  H    3.457154   4.644478   5.293346   5.632235   5.012114
    14  H    4.014419   2.871023   4.492573   4.191506   2.828722
    15  H    2.165804   5.206203   4.738119   5.644593   5.949758
    16  H    1.083283   4.452637   2.968863   4.245631   5.422498
                   11         12         13         14         15
    11  H    0.000000
    12  H    2.714860   0.000000
    13  H    6.138383   6.658724   0.000000
    14  H    5.548188   5.022672   2.515308   0.000000
    15  H    5.210443   6.719661   2.465623   4.342999   0.000000
    16  H    3.027831   5.206985   4.347654   5.097547   2.509943
                   16
    16  H    0.000000
 Stoichiometry    C8H7N
 Framework group  C1[X(C8H7N)]
 Deg. of freedom    42
 Full point group                 C1      NOp   1
 Largest Abelian subgroup         C1      NOp   1
 Largest concise Abelian subgroup C1      NOp   1
                         Standard orientation:                         
 ---------------------------------------------------------------------
 Center     Atomic      Atomic             Coordinates (Angstroms)
 Number     Number       Type             X           Y           Z
 ---------------------------------------------------------------------
      1          6           0       -2.159426    0.699728   -0.000006
      2          6           0       -2.140365   -0.730216    0.000051
      3          6           0       -0.934933   -1.457312    0.000039
      4          6           0        0.250316   -0.684128   -0.000032
      5          6           0        0.258559    0.775345   -0.000037
      6          6           0       -0.972382    1.473181   -0.000031
      7          7           0        1.556157   -1.084511   -0.000094
      8          6           0        1.616874    1.168210    0.000006
      9          6           0        2.398743    0.021842    0.000044
     10          1           0        1.866367   -2.042276    0.000449
     11          1           0        1.996686    2.179997   -0.000015
     12          1           0        3.471322   -0.099458    0.000014
     13          1           0       -3.084871   -1.263478    0.000093
     14          1           0       -0.918067   -2.540871    0.000004
     15          1           0       -3.121126    1.201878   -0.000034
     16          1           0       -1.007722    2.555887   -0.000059
 ---------------------------------------------------------------------
 Rotational constants (GHZ):           3.7534826           1.6323654           1.1376212
 Standard basis: 6-31+G(d) (6D, 7F)
 There are   185 symmetry adapted cartesian basis functions of A   symmetry.
 There are   185 symmetry adapted basis functions of A   symmetry.
   185 basis functions,   316 primitive gaussians,   185 cartesian basis functions
    31 alpha electrons       31 beta electrons
       nuclear repulsion energy       397.4148845211 Hartrees.
 NAtoms=   16 NActive=   16 NUniq=   16 SFac= 1.00D+00 NAtFMM=   60 NAOKFM=F Big=F
 Integral buffers will be    131072 words long.
 Regular integral format.
 Two-electron integral symmetry is turned on.
 One-electron integrals computed using PRISM.
 NBasis=   185 RedAO= T EigKep=  1.45D-06  NBF=   185
 NBsUse=   185 1.00D-06 EigRej= -1.00D+00 NBFU=   185
 Initial guess from the checkpoint file:  "FuncsMPW1PW91-V-2nd.chk"
 B after Tr=    -0.000000   -0.000000   -0.000000
         Rot=    1.000000    0.000003    0.000002    0.000038 Ang=   0.00 deg.
 Keep R1 ints in memory in canonical form, NReq=152071459.
 Requested convergence on RMS density matrix=1.00D-08 within 128 cycles.
 Requested convergence on MAX density matrix=1.00D-06.
 Requested convergence on             energy=1.00D-06.
 No special actions if energy rises.
 SCF Done:  E(RmPW1PW91) =  -363.742919324     A.U. after   10 cycles
            NFock= 10  Conv=0.54D-08     -V/T= 2.0103
 DoSCS=F DFT=T ScalE2(SS,OS)=  1.000000  1.000000
 ExpMin= 4.38D-02 ExpMax= 4.17D+03 ExpMxC= 6.27D+02 IAcc=3 IRadAn=         5 AccDes= 0.00D+00
 HarFok:  IExCor=  205 AccDes= 0.00D+00 IRadAn=         5 IDoV=-2 UseB2=F ITyADJ=14
 ICtDFT= 12500011 ScaDFX=  1.000000  1.000000  1.000000  1.000000
 Range of M.O.s used for correlation:    10   185
 NBasis=   185 NAE=    31 NBE=    31 NFC=     9 NFV=     0
 NROrb=    176 NOA=    22 NOB=    22 NVA=   154 NVB=   154

 **** Warning!!: The largest alpha MO coefficient is  0.17542042D+03

 Orbital symmetries:
       Occupied  (A) (A) (A) (A) (A) (A) (A) (A) (A) (A) (A) (A)
                 (A) (A) (A) (A) (A) (A) (A) (A) (A) (A) (A) (A)
                 (A) (A) (A) (A) (A) (A) (A)
       Virtual   (A) (A) (A) (A) (A) (A) (A) (A) (A) (A) (A) (A)
                 (A) (A) (A) (A) (A) (A) (A) (A) (A) (A) (A) (A)
                 (A) (A) (A) (A) (A) (A) (A) (A) (A) (A) (A) (A)
                 (A) (A) (A) (A) (A) (A) (A) (A) (A) (A) (A) (A)
                 (A) (A) (A) (A) (A) (A) (A) (A) (A) (A) (A) (A)
                 (A) (A) (A) (A) (A) (A) (A) (A) (A) (A) (A) (A)
                 (A) (A) (A) (A) (A) (A) (A) (A) (A) (A) (A) (A)
                 (A) (A) (A) (A) (A) (A) (A) (A) (A) (A) (A) (A)
                 (A) (A) (A) (A) (A) (A) (A) (A) (A) (A) (A) (A)
                 (A) (A) (A) (A) (A) (A) (A) (A) (A) (A) (A) (A)
                 (A) (A) (A) (A) (A) (A) (A) (A) (A) (A) (A) (A)
                 (A) (A) (A) (A) (A) (A) (A) (A) (A) (A) (A) (A)
                 (A) (A) (A) (A) (A) (A) (A) (A) (A) (A)
 Generating guess from densities on rwf.
 Convergence on wavefunction:    0.000001000000000
 Iteration     1 Dimension    12 NMult     0 NNew     12
 CISAX will form    12 AO SS matrices at one time.
 Iteration     2 Dimension    24 NMult    12 NNew     12
 Iteration     3 Dimension    36 NMult    24 NNew     12
 Iteration     4 Dimension    48 NMult    36 NNew     12
 Iteration     5 Dimension    60 NMult    48 NNew     12
 Iteration     6 Dimension    72 NMult    60 NNew     12
 Iteration     7 Dimension    82 NMult    72 NNew     10
 Iteration     8 Dimension    86 NMult    82 NNew      4
 ***********************************************************************
 Excited states from <AA,BB:AA,BB> singles matrix:
 ***********************************************************************
 
 Ground to excited state transition densities written to RWF  633
 Ground to excited state transition electric dipole moments (Au):
       state          X           Y           Z        Dip. S.      Osc.
         1        -0.5560      0.6677     -0.0001      0.7550      0.0872
         2        -0.6768     -0.1205     -0.0001      0.4726      0.0551
         3         0.0004     -0.0001     -0.1412      0.0199      0.0024
         4        -0.0002      0.0000     -0.1090      0.0119      0.0016
         5         0.0000     -0.0000     -0.0129      0.0002      0.0000
         6         0.0002      0.0001      0.0927      0.0086      0.0012
 Ground to excited state transition velocity dipole moments (Au):
       state          X           Y           Z        Dip. S.      Osc.
         1         0.0877     -0.1240      0.0000      0.0231      0.0888
         2         0.1124      0.0218      0.0000      0.0131      0.0500
         3        -0.0001      0.0000      0.0177      0.0003      0.0011
         4         0.0000     -0.0000      0.0241      0.0006      0.0020
         5        -0.0000      0.0000      0.0036      0.0000      0.0000
         6        -0.0000     -0.0000     -0.0182      0.0003      0.0011
 Ground to excited state transition magnetic dipole moments (Au):
       state          X           Y           Z
         1         0.0001      0.0000      0.1920
         2        -0.0000     -0.0001     -0.0629
         3         0.1162     -0.0861      0.0001
         4         0.0281     -0.2232     -0.0001
         5         0.2685     -0.2176      0.0001
         6         0.1554      0.3123      0.0002
 Ground to excited state transition velocity quadrupole moments (Au):
       state          XX          YY          ZZ          XY          XZ          YZ
         1         0.2117     -0.1210      0.0124      0.0495      0.0000      0.0000
         2         0.0810     -0.1192      0.0212     -0.0106      0.0001     -0.0000
         3        -0.0001      0.0001      0.0001      0.0000      0.0721      0.0340
         4         0.0000     -0.0000     -0.0000     -0.0000      0.1401     -0.0250
         5         0.0000     -0.0000     -0.0000     -0.0000      0.2411      0.2410
         6         0.0000      0.0000      0.0000      0.0001     -0.2660      0.0539
 <0|del|b> * <b|rxdel|0> + <0|del|b> * <b|delr+rdel|0>
 Rotatory Strengths (R) in cgs (10**-40 erg-esu-cm/Gauss)
       state          XX          YY          ZZ    R(velocity)    E-M Angle
         1         0.0071      0.0236      0.0056      0.0121       90.00
         2        -0.0077     -0.0107     -0.0048     -0.0077       90.00
         3        -0.0057     -0.0165     -0.0112     -0.0111       90.00
         4         0.0011     -0.0011      0.0045      0.0015       90.00
         5        -0.0067     -0.0027      0.0002     -0.0030       90.00
         6        -0.0188     -0.0140     -0.0069     -0.0133       90.00
 1/2[<0|r|b>*<b|rxdel|0> + (<0|rxdel|b>*<b|r|0>)*]
 Rotatory Strengths (R) in cgs (10**-40 erg-esu-cm/Gauss)
       state          XX          YY          ZZ     R(length)
         1         0.0433     -0.0101      0.0112      0.0148
         2        -0.0134     -0.0081     -0.0025     -0.0080
         3        -0.0332     -0.0080      0.0074     -0.0113
         4         0.0035      0.0062     -0.0040      0.0019
         5        -0.0049     -0.0058      0.0005     -0.0034
         6        -0.0201     -0.0144     -0.0100     -0.0148
  1/2[<0|del|b>*<b|r|0> + (<0|r|b>*<b|del|0>)*] (Au)
       state          X           Y           Z        Dip. S.   Osc.(frdel)
         1        -0.0488     -0.0828     -0.0000      0.1316      0.0877
         2        -0.0761     -0.0026     -0.0000      0.0787      0.0525
         3        -0.0000     -0.0000     -0.0025      0.0025      0.0017
         4        -0.0000     -0.0000     -0.0026      0.0026      0.0018
         5        -0.0000     -0.0000     -0.0000      0.0000      0.0000
         6        -0.0000     -0.0000     -0.0017      0.0017      0.0011

 Excitation energies and oscillator strengths:
 
 Excited State   1:      Singlet-A      4.7156 eV  262.93 nm  f=0.0872  <S**2>=0.000
      30 -> 32        -0.18674
      30 -> 34         0.16298
      31 -> 32         0.64903
 
 Excited State   2:      Singlet-A      4.7563 eV  260.68 nm  f=0.0551  <S**2>=0.000
      30 -> 32         0.57004
      31 -> 32         0.16937
      31 -> 34        -0.36881
 This state for optimization and/or second-order correction.
 Total Energy, E(TD-HF/TD-DFT) =  -363.568129807    
 Copying the excited state density for this state as the 1-particle RhoCI density.
 
 Excited State   3:      Singlet-A      4.9831 eV  248.81 nm  f=0.0024  <S**2>=0.000
      31 -> 33         0.70340
 
 Excited State   4:      Singlet-A      5.3597 eV  231.33 nm  f=0.0016  <S**2>=0.000
      30 -> 33         0.69844
 
 Excited State   5:      Singlet-A      5.5934 eV  221.66 nm  f=0.0000  <S**2>=0.000
      31 -> 35         0.69510
 
 Excited State   6:      Singlet-A      5.6872 eV  218.01 nm  f=0.0012  <S**2>=0.000
      31 -> 36         0.69436
 SavETr:  write IOETrn=   770 NScale= 10 NData=  16 NLR=1 NState=    6 LETran=     118.
          IDoAtm=1111111111111111
          Differentiating once with respect to electric field.
                with respect to dipole field.
          Differentiating once with respect to nuclear coordinates.
 Keep R1 ints in memory in canonical form, NReq=152083851.
          There are     1 degrees of freedom in the 1st order CPHF.  IDoFFX=0 NUNeed=     1.
 LinEq1:  Iter=  0 NonCon=     1 RMS=5.88D-03 Max=1.86D-01 NDo=     1
 AX will form     1 AO Fock derivatives at one time.
 LinEq1:  Iter=  1 NonCon=     1 RMS=2.38D-03 Max=7.01D-02 NDo=     1
 LinEq1:  Iter=  2 NonCon=     1 RMS=2.11D-03 Max=8.04D-02 NDo=     1
 LinEq1:  Iter=  3 NonCon=     1 RMS=7.52D-04 Max=1.34D-02 NDo=     1
 LinEq1:  Iter=  4 NonCon=     1 RMS=3.61D-04 Max=1.24D-02 NDo=     1
 LinEq1:  Iter=  5 NonCon=     1 RMS=2.15D-04 Max=4.41D-03 NDo=     1
 LinEq1:  Iter=  6 NonCon=     1 RMS=1.24D-04 Max=2.66D-03 NDo=     1
 LinEq1:  Iter=  7 NonCon=     1 RMS=5.30D-05 Max=9.81D-04 NDo=     1
 LinEq1:  Iter=  8 NonCon=     1 RMS=3.46D-05 Max=9.42D-04 NDo=     1
 LinEq1:  Iter=  9 NonCon=     1 RMS=1.37D-05 Max=3.26D-04 NDo=     1
 LinEq1:  Iter= 10 NonCon=     1 RMS=1.05D-05 Max=2.22D-04 NDo=     1
 LinEq1:  Iter= 11 NonCon=     1 RMS=2.76D-06 Max=5.52D-05 NDo=     1
 LinEq1:  Iter= 12 NonCon=     1 RMS=1.57D-06 Max=3.51D-05 NDo=     1
 LinEq1:  Iter= 13 NonCon=     1 RMS=6.18D-07 Max=8.64D-06 NDo=     1
 LinEq1:  Iter= 14 NonCon=     1 RMS=2.20D-07 Max=4.90D-06 NDo=     1
 LinEq1:  Iter= 15 NonCon=     1 RMS=1.34D-07 Max=2.97D-06 NDo=     1
 LinEq1:  Iter= 16 NonCon=     1 RMS=3.27D-08 Max=6.36D-07 NDo=     1
 LinEq1:  Iter= 17 NonCon=     1 RMS=8.48D-09 Max=1.40D-07 NDo=     1
