 Entering Gaussian System, Link 0=/cm/shared/apps/spack/cpu/opt/spack/linux-centos8-zen/gcc-8.3.1/gaussian-16.C.01-po5bqktfeugvmjyga3v7eigbecnokxng/g16/g16
 Initial command:
 /cm/shared/apps/spack/cpu/opt/spack/linux-centos8-zen/gcc-8.3.1/gaussian-16.C.01-po5bqktfeugvmjyga3v7eigbecnokxng/g16/l1.exe "/scratch/cwaldt/job_3581302/Gau-76197.inp" -scrdir="/scratch/cwaldt/job_3581302/"
 Entering Link 1 = /cm/shared/apps/spack/cpu/opt/spack/linux-centos8-zen/gcc-8.3.1/gaussian-16.C.01-po5bqktfeugvmjyga3v7eigbecnokxng/g16/l1.exe PID=     76198.
  
 Copyright (c) 1988-2019, Gaussian, Inc.  All Rights Reserved.
  
 This is part of the Gaussian(R) 16 program.  It is based on
 the Gaussian(R) 09 system (copyright 2009, Gaussian, Inc.),
 the Gaussian(R) 03 system (copyright 2003, Gaussian, Inc.),
 the Gaussian(R) 98 system (copyright 1998, Gaussian, Inc.),
 the Gaussian(R) 94 system (copyright 1995, Gaussian, Inc.),
 the Gaussian 92(TM) system (copyright 1992, Gaussian, Inc.),
 the Gaussian 90(TM) system (copyright 1990, Gaussian, Inc.),
 the Gaussian 88(TM) system (copyright 1988, Gaussian, Inc.),
 the Gaussian 86(TM) system (copyright 1986, Carnegie Mellon
 University), and the Gaussian 82(TM) system (copyright 1983,
 Carnegie Mellon University). Gaussian is a federally registered
 trademark of Gaussian, Inc.
  
 This software contains proprietary and confidential information,
 including trade secrets, belonging to Gaussian, Inc.
  
 This software is provided under written license and may be
 used, copied, transmitted, or stored only in accord with that
 written license.
  
 The following legend is applicable only to US Government
 contracts under FAR:
  
                    RESTRICTED RIGHTS LEGEND
  
 Use, reproduction and disclosure by the US Government is
 subject to restrictions as set forth in subparagraphs (a)
 and (c) of the Commercial Computer Software - Restricted
 Rights clause in FAR 52.227-19.
  
 Gaussian, Inc.
 340 Quinnipiac St., Bldg. 40, Wallingford CT 06492
  
  
 ---------------------------------------------------------------
 Warning -- This program may not be used in any manner that
 competes with the business of Gaussian, Inc. or will provide
 assistance to any competitor of Gaussian, Inc.  The licensee
 of this program is prohibited from giving any competitor of
 Gaussian, Inc. access to this program.  By using this program,
 the user acknowledges that Gaussian, Inc. is engaged in the
 business of creating and licensing software in the field of
 computational chemistry and represents and warrants to the
 licensee that it is not a competitor of Gaussian, Inc. and that
 it will not use this program in any manner prohibited above.
 ---------------------------------------------------------------
  

 Cite this work as:
 Gaussian 16, Revision C.01,
 M. J. Frisch, G. W. Trucks, H. B. Schlegel, G. E. Scuseria, 
 M. A. Robb, J. R. Cheeseman, G. Scalmani, V. Barone, 
 G. A. Petersson, H. Nakatsuji, X. Li, M. Caricato, A. V. Marenich, 
 J. Bloino, B. G. Janesko, R. Gomperts, B. Mennucci, H. P. Hratchian, 
 J. V. Ortiz, A. F. Izmaylov, J. L. Sonnenberg, D. Williams-Young, 
 F. Ding, F. Lipparini, F. Egidi, J. Goings, B. Peng, A. Petrone, 
 T. Henderson, D. Ranasinghe, V. G. Zakrzewski, J. Gao, N. Rega, 
 G. Zheng, W. Liang, M. Hada, M. Ehara, K. Toyota, R. Fukuda, 
 J. Hasegawa, M. Ishida, T. Nakajima, Y. Honda, O. Kitao, H. Nakai, 
 T. Vreven, K. Throssell, J. A. Montgomery, Jr., J. E. Peralta, 
 F. Ogliaro, M. J. Bearpark, J. J. Heyd, E. N. Brothers, K. N. Kudin, 
 V. N. Staroverov, T. A. Keith, R. Kobayashi, J. Normand, 
 K. Raghavachari, A. P. Rendell, J. C. Burant, S. S. Iyengar, 
 J. Tomasi, M. Cossi, J. M. Millam, M. Klene, C. Adamo, R. Cammi, 
 J. W. Ochterski, R. L. Martin, K. Morokuma, O. Farkas, 
 J. B. Foresman, and D. J. Fox, Gaussian, Inc., Wallingford CT, 2019.
 
 ******************************************
 Gaussian 16:  AS64L-G16RevC.01  3-Jul-2019
                23-Jun-2021 
 ******************************************
 %nprocshared=4
 Will use up to    4 processors via shared memory.
 %chk=FuncsM06-V-1st.chk
 %Mem=3GB
 ---------------------------------------------------------
 # td= (nstates=6, root=1) M06/6-31+G* Opt density=current
 ---------------------------------------------------------
 1/18=20,19=15,26=3,38=1/1,3;
 2/9=110,12=2,17=6,18=5,40=1/2;
 3/5=1,6=6,7=11,11=9,25=1,30=1,71=1,74=-54/1,2,3,8;
 4//1;
 5/5=2,38=5/2;
 8/6=1,10=2,107=1,108=6/1;
 9/8=1,15=2,41=6,42=1,70=2/14;
 10/5=4,28=1/2;
 6/7=2,8=2,9=2,10=2,22=-1/1;
 7/12=6,13=5,14=1/1,2,3,16;
 1/18=20,19=15,26=3/3(2);
 2/9=110/2;
 99//99;
 2/9=110/2;
 3/5=1,6=6,7=11,11=9,25=1,30=1,71=1,74=-54/1,2,3,8;
 4/5=5,16=3,69=1/1;
 5/5=2,38=5/2;
 8/6=1,10=2,107=1,108=6/1;
 9/8=1,15=2,41=6,42=1,49=4,70=2/14;
 10/5=4,28=1/2;
 7/12=6,13=5,14=1/1,2,3,16;
 1/18=20,19=15,26=3/3(-8);
 2/9=110/2;
 6/7=2,8=2,9=2,10=2,22=-1/1;
 99/9=10/99;
 --------------
 FuncsM06-V-1st
 --------------
 Symbolic Z-matrix:
 Charge =  0 Multiplicity = 1
 C                    -2.15106   0.68921   0.00009 
 C                    -2.12793  -0.71582   0.00008 
 C                    -0.9323   -1.4131   -0.00001 
 C                     0.24691  -0.6702   -0.00004 
 C                     0.24819   0.7483    0. 
 C                    -0.97947   1.42353   0.00003 
 N                     1.56177  -1.07759  -0.00029 
 C                     1.62013   1.1629   -0.00016 
 C                     2.38201   0.03081   0.00025 
 H                     1.87632  -2.03001   0.00044 
 H                     1.99217   2.17301  -0.00035 
 H                     3.45255  -0.08243   0.00041 
 H                    -3.06159  -1.26202   0.00009 
 H                    -0.91725  -2.49534  -0.00007 
 H                    -3.1042    1.20079   0.00009 
 H                    -1.00935   2.50542  -0.00002 
 

 GradGradGradGradGradGradGradGradGradGradGradGradGradGradGradGradGradGrad
 Berny optimization.
 Initialization pass.
                           ----------------------------
                           !    Initial Parameters    !
                           ! (Angstroms and Degrees)  !
 --------------------------                            --------------------------
 ! Name  Definition              Value          Derivative Info.                !
 --------------------------------------------------------------------------------
 ! R1    R(1,2)                  1.4052         estimate D2E/DX2                !
 ! R2    R(1,6)                  1.3827         estimate D2E/DX2                !
 ! R3    R(1,15)                 1.0818         estimate D2E/DX2                !
 ! R4    R(2,3)                  1.3841         estimate D2E/DX2                !
 ! R5    R(2,13)                 1.0817         estimate D2E/DX2                !
 ! R6    R(3,4)                  1.3937         estimate D2E/DX2                !
 ! R7    R(3,14)                 1.0823         estimate D2E/DX2                !
 ! R8    R(4,5)                  1.4185         estimate D2E/DX2                !
 ! R9    R(4,7)                  1.3765         estimate D2E/DX2                !
 ! R10   R(5,6)                  1.4011         estimate D2E/DX2                !
 ! R11   R(5,8)                  1.4332         estimate D2E/DX2                !
 ! R12   R(6,16)                 1.0823         estimate D2E/DX2                !
 ! R13   R(7,9)                  1.3789         estimate D2E/DX2                !
 ! R14   R(7,10)                 1.003          estimate D2E/DX2                !
 ! R15   R(8,9)                  1.3646         estimate D2E/DX2                !
 ! R16   R(8,11)                 1.0764         estimate D2E/DX2                !
 ! R17   R(9,12)                 1.0765         estimate D2E/DX2                !
 ! A1    A(2,1,6)              121.1349         estimate D2E/DX2                !
 ! A2    A(2,1,15)             119.1671         estimate D2E/DX2                !
 ! A3    A(6,1,15)             119.698          estimate D2E/DX2                !
 ! A4    A(1,2,3)              121.1938         estimate D2E/DX2                !
 ! A5    A(1,2,13)             119.3846         estimate D2E/DX2                !
 ! A6    A(3,2,13)             119.4217         estimate D2E/DX2                !
 ! A7    A(2,3,4)              117.5387         estimate D2E/DX2                !
 ! A8    A(2,3,14)             121.0469         estimate D2E/DX2                !
 ! A9    A(4,3,14)             121.4144         estimate D2E/DX2                !
 ! A10   A(3,4,5)              122.2626         estimate D2E/DX2                !
 ! A11   A(3,4,7)              130.5743         estimate D2E/DX2                !
 ! A12   A(5,4,7)              107.163          estimate D2E/DX2                !
 ! A13   A(4,5,6)              118.7594         estimate D2E/DX2                !
 ! A14   A(4,5,8)              106.8666         estimate D2E/DX2                !
 ! A15   A(6,5,8)              134.374          estimate D2E/DX2                !
 ! A16   A(1,6,5)              119.1105         estimate D2E/DX2                !
 ! A17   A(1,6,16)             120.4966         estimate D2E/DX2                !
 ! A18   A(5,6,16)             120.3928         estimate D2E/DX2                !
 ! A19   A(4,7,9)              109.2874         estimate D2E/DX2                !
 ! A20   A(4,7,10)             125.4909         estimate D2E/DX2                !
 ! A21   A(9,7,10)             125.2217         estimate D2E/DX2                !
 ! A22   A(5,8,9)              107.125          estimate D2E/DX2                !
 ! A23   A(5,8,11)             127.0344         estimate D2E/DX2                !
 ! A24   A(9,8,11)             125.8405         estimate D2E/DX2                !
 ! A25   A(7,9,8)              109.5578         estimate D2E/DX2                !
 ! A26   A(7,9,12)             120.4645         estimate D2E/DX2                !
 ! A27   A(8,9,12)             129.9776         estimate D2E/DX2                !
 ! D1    D(6,1,2,3)             -0.0008         estimate D2E/DX2                !
 ! D2    D(6,1,2,13)          -179.9981         estimate D2E/DX2                !
 ! D3    D(15,1,2,3)           179.996          estimate D2E/DX2                !
 ! D4    D(15,1,2,13)           -0.0013         estimate D2E/DX2                !
 ! D5    D(2,1,6,5)             -0.0018         estimate D2E/DX2                !
 ! D6    D(2,1,6,16)           179.9965         estimate D2E/DX2                !
 ! D7    D(15,1,6,5)          -179.9986         estimate D2E/DX2                !
 ! D8    D(15,1,6,16)           -0.0003         estimate D2E/DX2                !
 ! D9    D(1,2,3,4)              0.002          estimate D2E/DX2                !
 ! D10   D(1,2,3,14)          -179.9968         estimate D2E/DX2                !
 ! D11   D(13,2,3,4)           179.9992         estimate D2E/DX2                !
 ! D12   D(13,2,3,14)            0.0005         estimate D2E/DX2                !
 ! D13   D(2,3,4,5)             -0.0005         estimate D2E/DX2                !
 ! D14   D(2,3,4,7)           -179.9911         estimate D2E/DX2                !
 ! D15   D(14,3,4,5)           179.9982         estimate D2E/DX2                !
 ! D16   D(14,3,4,7)             0.0076         estimate D2E/DX2                !
 ! D17   D(3,4,5,6)             -0.002          estimate D2E/DX2                !
 ! D18   D(3,4,5,8)           -179.9955         estimate D2E/DX2                !
 ! D19   D(7,4,5,6)            179.9905         estimate D2E/DX2                !
 ! D20   D(7,4,5,8)             -0.003          estimate D2E/DX2                !
 ! D21   D(3,4,7,9)           -179.98           estimate D2E/DX2                !
 ! D22   D(3,4,7,10)            -0.0649         estimate D2E/DX2                !
 ! D23   D(5,4,7,9)              0.0284         estimate D2E/DX2                !
 ! D24   D(5,4,7,10)           179.9434         estimate D2E/DX2                !
 ! D25   D(4,5,6,1)              0.0031         estimate D2E/DX2                !
 ! D26   D(4,5,6,16)          -179.9951         estimate D2E/DX2                !
 ! D27   D(8,5,6,1)            179.9944         estimate D2E/DX2                !
 ! D28   D(8,5,6,16)            -0.0038         estimate D2E/DX2                !
 ! D29   D(4,5,8,9)             -0.0234         estimate D2E/DX2                !
 ! D30   D(4,5,8,11)           179.9883         estimate D2E/DX2                !
 ! D31   D(6,5,8,9)            179.9846         estimate D2E/DX2                !
 ! D32   D(6,5,8,11)            -0.0037         estimate D2E/DX2                !
 ! D33   D(4,7,9,8)             -0.0444         estimate D2E/DX2                !
 ! D34   D(4,7,9,12)           179.9847         estimate D2E/DX2                !
 ! D35   D(10,7,9,8)          -179.9597         estimate D2E/DX2                !
 ! D36   D(10,7,9,12)            0.0693         estimate D2E/DX2                !
 ! D37   D(5,8,9,7)              0.0414         estimate D2E/DX2                !
 ! D38   D(5,8,9,12)          -179.9913         estimate D2E/DX2                !
 ! D39   D(11,8,9,7)          -179.9702         estimate D2E/DX2                !
 ! D40   D(11,8,9,12)           -0.0029         estimate D2E/DX2                !
 --------------------------------------------------------------------------------
 Trust Radius=3.00D-01 FncErr=1.00D-07 GrdErr=1.00D-06 EigMax=2.50D+02 EigMin=1.00D-04
 Number of steps in this run=     94 maximum allowed number of steps=    100.
 GradGradGradGradGradGradGradGradGradGradGradGradGradGradGradGradGradGrad

                          Input orientation:                          
 ---------------------------------------------------------------------
 Center     Atomic      Atomic             Coordinates (Angstroms)
 Number     Number       Type             X           Y           Z
 ---------------------------------------------------------------------
      1          6           0       -2.151063    0.689208    0.000088
      2          6           0       -2.127927   -0.715818    0.000075
      3          6           0       -0.932297   -1.413100   -0.000011
      4          6           0        0.246911   -0.670201   -0.000042
      5          6           0        0.248193    0.748299    0.000000
      6          6           0       -0.979474    1.423526    0.000032
      7          7           0        1.561774   -1.077592   -0.000285
      8          6           0        1.620133    1.162900   -0.000157
      9          6           0        2.382013    0.030806    0.000248
     10          1           0        1.876315   -2.030011    0.000438
     11          1           0        1.992173    2.173010   -0.000348
     12          1           0        3.452549   -0.082425    0.000408
     13          1           0       -3.061594   -1.262020    0.000088
     14          1           0       -0.917252   -2.495342   -0.000073
     15          1           0       -3.104203    1.200785    0.000090
     16          1           0       -1.009348    2.505421   -0.000015
 ---------------------------------------------------------------------
                    Distance matrix (angstroms):
                    1          2          3          4          5
     1  C    0.000000
     2  C    1.405216   0.000000
     3  C    2.430039   1.384100   0.000000
     4  C    2.756496   2.375276   1.393711   0.000000
     5  C    2.399984   2.790983   2.462763   1.418501   0.000000
     6  C    1.382694   2.428114   2.837018   2.426461   1.401106
     7  N    4.111781   3.707395   2.516536   1.376529   2.249305
     8  C    3.800829   4.192557   3.626386   2.290414   1.433218
     9  C    4.580641   4.571324   3.615178   2.247236   2.251218
    10  H    4.859416   4.214387   2.875566   2.122273   3.220216
    11  H    4.400917   5.031953   4.627387   3.336134   2.251948
    12  H    5.656491   5.616307   4.582311   3.259079   3.310287
    13  H    2.153220   1.081698   2.134650   3.361020   3.872476
    14  H    3.415208   2.152310   1.082347   2.164813   3.446661
    15  H    1.081752   2.150926   3.398466   3.838040   3.382795
    16  H    2.145261   3.409927   3.919278   3.415079   2.160761
                    6          7          8          9         10
     6  C    0.000000
     7  N    3.565604   0.000000
     8  C    2.612639   2.241252   0.000000
     9  C    3.638580   1.378890   1.364587   0.000000
    10  H    4.481345   1.003015   3.203172   2.121956   0.000000
    11  H    3.064704   3.278972   1.076446   2.177387   4.204618
    12  H    4.680888   2.136677   2.215532   1.076508   2.505515
    13  H    3.398144   4.627045   5.272457   5.595021   4.997275
    14  H    3.919362   2.855798   4.452085   4.155307   2.832058
    15  H    2.136372   5.192528   4.724488   5.609583   5.936632
    16  H    1.082307   4.410062   2.952378   4.198220   5.375611
                   11         12         13         14         15
    11  H    0.000000
    12  H    2.686947   0.000000
    13  H    6.110646   6.620083   0.000000
    14  H    5.500751   4.991726   2.473719   0.000000
    15  H    5.188282   6.681139   2.463174   4.294661   0.000000
    16  H    3.019872   5.158049   4.290143   5.001611   2.467892
                   16
    16  H    0.000000
 Stoichiometry    C8H7N
 Framework group  C1[X(C8H7N)]
 Deg. of freedom    42
 Full point group                 C1      NOp   1
 Largest Abelian subgroup         C1      NOp   1
 Largest concise Abelian subgroup C1      NOp   1
                         Standard orientation:                         
 ---------------------------------------------------------------------
 Center     Atomic      Atomic             Coordinates (Angstroms)
 Number     Number       Type             X           Y           Z
 ---------------------------------------------------------------------
      1          6           0       -2.151063    0.689208    0.000088
      2          6           0       -2.127927   -0.715818    0.000075
      3          6           0       -0.932297   -1.413100   -0.000011
      4          6           0        0.246911   -0.670201   -0.000042
      5          6           0        0.248193    0.748299    0.000000
      6          6           0       -0.979474    1.423526    0.000032
      7          7           0        1.561774   -1.077592   -0.000285
      8          6           0        1.620133    1.162900   -0.000157
      9          6           0        2.382013    0.030806    0.000248
     10          1           0        1.876315   -2.030011    0.000438
     11          1           0        1.992173    2.173010   -0.000348
     12          1           0        3.452549   -0.082425    0.000408
     13          1           0       -3.061594   -1.262020    0.000088
     14          1           0       -0.917252   -2.495342   -0.000073
     15          1           0       -3.104203    1.200785    0.000090
     16          1           0       -1.009348    2.505421   -0.000015
 ---------------------------------------------------------------------
 Rotational constants (GHZ):           3.9080822           1.6429452           1.1566805
 Standard basis: 6-31+G(d) (6D, 7F)
 There are   185 symmetry adapted cartesian basis functions of A   symmetry.
 There are   185 symmetry adapted basis functions of A   symmetry.
   185 basis functions,   316 primitive gaussians,   185 cartesian basis functions
    31 alpha electrons       31 beta electrons
       nuclear repulsion energy       401.3368668897 Hartrees.
 NAtoms=   16 NActive=   16 NUniq=   16 SFac= 1.00D+00 NAtFMM=   60 NAOKFM=F Big=F
 Integral buffers will be    131072 words long.
 Regular integral format.
 Two-electron integral symmetry is turned on.
 One-electron integrals computed using PRISM.
 NBasis=   185 RedAO= T EigKep=  1.26D-06  NBF=   185
 NBsUse=   185 1.00D-06 EigRej= -1.00D+00 NBFU=   185
 ExpMin= 4.38D-02 ExpMax= 4.17D+03 ExpMxC= 6.27D+02 IAcc=3 IRadAn=         5 AccDes= 0.00D+00
 Harris functional with IExCor= 1009 and IRadAn=       5 diagonalized for initial guess.
 HarFok:  IExCor= 1009 AccDes= 0.00D+00 IRadAn=         5 IDoV= 1 UseB2=F ITyADJ=14
 ICtDFT=  3500011 ScaDFX=  1.000000  1.000000  1.000000  1.000000
 FoFCou: FMM=F IPFlag=           0 FMFlag=      100000 FMFlg1=           0
         NFxFlg=           0 DoJE=T BraDBF=F KetDBF=T FulRan=T
         wScrn=  0.000000 ICntrl=       500 IOpCl=  0 I1Cent=   200000004 NGrid=           0
         NMat0=    1 NMatS0=      1 NMatT0=    0 NMatD0=    1 NMtDS0=    0 NMtDT0=    0
 Petite list used in FoFCou.
 Keep R1 ints in memory in canonical form, NReq=152074523.
 Requested convergence on RMS density matrix=1.00D-08 within 128 cycles.
 Requested convergence on MAX density matrix=1.00D-06.
 Requested convergence on             energy=1.00D-06.
 No special actions if energy rises.
 SCF Done:  E(RM06) =  -363.551124218     A.U. after   15 cycles
            NFock= 15  Conv=0.83D-08     -V/T= 2.0110
 DoSCS=F DFT=T ScalE2(SS,OS)=  1.000000  1.000000
 ExpMin= 4.38D-02 ExpMax= 4.17D+03 ExpMxC= 6.27D+02 IAcc=3 IRadAn=         5 AccDes= 0.00D+00
 HarFok:  IExCor=  205 AccDes= 0.00D+00 IRadAn=         5 IDoV=-2 UseB2=F ITyADJ=14
 ICtDFT= 12500011 ScaDFX=  1.000000  1.000000  1.000000  1.000000
 Range of M.O.s used for correlation:    10   185
 NBasis=   185 NAE=    31 NBE=    31 NFC=     9 NFV=     0
 NROrb=    176 NOA=    22 NOB=    22 NVA=   154 NVB=   154

 **** Warning!!: The largest alpha MO coefficient is  0.17932575D+03

 Orbital symmetries:
       Occupied  (A) (A) (A) (A) (A) (A) (A) (A) (A) (A) (A) (A)
                 (A) (A) (A) (A) (A) (A) (A) (A) (A) (A) (A) (A)
                 (A) (A) (A) (A) (A) (A) (A)
       Virtual   (A) (A) (A) (A) (A) (A) (A) (A) (A) (A) (A) (A)
                 (A) (A) (A) (A) (A) (A) (A) (A) (A) (A) (A) (A)
                 (A) (A) (A) (A) (A) (A) (A) (A) (A) (A) (A) (A)
                 (A) (A) (A) (A) (A) (A) (A) (A) (A) (A) (A) (A)
                 (A) (A) (A) (A) (A) (A) (A) (A) (A) (A) (A) (A)
                 (A) (A) (A) (A) (A) (A) (A) (A) (A) (A) (A) (A)
                 (A) (A) (A) (A) (A) (A) (A) (A) (A) (A) (A) (A)
                 (A) (A) (A) (A) (A) (A) (A) (A) (A) (A) (A) (A)
                 (A) (A) (A) (A) (A) (A) (A) (A) (A) (A) (A) (A)
                 (A) (A) (A) (A) (A) (A) (A) (A) (A) (A) (A) (A)
                 (A) (A) (A) (A) (A) (A) (A) (A) (A) (A) (A) (A)
                 (A) (A) (A) (A) (A) (A) (A) (A) (A) (A) (A) (A)
                 (A) (A) (A) (A) (A) (A) (A) (A) (A) (A)
    24 initial guesses have been made.
 Convergence on wavefunction:    0.000001000000000
 Iteration     1 Dimension    24 NMult     0 NNew     24
 CISAX will form    24 AO SS matrices at one time.
 New state      3 was old state      4
 New state      4 was old state      5
 New state      5 was old state      6
 New state      6 was old state      3
 Iteration     2 Dimension    36 NMult    24 NNew     12
 New state      3 was old state      6
 New state      4 was old state      3
 New state      6 was old state      4
 Iteration     3 Dimension    48 NMult    36 NNew     12
 Iteration     4 Dimension    60 NMult    48 NNew     12
 Iteration     5 Dimension    72 NMult    60 NNew     12
 Iteration     6 Dimension    84 NMult    72 NNew     12
 Iteration     7 Dimension    96 NMult    84 NNew     12
 Iteration     8 Dimension   108 NMult    96 NNew     12
 Iteration     9 Dimension   120 NMult   108 NNew     12
 Iteration    10 Dimension   124 NMult   120 NNew      4
 Iteration    11 Dimension   128 NMult   124 NNew      4
 ***********************************************************************
 Excited states from <AA,BB:AA,BB> singles matrix:
 ***********************************************************************
 
 Ground to excited state transition densities written to RWF  633
 Ground to excited state transition electric dipole moments (Au):
       state          X           Y           Z        Dip. S.      Osc.
         1        -0.0002      0.0001     -0.0900      0.0081      0.0008
         2         0.0047     -0.0056     -0.0844      0.0072      0.0008
         3        -0.6283      0.6184     -0.0008      0.7772      0.0897
         4         0.0002      0.0004     -0.0293      0.0009      0.0001
         5        -0.5538     -0.1522      0.0001      0.3299      0.0391
         6         0.0005      0.0000      0.0473      0.0022      0.0003
 Ground to excited state transition velocity dipole moments (Au):
       state          X           Y           Z        Dip. S.      Osc.
         1         0.0000     -0.0000      0.0061      0.0000      0.0002
         2        -0.0008      0.0011      0.0181      0.0003      0.0013
         3         0.1040     -0.1180      0.0002      0.0247      0.0953
         4        -0.0000     -0.0001      0.0066      0.0000      0.0002
         5         0.0962      0.0290     -0.0000      0.0101      0.0378
         6        -0.0001      0.0000     -0.0068      0.0000      0.0002
 Ground to excited state transition magnetic dipole moments (Au):
       state          X           Y           Z
         1         0.1124     -0.0396      0.0002
         2         0.0042     -0.1665     -0.0016
         3         0.0001     -0.0014      0.1700
         4         0.1300     -0.1745      0.0001
         5         0.0001     -0.0000     -0.0702
         6         0.1435      0.1529      0.0002
 Ground to excited state transition velocity quadrupole moments (Au):
       state          XX          YY          ZZ          XY          XZ          YZ
         1         0.0001     -0.0000      0.0001      0.0000      0.0384      0.0424
         2        -0.0021      0.0011     -0.0002     -0.0004      0.1015     -0.0415
         3         0.2370     -0.1378      0.0222      0.0379      0.0009     -0.0004
         4        -0.0001      0.0000      0.0000      0.0001      0.1809      0.1372
         5         0.0649     -0.1042      0.0193     -0.0167      0.0000      0.0002
         6         0.0000     -0.0001      0.0000      0.0000     -0.1066      0.0699
 <0|del|b> * <b|rxdel|0> + <0|del|b> * <b|delr+rdel|0>
 Rotatory Strengths (R) in cgs (10**-40 erg-esu-cm/Gauss)
       state          XX          YY          ZZ    R(velocity)    E-M Angle
         1         0.0070      0.0171      0.0067      0.0103       90.00
         2        -0.6591      0.0131     -0.2146     -0.2869       93.98
         3         0.6200     -0.0139      0.2483      0.2848       89.55
         4         0.0578     -0.0185     -0.0005      0.0130       90.00
         5        -0.0010      0.0465     -0.0146      0.0103       90.00
         6         0.0030     -0.0377     -0.0115     -0.0154       90.00
 1/2[<0|r|b>*<b|rxdel|0> + (<0|rxdel|b>*<b|r|0>)*]
 Rotatory Strengths (R) in cgs (10**-40 erg-esu-cm/Gauss)
       state          XX          YY          ZZ     R(length)
         1         0.0162      0.0040      0.0140      0.0114
         2        -0.0140     -0.6626     -0.0949     -0.2572
         3         0.0630      0.6159      0.0928      0.2572
         4        -0.0182      0.0455      0.0023      0.0099
         5         0.0311     -0.0021      0.0026      0.0105
         6        -0.0540     -0.0023     -0.0053     -0.0205
  1/2[<0|del|b>*<b|r|0> + (<0|r|b>*<b|del|0>)*] (Au)
       state          X           Y           Z        Dip. S.   Osc.(frdel)
         1        -0.0000     -0.0000     -0.0006      0.0006      0.0004
         2        -0.0000     -0.0000     -0.0015      0.0015      0.0010
         3        -0.0654     -0.0729     -0.0000      0.1383      0.0922
         4        -0.0000     -0.0000     -0.0002      0.0002      0.0001
         5        -0.0533     -0.0044     -0.0000      0.0577      0.0384
         6        -0.0000      0.0000     -0.0003      0.0003      0.0002

 Excitation energies and oscillator strengths:
 
 Excited State   1:      Singlet-A      4.2195 eV  293.83 nm  f=0.0008  <S**2>=0.000
      31 -> 32         0.70412
 This state for optimization and/or second-order correction.
 Total Energy, E(TD-HF/TD-DFT) =  -363.396058792    
 Copying the excited state density for this state as the 1-particle RhoCI density.
 
 Excited State   2:      Singlet-A      4.7007 eV  263.76 nm  f=0.0008  <S**2>=0.000
      30 -> 32         0.69794
 
 Excited State   3:      Singlet-A      4.7090 eV  263.29 nm  f=0.0897  <S**2>=0.000
      30 -> 33        -0.10893
      30 -> 38         0.17539
      31 -> 33         0.66597
 
 Excited State   4:      Singlet-A      4.8216 eV  257.15 nm  f=0.0001  <S**2>=0.000
      31 -> 34         0.70024
 
 Excited State   5:      Singlet-A      4.8406 eV  256.14 nm  f=0.0391  <S**2>=0.000
      30 -> 33         0.57750
      31 -> 38        -0.37541
 
 Excited State   6:      Singlet-A      4.8937 eV  253.36 nm  f=0.0003  <S**2>=0.000
      31 -> 35         0.70124
 SavETr:  write IOETrn=   770 NScale= 10 NData=  16 NLR=1 NState=    6 LETran=     118.
          IDoAtm=1111111111111111
          Differentiating once with respect to electric field.
                with respect to dipole field.
          Differentiating once with respect to nuclear coordinates.
 Keep R1 ints in memory in canonical form, NReq=152086915.
          There are     1 degrees of freedom in the 1st order CPHF.  IDoFFX=0 NUNeed=     1.
 LinEq1:  Iter=  0 NonCon=     1 RMS=1.55D-02 Max=2.70D-01 NDo=     1
 AX will form     1 AO Fock derivatives at one time.
 LinEq1:  Iter=  1 NonCon=     1 RMS=8.73D-03 Max=2.25D-01 NDo=     1
 LinEq1:  Iter=  2 NonCon=     1 RMS=5.53D-03 Max=1.04D-01 NDo=     1
 LinEq1:  Iter=  3 NonCon=     1 RMS=2.00D-03 Max=4.71D-02 NDo=     1
 LinEq1:  Iter=  4 NonCon=     1 RMS=1.31D-03 Max=2.75D-02 NDo=     1
 LinEq1:  Iter=  5 NonCon=     1 RMS=6.49D-04 Max=1.46D-02 NDo=     1
 LinEq1:  Iter=  6 NonCon=     1 RMS=4.71D-04 Max=1.25D-02 NDo=     1
 LinEq1:  Iter=  7 NonCon=     1 RMS=1.69D-04 Max=3.54D-03 NDo=     1
 LinEq1:  Iter=  8 NonCon=     1 RMS=9.09D-05 Max=2.31D-03 NDo=     1
 LinEq1:  Iter=  9 NonCon=     1 RMS=4.28D-05 Max=1.00D-03 NDo=     1
 LinEq1:  Iter= 10 NonCon=     1 RMS=1.88D-05 Max=5.05D-04 NDo=     1
 LinEq1:  Iter= 11 NonCon=     1 RMS=1.14D-05 Max=2.81D-04 NDo=     1
 LinEq1:  Iter= 12 NonCon=     1 RMS=4.11D-06 Max=7.79D-05 NDo=     1
 LinEq1:  Iter= 13 NonCon=     1 RMS=2.20D-06 Max=3.85D-05 NDo=     1
 LinEq1:  Iter= 14 NonCon=     1 RMS=8.96D-07 Max=1.44D-05 NDo=     1
 LinEq1:  Iter= 15 NonCon=     1 RMS=2.37D-07 Max=2.67D-06 NDo=     1
 LinEq1:  Iter= 16 NonCon=     1 RMS=1.42D-07 Max=2.86D-06 NDo=     1
 LinEq1:  Iter= 17 NonCon=     1 RMS=3.79D-08 Max=5.50D-07 NDo=     1
 LinEq1:  Iter= 18 NonCon=     1 RMS=1.17D-08 Max=1.68D-07 NDo=     1
 LinEq1:  Iter= 19 NonCon=     1 RMS=7.46D-09 Max=1.31D-07 NDo=     1
 LinEq1:  Iter= 20 NonCon=     1 RMS=2.69D-09 Max=4.30D-08 NDo=     1
 LinEq1:  Iter= 21 NonCon=     1 RMS=5.10D-10 Max=4.51D-09 NDo=     1
 LinEq1:  Iter= 22 NonCon=     1 RMS=1.32D-10 Max=1.23D-09 NDo=     1
 LinEq1:  Iter= 23 NonCon=     0 RMS=4.92D-11 Max=5.60D-10 NDo=     1
 Linear equations converged to 1.000D-10 1.000D-09 after    23 iterations.
 End of Minotr F.D. properties file   721 does not exist.
 End of Minotr F.D. properties file   722 does not exist.
 End of Minotr F.D. properties file   788 does not exist.

 **********************************************************************

            Population analysis using the CI Density.

 **********************************************************************

 Orbital symmetries:
       Occupied  (A) (A) (A) (A) (A) (A) (A) (A) (A) (A) (A) (A)
                 (A) (A) (A) (A) (A) (A) (A) (A) (A) (A) (A) (A)
                 (A) (A) (A) (A) (A) (A) (A)
       Virtual   (A) (A) (A) (A) (A) (A) (A) (A) (A) (A) (A) (A)
                 (A) (A) (A) (A) (A) (A) (A) (A) (A) (A) (A) (A)
                 (A) (A) (A) (A) (A) (A) (A) (A) (A) (A) (A) (A)
                 (A) (A) (A) (A) (A) (A) (A) (A) (A) (A) (A) (A)
                 (A) (A) (A) (A) (A) (A) (A) (A) (A) (A) (A) (A)
                 (A) (A) (A) (A) (A) (A) (A) (A) (A) (A) (A) (A)
                 (A) (A) (A) (A) (A) (A) (A) (A) (A) (A) (A) (A)
                 (A) (A) (A) (A) (A) (A) (A) (A) (A) (A) (A) (A)
                 (A) (A) (A) (A) (A) (A) (A) (A) (A) (A) (A) (A)
                 (A) (A) (A) (A) (A) (A) (A) (A) (A) (A) (A) (A)
                 (A) (A) (A) (A) (A) (A) (A) (A) (A) (A) (A) (A)
                 (A) (A) (A) (A) (A) (A) (A) (A) (A) (A) (A) (A)
                 (A) (A) (A) (A) (A) (A) (A) (A) (A) (A)
 The electronic state is 1-A.
 Alpha  occ. eigenvalues --  -14.45906 -10.29373 -10.29219 -10.26133 -10.25746
 Alpha  occ. eigenvalues --  -10.25675 -10.25664 -10.25157 -10.24799  -0.99950
 Alpha  occ. eigenvalues --   -0.85476  -0.79774  -0.74949  -0.73032  -0.63748
 Alpha  occ. eigenvalues --   -0.60735  -0.59417  -0.55270  -0.49351  -0.48288
 Alpha  occ. eigenvalues --   -0.44936  -0.44125  -0.43987  -0.42343  -0.40309
 Alpha  occ. eigenvalues --   -0.36733  -0.34975  -0.34680  -0.29316  -0.23615
 Alpha  occ. eigenvalues --   -0.21996
 Alpha virt. eigenvalues --   -0.03171  -0.01443  -0.01289  -0.00875   0.00328
 Alpha virt. eigenvalues --    0.00585   0.02117   0.02842   0.03005   0.03318
 Alpha virt. eigenvalues --    0.03913   0.04137   0.06428   0.06816   0.06909
 Alpha virt. eigenvalues --    0.06987   0.09490   0.09937   0.10941   0.11751
 Alpha virt. eigenvalues --    0.12075   0.12175   0.13188   0.13475   0.15206
 Alpha virt. eigenvalues --    0.15603   0.16111   0.16669   0.17558   0.17612
 Alpha virt. eigenvalues --    0.18188   0.19042   0.19277   0.20078   0.20769
 Alpha virt. eigenvalues --    0.21432   0.21513   0.22201   0.23228   0.23843
 Alpha virt. eigenvalues --    0.24707   0.25011   0.25873   0.27050   0.28276
 Alpha virt. eigenvalues --    0.29362   0.29813   0.30947   0.32567   0.35378
 Alpha virt. eigenvalues --    0.35669   0.39103   0.43254   0.43786   0.50628
 Alpha virt. eigenvalues --    0.57436   0.62224   0.65247   0.66208   0.68063
 Alpha virt. eigenvalues --    0.69968   0.70072   0.71565   0.72187   0.72860
 Alpha virt. eigenvalues --    0.73333   0.74540   0.75912   0.77272   0.78578
 Alpha virt. eigenvalues --    0.80204   0.83621   0.86915   0.87538   0.88484
 Alpha virt. eigenvalues --    0.90491   0.90848   0.92517   0.95649   0.95750
 Alpha virt. eigenvalues --    0.98440   1.00794   1.02709   1.04558   1.08541
 Alpha virt. eigenvalues --    1.10189   1.10845   1.15760   1.16864   1.19227
 Alpha virt. eigenvalues --    1.21252   1.24034   1.24504   1.29442   1.32440
 Alpha virt. eigenvalues --    1.34409   1.34600   1.39449   1.41344   1.41693
 Alpha virt. eigenvalues --    1.46052   1.46380   1.49618   1.50479   1.51724
 Alpha virt. eigenvalues --    1.56400   1.62335   1.77618   1.82754   1.86093
 Alpha virt. eigenvalues --    1.88278   1.88340   1.89919   1.94182   1.95480
 Alpha virt. eigenvalues --    1.99354   2.05020   2.07832   2.11917   2.15343
 Alpha virt. eigenvalues --    2.15741   2.15999   2.23537   2.24310   2.25037
 Alpha virt. eigenvalues --    2.26165   2.29713   2.36450   2.39303   2.41502
 Alpha virt. eigenvalues --    2.51903   2.54624   2.61393   2.63857   2.65170
 Alpha virt. eigenvalues --    2.67330   2.71591   2.79011   2.81307   2.84005
 Alpha virt. eigenvalues --    2.93055   2.95357   3.07036   3.22945   3.41224
 Alpha virt. eigenvalues --    4.13744   4.22347   4.25233   4.28826   4.32581
 Alpha virt. eigenvalues --    4.36606   4.44446   4.48594   4.75289
          Condensed to atoms (all electrons):
               1          2          3          4          5          6
     1  C   47.943548  13.806148  -2.874244 -35.454060 -18.254507 -37.281601
     2  C   13.806148  46.771266  14.274846 -48.941182  18.242979 -61.489471
     3  C   -2.874244  14.274846  37.043604 -33.721340  17.495492 -29.301626
     4  C  -35.454060 -48.941182 -33.721340 153.642626 -27.519822  90.069681
     5  C  -18.254507  18.242979  17.495492 -27.519822 151.933379 -63.033491
     6  C  -37.281601 -61.489471 -29.301626  90.069681 -63.033491 134.598847
     7  N   -0.719665  -0.459780   1.511929   5.552725  -5.377481   3.867588
     8  C   63.607473  40.409606  -4.137042-184.078892-128.981112 -45.173223
     9  C  -25.052454 -16.122094   5.829796  87.499337  59.037540  13.775757
    10  H    0.023346  -0.082253  -0.137857   0.519061  -0.040097  -0.188314
    11  H   -0.059897  -0.000267  -0.054339  -0.127876   0.675037   0.200799
    12  H    0.007953  -0.014573   0.208785   0.376582  -0.682335  -0.109421
    13  H    0.119619   0.015990  -0.041755   0.177162  -0.097953   0.153355
    14  H    0.081212  -0.075415   0.114707   0.714164  -0.576960  -0.009734
    15  H    0.167911   0.190017  -0.083298  -0.076438  -0.028678   0.126638
    16  H   -0.051953  -0.112424  -0.000307   0.198940   0.630003  -0.246809
               7          8          9         10         11         12
     1  C   -0.719665  63.607473 -25.052454   0.023346  -0.059897   0.007953
     2  C   -0.459780  40.409606 -16.122094  -0.082253  -0.000267  -0.014573
     3  C    1.511929  -4.137042   5.829796  -0.137857  -0.054339   0.208785
     4  C    5.552725-184.078892  87.499337   0.519061  -0.127876   0.376582
     5  C   -5.377481-128.981112  59.037540  -0.040097   0.675037  -0.682335
     6  C    3.867588 -45.173223  13.775757  -0.188314   0.200799  -0.109421
     7  N   15.356722 -40.056562  26.676260  -0.626585  -0.003282  -0.026839
     8  C  -40.056562 666.948390-357.242410   2.505835  -1.084076   0.447482
     9  C   26.676260-357.242410 207.798706  -1.799471   0.748431   0.094032
    10  H   -0.626585   2.505835  -1.799471   0.518989  -0.000255  -0.002522
    11  H   -0.003282  -1.084076   0.748431  -0.000255   0.458591  -0.000071
    12  H   -0.026839   0.447482   0.094032  -0.002522  -0.000071   0.420717
    13  H    0.003737  -0.046644   0.021753  -0.000016   0.000000  -0.000000
    14  H    0.050021  -0.140117   0.106071   0.002576   0.000001   0.000006
    15  H   -0.001387   0.017163  -0.001149  -0.000000  -0.000001  -0.000000
    16  H    0.006723  -0.189182   0.056141   0.000003   0.001209   0.000000
              13         14         15         16
     1  C    0.119619   0.081212   0.167911  -0.051953
     2  C    0.015990  -0.075415   0.190017  -0.112424
     3  C   -0.041755   0.114707  -0.083298  -0.000307
     4  C    0.177162   0.714164  -0.076438   0.198940
     5  C   -0.097953  -0.576960  -0.028678   0.630003
     6  C    0.153355  -0.009734   0.126638  -0.246809
     7  N    0.003737   0.050021  -0.001387   0.006723
     8  C   -0.046644  -0.140117   0.017163  -0.189182
     9  C    0.021753   0.106071  -0.001149   0.056141
    10  H   -0.000016   0.002576  -0.000000   0.000003
    11  H    0.000000   0.000001  -0.000001   0.001209
    12  H   -0.000000   0.000006  -0.000000   0.000000
    13  H    0.469922  -0.002543  -0.003976  -0.000113
    14  H   -0.002543   0.501191  -0.000155   0.000019
    15  H   -0.003976  -0.000155   0.479974  -0.003543
    16  H   -0.000113   0.000019  -0.003543   0.480119
 Mulliken charges:
               1
     1  C   -0.008830
     2  C   -0.413394
     3  C   -0.127351
     4  C   -2.830669
     5  C    2.578006
     6  C    0.041025
     7  N    1.245877
     8  C   -6.806689
     9  C    4.573755
    10  H    0.307558
    11  H    0.245996
    12  H    0.280203
    13  H    0.231461
    14  H    0.234956
    15  H    0.216922
    16  H    0.231174
 Sum of Mulliken charges =  -0.00000
 Mulliken charges with hydrogens summed into heavy atoms:
               1
     1  C    0.208092
     2  C   -0.181933
     3  C    0.107604
     4  C   -2.830669
     5  C    2.578006
     6  C    0.272199
     7  N    1.553435
     8  C   -6.560693
     9  C    4.853958
 Electronic spatial extent (au):  <R**2>=           1045.6226
 Charge=             -0.0000 electrons
 Dipole moment (field-independent basis, Debye):
    X=             -7.1078    Y=              7.4318    Z=             -0.0030  Tot=             10.2836
 Quadrupole moment (field-independent basis, Debye-Ang):
   XX=            -69.4960   YY=            -68.0536   ZZ=            -65.4610
   XY=             20.2789   XZ=             -0.0103   YZ=              0.0056
 Traceless Quadrupole moment (field-independent basis, Debye-Ang):
   XX=             -1.8258   YY=             -0.3834   ZZ=              2.2092
   XY=             20.2789   XZ=             -0.0103   YZ=              0.0056
 Octapole moment (field-independent basis, Debye-Ang**2):
  XXX=           -151.6263  YYY=             97.5840  ZZZ=             -0.0238  XYY=            -58.3630
  XXY=             69.7413  XXZ=             -0.0414  XZZ=            -22.5117  YZZ=             24.1300
  YYZ=             -0.0214  XYZ=              0.0169
 Hexadecapole moment (field-independent basis, Debye-Ang**3):
 XXXX=          -1542.0655 YYYY=           -785.0929 ZZZZ=           -144.4363 XXXY=            300.9442
 XXXZ=             -0.1930 YYYX=            192.3248 YYYZ=              0.0524 ZZZX=             -0.0617
 ZZZY=              0.0427 XXYY=           -400.1891 XXZZ=           -262.2484 YYZZ=           -166.1977
 XXYZ=              0.0626 YYXZ=             -0.0525 ZZXY=             52.6229
 N-N= 4.013368668897D+02 E-N=-1.640506959081D+03  KE= 3.595531018474D+02
 Calling FoFJK, ICntrl=  10005127 FMM=F ISym2X=0 I1Cent= 0 IOpClX= 0 NMat=1 NMatS=1 NMatT=0.
 ***** Axes restored to original set *****
 -------------------------------------------------------------------
 Center     Atomic                   Forces (Hartrees/Bohr)
 Number     Number              X              Y              Z
 -------------------------------------------------------------------
      1        6          -0.008460214   -0.012853471    0.000000545
      2        6          -0.012141613    0.025298752   -0.000000270
      3        6           0.030696361   -0.005116250   -0.000000957
      4        6          -0.007796649   -0.000616889   -0.000008863
      5        6           0.010870630   -0.002603369   -0.000035118
      6        6           0.004160692    0.006175231   -0.000003678
      7        7           0.022715857    0.051685055    0.000084725
      8        6          -0.042656368    0.021274250    0.000042257
      9        6          -0.010007934   -0.068451044   -0.000094121
     10        1           0.011241599   -0.019818182   -0.000001095
     11        1           0.001882218    0.005134629    0.000004694
     12        1           0.005560866   -0.003270333    0.000009537
     13        1          -0.003423404   -0.001881427    0.000000568
     14        1           0.001168732   -0.001261536   -0.000002063
     15        1          -0.003343423    0.002027250    0.000002091
     16        1          -0.000467350    0.004277332    0.000001749
 -------------------------------------------------------------------
 Cartesian Forces:  Max     0.068451044 RMS     0.016534152

 GradGradGradGradGradGradGradGradGradGradGradGradGradGradGradGradGradGrad
 Berny optimization.
 FormGI is forming the generalized inverse of G from B-inverse, IUseBI=4.
 Internal  Forces:  Max     0.047150415 RMS     0.008615944
 Search for a local minimum.
 Step number   1 out of a maximum of   94
 All quantities printed in internal units (Hartrees-Bohrs-Radians)
 Mixed Optimization -- RFO/linear search
 Second derivative matrix not updated -- first step.
 ITU=  0
     Eigenvalues ---    0.01853   0.01931   0.01986   0.02012   0.02070
     Eigenvalues ---    0.02113   0.02148   0.02153   0.02172   0.02209
     Eigenvalues ---    0.02233   0.02248   0.02338   0.16000   0.16000
     Eigenvalues ---    0.16000   0.16000   0.16000   0.16000   0.16000
     Eigenvalues ---    0.22000   0.22188   0.22662   0.24011   0.24651
     Eigenvalues ---    0.35712   0.35717   0.35783   0.35790   0.36420
     Eigenvalues ---    0.36427   0.37009   0.38432   0.42633   0.43465
     Eigenvalues ---    0.45769   0.46692   0.47162   0.47468   0.47567
     Eigenvalues ---    0.48125   0.50955
 RFO step:  Lambda=-1.31661367D-02 EMin= 1.85287394D-02
 Linear search not attempted -- first point.
 Iteration  1 RMS(Cart)=  0.02679372 RMS(Int)=  0.00014892
 Iteration  2 RMS(Cart)=  0.00017572 RMS(Int)=  0.00001098
 Iteration  3 RMS(Cart)=  0.00000004 RMS(Int)=  0.00001098
 Variable       Old X    -DE/DX   Delta X   Delta X   Delta X     New X
                                 (Linear)    (Quad)   (Total)
    R1        2.65547  -0.00838   0.00000  -0.01717  -0.01718   2.63830
    R2        2.61291   0.00686   0.00000   0.01469   0.01469   2.62760
    R3        2.04421   0.00391   0.00000   0.01053   0.01053   2.05475
    R4        2.61557   0.02545   0.00000   0.05126   0.05126   2.66683
    R5        2.04411   0.00390   0.00000   0.01052   0.01052   2.05463
    R6        2.63373  -0.01399   0.00000  -0.03014  -0.03013   2.60360
    R7        2.04534   0.00127   0.00000   0.00344   0.00344   2.04878
    R8        2.68058  -0.00123   0.00000  -0.00406  -0.00402   2.67656
    R9        2.60126   0.00856   0.00000   0.01405   0.01406   2.61533
   R10        2.64771   0.00648   0.00000   0.01386   0.01386   2.66157
   R11        2.70839  -0.01930   0.00000  -0.04293  -0.04292   2.66547
   R12        2.04526   0.00429   0.00000   0.01159   0.01159   2.05686
   R13        2.60573  -0.04715   0.00000  -0.09468  -0.09470   2.51102
   R14        1.89542   0.02235   0.00000   0.04610   0.04610   1.94153
   R15        2.57870   0.04013   0.00000   0.07684   0.07681   2.65551
   R16        2.03419   0.00546   0.00000   0.01447   0.01447   2.04866
   R17        2.03430   0.00588   0.00000   0.01557   0.01557   2.04987
    A1        2.11420  -0.00538   0.00000  -0.01893  -0.01894   2.09526
    A2        2.07986   0.00292   0.00000   0.01078   0.01079   2.09065
    A3        2.08912   0.00246   0.00000   0.00815   0.00815   2.09728
    A4        2.11523   0.00376   0.00000   0.01821   0.01820   2.13343
    A5        2.08365  -0.00201   0.00000  -0.00983  -0.00983   2.07383
    A6        2.08430  -0.00175   0.00000  -0.00838  -0.00838   2.07592
    A7        2.05144   0.00010   0.00000  -0.00153  -0.00152   2.04992
    A8        2.11267   0.00111   0.00000   0.00748   0.00747   2.12014
    A9        2.11908  -0.00121   0.00000  -0.00595  -0.00596   2.11312
   A10        2.13389  -0.00457   0.00000  -0.01799  -0.01799   2.11589
   A11        2.27895  -0.00230   0.00000  -0.00414  -0.00417   2.27478
   A12        1.87035   0.00687   0.00000   0.02213   0.02216   1.89251
   A13        2.07274   0.00883   0.00000   0.02988   0.02988   2.10262
   A14        1.86517  -0.00699   0.00000  -0.02178  -0.02175   1.84343
   A15        2.34527  -0.00184   0.00000  -0.00810  -0.00813   2.33714
   A16        2.07887  -0.00275   0.00000  -0.00963  -0.00963   2.06924
   A17        2.10306   0.00103   0.00000   0.00284   0.00284   2.10590
   A18        2.10125   0.00172   0.00000   0.00680   0.00679   2.10805
   A19        1.90743   0.00123   0.00000  -0.00373  -0.00373   1.90369
   A20        2.19023   0.00360   0.00000   0.02619   0.02620   2.21642
   A21        2.18553  -0.00483   0.00000  -0.02247  -0.02246   2.16307
   A22        1.86968  -0.00123   0.00000   0.00296   0.00295   1.87263
   A23        2.21717   0.00062   0.00000  -0.00144  -0.00143   2.21574
   A24        2.19633   0.00061   0.00000  -0.00152  -0.00151   2.19482
   A25        1.91215   0.00012   0.00000   0.00041   0.00038   1.91252
   A26        2.10250  -0.00279   0.00000  -0.01599  -0.01597   2.08653
   A27        2.26854   0.00267   0.00000   0.01557   0.01559   2.28413
    D1       -0.00001   0.00000   0.00000   0.00004   0.00004   0.00002
    D2       -3.14156  -0.00000   0.00000  -0.00001  -0.00001  -3.14156
    D3        3.14152   0.00000   0.00000   0.00007   0.00007  -3.14159
    D4       -0.00002   0.00000   0.00000   0.00003   0.00003   0.00001
    D5       -0.00003   0.00000   0.00000   0.00001   0.00000  -0.00003
    D6        3.14153   0.00000   0.00000   0.00006   0.00006   3.14159
    D7       -3.14157  -0.00000   0.00000  -0.00003  -0.00003   3.14159
    D8       -0.00001   0.00000   0.00000   0.00002   0.00002   0.00002
    D9        0.00003  -0.00000   0.00000  -0.00002  -0.00002   0.00001
   D10       -3.14154  -0.00000   0.00000  -0.00002  -0.00002  -3.14155
   D11        3.14158   0.00000   0.00000   0.00002   0.00002  -3.14159
   D12        0.00001   0.00000   0.00000   0.00003   0.00003   0.00004
   D13       -0.00001  -0.00000   0.00000  -0.00004  -0.00003  -0.00004
   D14       -3.14144  -0.00000   0.00000  -0.00005  -0.00004  -3.14148
   D15        3.14156  -0.00000   0.00000  -0.00004  -0.00004   3.14152
   D16        0.00013  -0.00000   0.00000  -0.00005  -0.00005   0.00009
   D17       -0.00004   0.00001   0.00000   0.00008   0.00008   0.00004
   D18       -3.14151  -0.00000   0.00000  -0.00008  -0.00009   3.14158
   D19        3.14143   0.00001   0.00000   0.00009   0.00008   3.14151
   D20       -0.00005   0.00000   0.00000  -0.00008  -0.00008  -0.00013
   D21       -3.14124  -0.00001   0.00000  -0.00041  -0.00042   3.14152
   D22       -0.00113   0.00001   0.00000   0.00023   0.00023  -0.00091
   D23        0.00049  -0.00001   0.00000  -0.00042  -0.00043   0.00007
   D24        3.14060   0.00001   0.00000   0.00022   0.00022   3.14083
   D25        0.00005  -0.00000   0.00000  -0.00006  -0.00006  -0.00000
   D26       -3.14151  -0.00000   0.00000  -0.00011  -0.00011   3.14156
   D27        3.14150   0.00000   0.00000   0.00016   0.00016  -3.14153
   D28       -0.00007   0.00000   0.00000   0.00010   0.00010   0.00004
   D29       -0.00041   0.00002   0.00000   0.00057   0.00056   0.00015
   D30        3.14139   0.00001   0.00000   0.00016   0.00015   3.14154
   D31        3.14132   0.00002   0.00000   0.00037   0.00036  -3.14150
   D32       -0.00006   0.00000   0.00000  -0.00005  -0.00005  -0.00011
   D33       -0.00077   0.00003   0.00000   0.00081   0.00080   0.00003
   D34        3.14133   0.00001   0.00000   0.00019   0.00019   3.14151
   D35       -3.14089   0.00000   0.00000   0.00013   0.00013  -3.14076
   D36        0.00121  -0.00002   0.00000  -0.00049  -0.00049   0.00072
   D37        0.00072  -0.00003   0.00000  -0.00083  -0.00083  -0.00011
   D38       -3.14144  -0.00000   0.00000  -0.00014  -0.00014  -3.14158
   D39       -3.14107  -0.00001   0.00000  -0.00042  -0.00043  -3.14150
   D40       -0.00005   0.00001   0.00000   0.00027   0.00026   0.00021
         Item               Value     Threshold  Converged?
 Maximum Force            0.047150     0.000450     NO 
 RMS     Force            0.008616     0.000300     NO 
 Maximum Displacement     0.104498     0.001800     NO 
 RMS     Displacement     0.026806     0.001200     NO 
 Predicted change in Energy=-6.776520D-03
 GradGradGradGradGradGradGradGradGradGradGradGradGradGradGradGradGradGrad

                          Input orientation:                          
 ---------------------------------------------------------------------
 Center     Atomic      Atomic             Coordinates (Angstroms)
 Number     Number       Type             X           Y           Z
 ---------------------------------------------------------------------
      1          6           0       -2.171384    0.701857    0.000008
      2          6           0       -2.121808   -0.693390    0.000020
      3          6           0       -0.902142   -1.403304    0.000037
      4          6           0        0.261836   -0.666151    0.000055
      5          6           0        0.234286    0.749954    0.000004
      6          6           0       -0.993293    1.440433   -0.000017
      7          7           0        1.583066   -1.078128   -0.000046
      8          6           0        1.585050    1.156104    0.000052
      9          6           0        2.371433   -0.008491   -0.000070
     10          1           0        1.928956   -2.045565    0.000586
     11          1           0        1.959695    2.173415   -0.000014
     12          1           0        3.448454   -0.137723   -0.000069
     13          1           0       -3.055174   -1.251037    0.000013
     14          1           0       -0.878051   -2.487201    0.000010
     15          1           0       -3.133651    1.208134   -0.000002
     16          1           0       -1.020371    2.528539   -0.000029
 ---------------------------------------------------------------------
                    Distance matrix (angstroms):
                    1          2          3          4          5
     1  C    0.000000
     2  C    1.396127   0.000000
     3  C    2.458185   1.411227   0.000000
     4  C    2.791416   2.383799   1.377766   0.000000
     5  C    2.406150   2.763045   2.434745   1.416372   0.000000
     6  C    1.390465   2.413866   2.845197   2.452151   1.408443
     7  N    4.155026   3.724797   2.506391   1.383971   2.271803
     8  C    3.783799   4.142635   3.568850   2.252001   1.410504
     9  C    4.598019   4.545141   3.558342   2.209733   2.267738
    10  H    4.935698   4.270488   2.903035   2.163810   3.269072
    11  H    4.385351   4.987709   4.580724   3.308453   2.236802
    12  H    5.682207   5.597909   4.530936   3.230135   3.334494
    13  H    2.143566   1.087264   2.158410   3.368181   3.850261
    14  H    3.441337   2.182817   1.084165   2.148387   3.422932
    15  H    1.087324   2.153977   3.435002   3.878436   3.398959
    16  H    2.159074   3.404995   3.933620   3.442396   2.176586
                    6          7          8          9         10
     6  C    0.000000
     7  N    3.602884   0.000000
     8  C    2.593972   2.234233   0.000000
     9  C    3.663436   1.328776   1.405233   0.000000
    10  H    4.548815   1.027412   3.220087   2.084576   0.000000
    11  H    3.042598   3.273283   1.084104   2.220415   4.219092
    12  H    4.713777   2.089027   2.268538   1.084747   2.439004
    13  H    3.390481   4.641462   5.227428   5.567045   5.047061
    14  H    3.929325   2.835945   4.397788   4.086949   2.841537
    15  H    2.152927   5.241604   4.718987   5.637918   6.018018
    16  H    1.088442   4.448138   2.944791   4.235664   5.442514
                   11         12         13         14         15
    11  H    0.000000
    12  H    2.749139   0.000000
    13  H    6.072544   6.598231   0.000000
    14  H    5.456570   4.923281   2.503591   0.000000
    15  H    5.184008   6.718291   2.460422   4.329345   0.000000
    16  H    3.001151   5.203782   4.292507   5.017759   2.491871
                   16
    16  H    0.000000
 Stoichiometry    C8H7N
 Framework group  C1[X(C8H7N)]
 Deg. of freedom    42
 Full point group                 C1      NOp   1
 Largest Abelian subgroup         C1      NOp   1
 Largest concise Abelian subgroup C1      NOp   1
                         Standard orientation:                         
 ---------------------------------------------------------------------
 Center     Atomic      Atomic             Coordinates (Angstroms)
 Number     Number       Type             X           Y           Z
 ---------------------------------------------------------------------
      1          6           0       -2.189942    0.635122   -0.000003
      2          6           0       -2.098756   -0.758024    0.000009
      3          6           0       -0.858451   -1.431229    0.000026
      4          6           0        0.283013   -0.659673    0.000044
      5          6           0        0.213221    0.754979   -0.000007
      6          6           0       -1.034413    1.408522   -0.000029
      7          7           0        1.615948   -1.032044   -0.000058
      8          6           0        1.551265    1.201253    0.000041
      9          6           0        2.372048    0.060641   -0.000081
     10          1           0        1.990551   -1.988729    0.000575
     11          1           0        1.895389    2.229290   -0.000026
     12          1           0        3.452446   -0.036397   -0.000080
     13          1           0       -3.015068   -1.343273    0.000001
     14          1           0       -0.802029   -2.513925   -0.000002
     15          1           0       -3.166887    1.112461   -0.000013
     16          1           0       -1.093947    2.495335   -0.000041
 ---------------------------------------------------------------------
 Rotational constants (GHZ):           3.9125903           1.6445479           1.1578697
 Standard basis: 6-31+G(d) (6D, 7F)
 There are   185 symmetry adapted cartesian basis functions of A   symmetry.
 There are   185 symmetry adapted basis functions of A   symmetry.
   185 basis functions,   316 primitive gaussians,   185 cartesian basis functions
    31 alpha electrons       31 beta electrons
       nuclear repulsion energy       401.4222790229 Hartrees.
 NAtoms=   16 NActive=   16 NUniq=   16 SFac= 1.00D+00 NAtFMM=   60 NAOKFM=F Big=F
 Integral buffers will be    131072 words long.
 Regular integral format.
 Two-electron integral symmetry is turned on.
 One-electron integrals computed using PRISM.
 NBasis=   185 RedAO= T EigKep=  1.19D-06  NBF=   185
 NBsUse=   185 1.00D-06 EigRej= -1.00D+00 NBFU=   185
 Initial guess from the checkpoint file:  "FuncsM06-V-1st.chk"
 B after Tr=     0.000000    0.000000    0.000000
         Rot=    0.999894    0.000009    0.000005   -0.014570 Ang=   1.67 deg.
 ExpMin= 4.38D-02 ExpMax= 4.17D+03 ExpMxC= 6.27D+02 IAcc=3 IRadAn=         5 AccDes= 0.00D+00
 Harris functional with IExCor= 1009 and IRadAn=       5 diagonalized for initial guess.
 HarFok:  IExCor= 1009 AccDes= 0.00D+00 IRadAn=         5 IDoV= 1 UseB2=F ITyADJ=14
 ICtDFT=  3500011 ScaDFX=  1.000000  1.000000  1.000000  1.000000
 FoFCou: FMM=F IPFlag=           0 FMFlag=      100000 FMFlg1=           0
         NFxFlg=           0 DoJE=T BraDBF=F KetDBF=T FulRan=T
         wScrn=  0.000000 ICntrl=       500 IOpCl=  0 I1Cent=   200000004 NGrid=           0
         NMat0=    1 NMatS0=      1 NMatT0=    0 NMatD0=    1 NMtDS0=    0 NMtDT0=    0
 Petite list used in FoFCou.
 Keep R1 ints in memory in canonical form, NReq=152074523.
 Requested convergence on RMS density matrix=1.00D-08 within 128 cycles.
 Requested convergence on MAX density matrix=1.00D-06.
 Requested convergence on             energy=1.00D-06.
 No special actions if energy rises.
 SCF Done:  E(RM06) =  -363.545834775     A.U. after   14 cycles
            NFock= 14  Conv=0.71D-08     -V/T= 2.0111
 DoSCS=F DFT=T ScalE2(SS,OS)=  1.000000  1.000000
 ExpMin= 4.38D-02 ExpMax= 4.17D+03 ExpMxC= 6.27D+02 IAcc=3 IRadAn=         5 AccDes= 0.00D+00
 HarFok:  IExCor=  205 AccDes= 0.00D+00 IRadAn=         5 IDoV=-2 UseB2=F ITyADJ=14
 ICtDFT= 12500011 ScaDFX=  1.000000  1.000000  1.000000  1.000000
 Range of M.O.s used for correlation:    10   185
 NBasis=   185 NAE=    31 NBE=    31 NFC=     9 NFV=     0
 NROrb=    176 NOA=    22 NOB=    22 NVA=   154 NVB=   154

 **** Warning!!: The largest alpha MO coefficient is  0.19526629D+03

 Orbital symmetries:
       Occupied  (A) (A) (A) (A) (A) (A) (A) (A) (A) (A) (A) (A)
                 (A) (A) (A) (A) (A) (A) (A) (A) (A) (A) (A) (A)
                 (A) (A) (A) (A) (A) (A) (A)
       Virtual   (A) (A) (A) (A) (A) (A) (A) (A) (A) (A) (A) (A)
                 (A) (A) (A) (A) (A) (A) (A) (A) (A) (A) (A) (A)
                 (A) (A) (A) (A) (A) (A) (A) (A) (A) (A) (A) (A)
                 (A) (A) (A) (A) (A) (A) (A) (A) (A) (A) (A) (A)
                 (A) (A) (A) (A) (A) (A) (A) (A) (A) (A) (A) (A)
                 (A) (A) (A) (A) (A) (A) (A) (A) (A) (A) (A) (A)
                 (A) (A) (A) (A) (A) (A) (A) (A) (A) (A) (A) (A)
                 (A) (A) (A) (A) (A) (A) (A) (A) (A) (A) (A) (A)
                 (A) (A) (A) (A) (A) (A) (A) (A) (A) (A) (A) (A)
                 (A) (A) (A) (A) (A) (A) (A) (A) (A) (A) (A) (A)
                 (A) (A) (A) (A) (A) (A) (A) (A) (A) (A) (A) (A)
                 (A) (A) (A) (A) (A) (A) (A) (A) (A) (A) (A) (A)
                 (A) (A) (A) (A) (A) (A) (A) (A) (A) (A)
 Generating guess from densities on rwf.
 Convergence on wavefunction:    0.000001000000000
 Iteration     1 Dimension    12 NMult     0 NNew     12
 CISAX will form    12 AO SS matrices at one time.
 New state      1 was old state      3
 New state      2 was old state      4
 New state      3 was old state      5
 New state      4 was old state      6
 New state      5 was old state      1
 New state      6 was old state      2
 Iteration     2 Dimension    24 NMult    12 NNew     12
 New state      1 was old state      2
 New state      2 was old state      1
 New state      3 was old state      4
 New state      4 was old state      3
 No map to state      6
 Iteration     3 Dimension    36 NMult    24 NNew     12
 New state      3 was old state      5
 New state      4 was old state      3
 New state      5 was old state      4
 Iteration     4 Dimension    48 NMult    36 NNew     12
 Iteration     5 Dimension    60 NMult    48 NNew     12
 New state      5 was old state      6
 New state      6 was old state      5
 Iteration     6 Dimension    72 NMult    60 NNew     12
 Iteration     7 Dimension    84 NMult    72 NNew     12
 Iteration     8 Dimension    96 NMult    84 NNew     12
 Iteration     9 Dimension   108 NMult    96 NNew     12
 Iteration    10 Dimension   120 NMult   108 NNew     12
 Iteration    11 Dimension   128 NMult   120 NNew      8
 Iteration    12 Dimension   130 NMult   128 NNew      2
 Iteration    13 Dimension   132 NMult   130 NNew      2
 ***********************************************************************
 Excited states from <AA,BB:AA,BB> singles matrix:
 ***********************************************************************
 
 Ground to excited state transition densities written to RWF  633
 Ground to excited state transition electric dipole moments (Au):
       state          X           Y           Z        Dip. S.      Osc.
         1        -0.0000      0.0000     -0.0293      0.0009      0.0001
         2        -0.9150      0.5868      0.0001      1.1816      0.1284
         3        -0.0001      0.0001     -0.0900      0.0081      0.0008
         4         0.0000     -0.0000      0.0607      0.0037      0.0004
         5        -0.0002     -0.0003     -0.0635      0.0040      0.0005
         6        -0.0440     -0.1826      0.0001      0.0353      0.0042
 Ground to excited state transition velocity dipole moments (Au):
       state          X           Y           Z        Dip. S.      Osc.
         1         0.0000     -0.0000      0.0072      0.0001      0.0002
         2         0.1440     -0.1069     -0.0000      0.0322      0.1315
         3         0.0000     -0.0000      0.0061      0.0000      0.0002
         4        -0.0000      0.0000     -0.0075      0.0001      0.0002
         5         0.0000      0.0001      0.0157      0.0002      0.0009
         6         0.0063      0.0351     -0.0000      0.0013      0.0048
 Ground to excited state transition magnetic dipole moments (Au):
       state          X           Y           Z
         1         0.1356     -0.1610      0.0001
         2        -0.0000      0.0001      0.1809
         3         0.1243     -0.0517      0.0001
         4         0.1088      0.1615      0.0000
         5        -0.0125     -0.1485      0.0001
         6        -0.0001      0.0002      0.0935
 Ground to excited state transition velocity quadrupole moments (Au):
       state          XX          YY          ZZ          XY          XZ          YZ
         1         0.0000     -0.0001     -0.0000     -0.0000      0.1669      0.1212
         2         0.2220     -0.1608      0.0256      0.0601     -0.0001     -0.0000
         3         0.0000     -0.0000      0.0000      0.0000      0.0391      0.0430
         4         0.0000      0.0000      0.0000      0.0000     -0.1190      0.0307
         5         0.0000     -0.0001     -0.0000      0.0000      0.0837     -0.0490
         6        -0.0389     -0.0390      0.0108      0.0222     -0.0001      0.0000
 <0|del|b> * <b|rxdel|0> + <0|del|b> * <b|delr+rdel|0>
 Rotatory Strengths (R) in cgs (10**-40 erg-esu-cm/Gauss)
       state          XX          YY          ZZ    R(velocity)    E-M Angle
         1         0.0054      0.0016     -0.0000      0.0023       90.00
         2        -0.0415     -0.0171     -0.0116     -0.0234       90.00
         3         0.0054      0.0061      0.0030      0.0048       90.00
         4         0.0043      0.0001      0.0006      0.0017       90.00
         5        -0.0212     -0.0009     -0.0051     -0.0091       90.00
         6         0.0178     -0.0038      0.0024      0.0055       90.00
 1/2[<0|r|b>*<b|rxdel|0> + (<0|rxdel|b>*<b|r|0>)*]
 Rotatory Strengths (R) in cgs (10**-40 erg-esu-cm/Gauss)
       state          XX          YY          ZZ     R(length)
         1         0.0019      0.0026      0.0013      0.0019
         2        -0.0140     -0.0458     -0.0067     -0.0222
         3         0.0065      0.0025      0.0064      0.0051
         4        -0.0013      0.0046     -0.0001      0.0011
         5        -0.0015     -0.0272      0.0045     -0.0081
         6        -0.0022      0.0253     -0.0071      0.0053
  1/2[<0|del|b>*<b|r|0> + (<0|r|b>*<b|del|0>)*] (Au)
       state          X           Y           Z        Dip. S.   Osc.(frdel)
         1        -0.0000     -0.0000     -0.0002      0.0002      0.0001
         2        -0.1318     -0.0627     -0.0000      0.1945      0.1297
         3        -0.0000     -0.0000     -0.0005      0.0005      0.0004
         4        -0.0000     -0.0000     -0.0005      0.0005      0.0003
         5        -0.0000     -0.0000     -0.0010      0.0010      0.0007
         6        -0.0003     -0.0064     -0.0000      0.0067      0.0045

 Excitation energies and oscillator strengths:
 
 Excited State   1:      Singlet-A      4.5685 eV  271.39 nm  f=0.0001  <S**2>=0.000
      31 -> 34         0.70248
 This state for optimization and/or second-order correction.
 Total Energy, E(TD-HF/TD-DFT) =  -363.377947095    
 Copying the excited state density for this state as the 1-particle RhoCI density.
 
 Excited State   2:      Singlet-A      4.4358 eV  279.51 nm  f=0.1284  <S**2>=0.000
      30 -> 38         0.13590
      31 -> 33         0.67957
 
 Excited State   3:      Singlet-A      3.8687 eV  320.48 nm  f=0.0008  <S**2>=0.000
      31 -> 32         0.70437
 
 Excited State   4:      Singlet-A      4.6534 eV  266.44 nm  f=0.0004  <S**2>=0.000
      31 -> 35         0.70100
 
 Excited State   5:      Singlet-A      4.8057 eV  257.99 nm  f=0.0005  <S**2>=0.000
      30 -> 32         0.70079
 
 Excited State   6:      Singlet-A      4.8360 eV  256.38 nm  f=0.0042  <S**2>=0.000
      30 -> 33         0.52882
      31 -> 38        -0.44459
 SavETr:  write IOETrn=   770 NScale= 10 NData=  16 NLR=1 NState=    6 LETran=     118.
          IDoAtm=1111111111111111
          Differentiating once with respect to electric field.
                with respect to dipole field.
          Differentiating once with respect to nuclear coordinates.
 Keep R1 ints in memory in canonical form, NReq=152086915.
          There are     1 degrees of freedom in the 1st order CPHF.  IDoFFX=0 NUNeed=     1.
 LinEq1:  Iter=  0 NonCon=     1 RMS=1.58D-02 Max=3.22D-01 NDo=     1
 AX will form     1 AO Fock derivatives at one time.
 LinEq1:  Iter=  1 NonCon=     1 RMS=8.43D-03 Max=1.91D-01 NDo=     1
 LinEq1:  Iter=  2 NonCon=     1 RMS=5.31D-03 Max=1.19D-01 NDo=     1
 LinEq1:  Iter=  3 NonCon=     1 RMS=1.60D-03 Max=3.79D-02 NDo=     1
 LinEq1:  Iter=  4 NonCon=     1 RMS=1.30D-03 Max=5.36D-02 NDo=     1
 LinEq1:  Iter=  5 NonCon=     1 RMS=6.15D-04 Max=1.20D-02 NDo=     1
 LinEq1:  Iter=  6 NonCon=     1 RMS=4.87D-04 Max=1.44D-02 NDo=     1
 LinEq1:  Iter=  7 NonCon=     1 RMS=1.72D-04 Max=4.75D-03 NDo=     1
 LinEq1:  Iter=  8 NonCon=     1 RMS=6.34D-05 Max=1.25D-03 NDo=     1
 LinEq1:  Iter=  9 NonCon=     1 RMS=3.93D-05 Max=1.26D-03 NDo=     1
 LinEq1:  Iter= 10 NonCon=     1 RMS=1.87D-05 Max=4.64D-04 NDo=     1
 LinEq1:  Iter= 11 NonCon=     1 RMS=1.05D-05 Max=2.17D-04 NDo=     1
 LinEq1:  Iter= 12 NonCon=     1 RMS=2.73D-06 Max=3.72D-05 NDo=     1
 LinEq1:  Iter= 13 NonCon=     1 RMS=1.72D-06 Max=2.89D-05 NDo=     1
 LinEq1:  Iter= 14 NonCon=     1 RMS=5.91D-07 Max=7.59D-06 NDo=     1
 LinEq1:  Iter= 15 NonCon=     1 RMS=2.07D-07 Max=2.22D-06 NDo=     1
 LinEq1:  Iter= 16 NonCon=     1 RMS=1.04D-07 Max=1.36D-06 NDo=     1
 LinEq1:  Iter= 17 NonCon=     1 RMS=2.09D-08 Max=2.64D-07 NDo=     1
 LinEq1:  Iter= 18 NonCon=     1 RMS=5.47D-09 Max=1.15D-07 NDo=     1
 LinEq1:  Iter= 19 NonCon=     1 RMS=2.80D-09 Max=5.51D-08 NDo=     1
 LinEq1:  Iter= 20 NonCon=     1 RMS=1.15D-09 Max=1.77D-08 NDo=     1
 LinEq1:  Iter= 21 NonCon=     1 RMS=2.44D-10 Max=4.94D-09 NDo=     1
 LinEq1:  Iter= 22 NonCon=     1 RMS=7.37D-11 Max=1.96D-09 NDo=     1
 LinEq1:  Iter= 23 NonCon=     0 RMS=2.39D-11 Max=3.48D-10 NDo=     1
 Linear equations converged to 1.000D-10 1.000D-09 after    23 iterations.
 End of Minotr F.D. properties file   721 does not exist.
 End of Minotr F.D. properties file   722 does not exist.
 End of Minotr F.D. properties file   788 does not exist.
 Calling FoFJK, ICntrl=  10005127 FMM=F ISym2X=0 I1Cent= 0 IOpClX= 0 NMat=1 NMatS=1 NMatT=0.
 ***** Axes restored to original set *****
 -------------------------------------------------------------------
 Center     Atomic                   Forces (Hartrees/Bohr)
 Number     Number              X              Y              Z
 -------------------------------------------------------------------
      1        6           0.003470211   -0.002608880   -0.000001205
      2        6           0.003389085    0.004753031    0.000000637
      3        6           0.006132625    0.000904310    0.000001768
      4        6          -0.031004988   -0.001710802   -0.000007903
      5        6           0.015573339   -0.002331237    0.000009222
      6        6          -0.004548020    0.001087054    0.000002582
      7        7           0.009501621   -0.015356554    0.000024807
      8        6          -0.008179669    0.009490246   -0.000024937
      9        6           0.010068901   -0.001053705    0.000015641
     10        1          -0.006779458    0.009551302   -0.000024432
     11        1           0.002542097   -0.000584832    0.000001923
     12        1           0.001871839    0.004740824    0.000000947
     13        1          -0.000025507   -0.002505818    0.000000038
     14        1          -0.002563369   -0.004815853    0.000001188
     15        1          -0.000341219    0.000303414    0.000000085
     16        1           0.000892510    0.000137501   -0.000000362
 -------------------------------------------------------------------
 Cartesian Forces:  Max     0.031004988 RMS     0.006642711

 GradGradGradGradGradGradGradGradGradGradGradGradGradGradGradGradGradGrad
 Berny optimization.
 Using GEDIIS/GDIIS optimizer.
 FormGI is forming the generalized inverse of G from B-inverse, IUseBI=4.
 Internal  Forces:  Max     0.011498947 RMS     0.003233779
 Search for a local minimum.
 Step number   2 out of a maximum of   94
 All quantities printed in internal units (Hartrees-Bohrs-Radians)
 Mixed Optimization -- RFO/linear search
 Update second derivatives using D2CorX and points    2    1
 DE=  1.81D-02 DEPred=-6.78D-03 R=-2.67D+00
 Trust test=-2.67D+00 RLast= 1.71D-01 DXMaxT set to 1.50D-01
 ITU= -1  0
 Use linear search instead of GDIIS.
     Eigenvalues ---    0.01856   0.01932   0.01987   0.02011   0.02070
     Eigenvalues ---    0.02113   0.02148   0.02158   0.02172   0.02210
     Eigenvalues ---    0.02233   0.02248   0.02343   0.15839   0.16000
     Eigenvalues ---    0.16000   0.16000   0.16000   0.16000   0.16505
     Eigenvalues ---    0.21540   0.22172   0.22493   0.24446   0.25360
     Eigenvalues ---    0.34498   0.35735   0.35785   0.35813   0.36253
     Eigenvalues ---    0.36430   0.36872   0.37757   0.41643   0.43466
     Eigenvalues ---    0.44466   0.46237   0.46890   0.47388   0.48075
     Eigenvalues ---    0.48547   0.64791
 RFO step:  Lambda=-1.40151153D-03 EMin= 1.85560692D-02
 Quartic linear search produced a step of -0.90884.
 Iteration  1 RMS(Cart)=  0.03221940 RMS(Int)=  0.00050123
 Iteration  2 RMS(Cart)=  0.00054372 RMS(Int)=  0.00010057
 Iteration  3 RMS(Cart)=  0.00000042 RMS(Int)=  0.00010057
 Variable       Old X    -DE/DX   Delta X   Delta X   Delta X     New X
                                 (Linear)    (Quad)   (Total)
    R1        2.63830  -0.00113   0.01561  -0.00302   0.01258   2.65088
    R2        2.62760  -0.00114  -0.01335   0.00144  -0.01191   2.61569
    R3        2.05475   0.00045  -0.00957  -0.00100  -0.01057   2.04417
    R4        2.66683  -0.00321  -0.04659   0.00858  -0.03801   2.62882
    R5        2.05463   0.00130  -0.00956  -0.00078  -0.01034   2.04429
    R6        2.60360  -0.00526   0.02739  -0.00443   0.02297   2.62657
    R7        2.04878   0.00475  -0.00312   0.00084  -0.00229   2.04649
    R8        2.67656   0.00273   0.00366   0.00128   0.00494   2.68149
    R9        2.61533   0.01116  -0.01278   0.00686  -0.00593   2.60940
   R10        2.66157   0.00137  -0.01260   0.00180  -0.01079   2.65078
   R11        2.66547  -0.00150   0.03901  -0.00368   0.03533   2.70079
   R12        2.05686   0.00012  -0.01054  -0.00122  -0.01176   2.04510
   R13        2.51102   0.01150   0.08607  -0.01479   0.07128   2.58230
   R14        1.94153  -0.01127  -0.04190   0.00500  -0.03690   1.90463
   R15        2.65551   0.00442  -0.06981   0.01749  -0.05231   2.60319
   R16        2.04866   0.00032  -0.01315  -0.00118  -0.01433   2.03433
   R17        2.04987   0.00130  -0.01415  -0.00103  -0.01518   2.03469
    A1        2.09526   0.00201   0.01721   0.01149   0.02868   2.12394
    A2        2.09065  -0.00088  -0.00980  -0.00757  -0.01736   2.07329
    A3        2.09728  -0.00114  -0.00741  -0.00392  -0.01132   2.08596
    A4        2.13343   0.00161  -0.01654  -0.01515  -0.03171   2.10172
    A5        2.07383   0.00137   0.00893   0.00985   0.01879   2.09262
    A6        2.07592  -0.00298   0.00761   0.00530   0.01292   2.08884
    A7        2.04992  -0.00452   0.00138   0.00176   0.00314   2.05306
    A8        2.12014  -0.00049  -0.00679  -0.01210  -0.01889   2.10125
    A9        2.11312   0.00501   0.00541   0.01034   0.01575   2.12888
   A10        2.11589   0.00749   0.01635   0.01417   0.03054   2.14644
   A11        2.27478  -0.00005   0.00379  -0.00144   0.00235   2.27713
   A12        1.89251  -0.00745  -0.02014  -0.01272  -0.03289   1.85961
   A13        2.10262  -0.00561  -0.02715  -0.01654  -0.04367   2.05895
   A14        1.84343   0.00877   0.01977   0.01197   0.03171   1.87514
   A15        2.33714  -0.00316   0.00739   0.00457   0.01195   2.34910
   A16        2.06924  -0.00099   0.00875   0.00427   0.01302   2.08226
   A17        2.10590   0.00143  -0.00258   0.00124  -0.00134   2.10456
   A18        2.10805  -0.00044  -0.00617  -0.00551  -0.01168   2.09636
   A19        1.90369   0.00181   0.00339   0.01074   0.01411   1.91780
   A20        2.21642  -0.00399  -0.02381  -0.04213  -0.06595   2.15047
   A21        2.16307   0.00219   0.02041   0.03138   0.05177   2.21484
   A22        1.87263  -0.00077  -0.00268  -0.00896  -0.01165   1.86098
   A23        2.21574   0.00305   0.00130   0.00593   0.00722   2.22296
   A24        2.19482  -0.00228   0.00138   0.00303   0.00440   2.19922
   A25        1.91252  -0.00237  -0.00034  -0.00103  -0.00139   1.91113
   A26        2.08653   0.00622   0.01451   0.02608   0.04056   2.12710
   A27        2.28413  -0.00385  -0.01417  -0.02504  -0.03923   2.24490
    D1        0.00002  -0.00000  -0.00003  -0.00060  -0.00064  -0.00061
    D2       -3.14156  -0.00000   0.00000   0.00003   0.00005  -3.14152
    D3       -3.14159  -0.00000  -0.00007  -0.00114  -0.00121   3.14038
    D4        0.00001  -0.00000  -0.00003  -0.00051  -0.00053  -0.00052
    D5       -0.00003   0.00000  -0.00000   0.00001  -0.00001  -0.00004
    D6        3.14159  -0.00000  -0.00005  -0.00091  -0.00098   3.14061
    D7        3.14159   0.00000   0.00003   0.00055   0.00057  -3.14103
    D8        0.00002  -0.00000  -0.00002  -0.00037  -0.00040  -0.00038
    D9        0.00001   0.00000   0.00002   0.00031   0.00035   0.00036
   D10       -3.14155  -0.00000   0.00002   0.00016   0.00020  -3.14135
   D11       -3.14159   0.00000  -0.00002  -0.00032  -0.00033   3.14127
   D12        0.00004  -0.00000  -0.00002  -0.00047  -0.00048  -0.00045
   D13       -0.00004  -0.00000   0.00003   0.00056   0.00057   0.00053
   D14       -3.14148  -0.00000   0.00004   0.00037   0.00046  -3.14102
   D15        3.14152   0.00000   0.00004   0.00071   0.00072  -3.14094
   D16        0.00009   0.00000   0.00004   0.00052   0.00061   0.00070
   D17        0.00004   0.00000  -0.00007  -0.00116  -0.00119  -0.00115
   D18        3.14158   0.00000   0.00008   0.00138   0.00149  -3.14011
   D19        3.14151   0.00000  -0.00007  -0.00100  -0.00111   3.14040
   D20       -0.00013   0.00000   0.00008   0.00153   0.00158   0.00144
   D21        3.14152   0.00000   0.00038   0.00714   0.00737  -3.13430
   D22       -0.00091   0.00001  -0.00021  -0.00401  -0.00389  -0.00479
   D23        0.00007   0.00000   0.00039   0.00696   0.00727   0.00734
   D24        3.14083   0.00001  -0.00020  -0.00418  -0.00398   3.13684
   D25       -0.00000  -0.00000   0.00005   0.00084   0.00088   0.00088
   D26        3.14156   0.00000   0.00010   0.00176   0.00185  -3.13977
   D27       -3.14153  -0.00000  -0.00014  -0.00255  -0.00271   3.13894
   D28        0.00004  -0.00000  -0.00009  -0.00163  -0.00174  -0.00171
   D29        0.00015  -0.00001  -0.00051  -0.00894  -0.00962  -0.00947
   D30        3.14154  -0.00000  -0.00013  -0.00219  -0.00241   3.13912
   D31       -3.14150  -0.00000  -0.00033  -0.00591  -0.00630   3.13539
   D32       -0.00011   0.00000   0.00005   0.00084   0.00091   0.00080
   D33        0.00003  -0.00001  -0.00073  -0.01280  -0.01374  -0.01371
   D34        3.14151  -0.00000  -0.00017  -0.00294  -0.00311   3.13840
   D35       -3.14076  -0.00001  -0.00011  -0.00202  -0.00190   3.14052
   D36        0.00072  -0.00000   0.00045   0.00783   0.00873   0.00945
   D37       -0.00011   0.00001   0.00076   0.01367   0.01426   0.01415
   D38       -3.14158   0.00000   0.00013   0.00233   0.00270  -3.13888
   D39       -3.14150   0.00000   0.00039   0.00703   0.00718  -3.13432
   D40        0.00021  -0.00000  -0.00024  -0.00432  -0.00438  -0.00417
         Item               Value     Threshold  Converged?
 Maximum Force            0.011499     0.000450     NO 
 RMS     Force            0.003234     0.000300     NO 
 Maximum Displacement     0.157244     0.001800     NO 
 RMS     Displacement     0.032220     0.001200     NO 
 Predicted change in Energy=-2.235200D-02
 GradGradGradGradGradGradGradGradGradGradGradGradGradGradGradGradGradGrad

                          Input orientation:                          
 ---------------------------------------------------------------------
 Center     Atomic      Atomic             Coordinates (Angstroms)
 Number     Number       Type             X           Y           Z
 ---------------------------------------------------------------------
      1          6           0       -2.147664    0.683012    0.001411
      2          6           0       -2.134094   -0.719708    0.000907
      3          6           0       -0.927729   -1.412438   -0.000913
      4          6           0        0.244480   -0.665579   -0.001745
      5          6           0        0.256345    0.753356   -0.000197
      6          6           0       -0.977003    1.421565    0.000853
      7          7           0        1.564784   -1.069920   -0.004107
      8          6           0        1.623392    1.170223   -0.003688
[...]
 ! A24   A(9,8,11)             125.8324         -DE/DX =   -0.002               !
 ! A25   A(7,9,8)              109.5472         -DE/DX =   -0.0005              !
 ! A26   A(7,9,12)             120.4749         -DE/DX =    0.0022              !
 ! A27   A(8,9,12)             129.9779         -DE/DX =   -0.0017              !
 ! D1    D(6,1,2,3)             -0.0008         -DE/DX =    0.0                 !
 ! D2    D(6,1,2,13)          -179.9981         -DE/DX =    0.0                 !
 ! D3    D(15,1,2,3)           179.996          -DE/DX =    0.0                 !
 ! D4    D(15,1,2,13)           -0.0013         -DE/DX =    0.0                 !
 ! D5    D(2,1,6,5)             -0.0018         -DE/DX =    0.0                 !
 ! D6    D(2,1,6,16)           179.9965         -DE/DX =    0.0                 !
 ! D7    D(15,1,6,5)          -179.9986         -DE/DX =    0.0                 !
 ! D8    D(15,1,6,16)           -0.0003         -DE/DX =    0.0                 !
 ! D9    D(1,2,3,4)              0.002          -DE/DX =    0.0                 !
 ! D10   D(1,2,3,14)          -179.9968         -DE/DX =    0.0                 !
 ! D11   D(13,2,3,4)           179.9992         -DE/DX =    0.0                 !
 ! D12   D(13,2,3,14)            0.0005         -DE/DX =    0.0                 !
 ! D13   D(2,3,4,5)             -0.0005         -DE/DX =    0.0                 !
 ! D14   D(2,3,4,7)           -179.9911         -DE/DX =    0.0                 !
 ! D15   D(14,3,4,5)           179.9982         -DE/DX =    0.0                 !
 ! D16   D(14,3,4,7)             0.0076         -DE/DX =    0.0                 !
 ! D17   D(3,4,5,6)             -0.002          -DE/DX =    0.0                 !
 ! D18   D(3,4,5,8)           -179.9955         -DE/DX =    0.0                 !
 ! D19   D(7,4,5,6)            179.9905         -DE/DX =    0.0                 !
 ! D20   D(7,4,5,8)             -0.003          -DE/DX =    0.0                 !
 ! D21   D(3,4,7,9)           -179.98           -DE/DX =    0.0                 !
 ! D22   D(3,4,7,10)            -0.0649         -DE/DX =    0.0                 !
 ! D23   D(5,4,7,9)              0.0283         -DE/DX =    0.0                 !
 ! D24   D(5,4,7,10)           179.9434         -DE/DX =    0.0                 !
 ! D25   D(4,5,6,1)              0.0031         -DE/DX =    0.0                 !
 ! D26   D(4,5,6,16)          -179.9951         -DE/DX =    0.0                 !
 ! D27   D(8,5,6,1)            179.9944         -DE/DX =    0.0                 !
 ! D28   D(8,5,6,16)            -0.0038         -DE/DX =    0.0                 !
 ! D29   D(4,5,8,9)             -0.0233         -DE/DX =    0.0                 !
 ! D30   D(4,5,8,11)           179.9884         -DE/DX =    0.0                 !
 ! D31   D(6,5,8,9)            179.9847         -DE/DX =    0.0                 !
 ! D32   D(6,5,8,11)            -0.0037         -DE/DX =    0.0                 !
 ! D33   D(4,7,9,8)             -0.0442         -DE/DX =    0.0                 !
 ! D34   D(4,7,9,12)           179.9847         -DE/DX =    0.0                 !
 ! D35   D(10,7,9,8)          -179.9597         -DE/DX =    0.0                 !
 ! D36   D(10,7,9,12)            0.0693         -DE/DX =    0.0                 !
 ! D37   D(5,8,9,7)              0.0412         -DE/DX =    0.0                 !
 ! D38   D(5,8,9,12)          -179.9914         -DE/DX =    0.0                 !
 ! D39   D(11,8,9,7)          -179.9702         -DE/DX =    0.0                 !
 ! D40   D(11,8,9,12)           -0.0028         -DE/DX =    0.0                 !
 --------------------------------------------------------------------------------
 GradGradGradGradGradGradGradGradGradGradGradGradGradGradGradGradGradGrad

                          Input orientation:                          
 ---------------------------------------------------------------------
 Center     Atomic      Atomic             Coordinates (Angstroms)
 Number     Number       Type             X           Y           Z
 ---------------------------------------------------------------------
      1          6           0       -2.161734    0.693003    0.000085
      2          6           0       -2.128113   -0.704462    0.000057
      3          6           0       -0.916664   -1.408595   -0.000032
      4          6           0        0.248625   -0.666477   -0.000046
      5          6           0        0.245029    0.750177    0.000010
      6          6           0       -0.986055    1.431858    0.000043
      7          7           0        1.574125   -1.079302   -0.000281
      8          6           0        1.604665    1.162108   -0.000126
      9          6           0        2.383146    0.009301    0.000242
     10          1           0        1.890589   -2.039312    0.000430
     11          1           0        1.979565    2.176278   -0.000294
     12          1           0        3.459130   -0.102879    0.000394
     13          1           0       -3.061682   -1.257983    0.000060
     14          1           0       -0.898693   -2.495500   -0.000105
     15          1           0       -3.119956    1.202063    0.000089
     16          1           0       -1.015074    2.517168    0.000011
 ---------------------------------------------------------------------
                    Distance matrix (angstroms):
                    1          2          3          4          5
     1  C    0.000000
     2  C    1.397869   0.000000
     3  C    2.442726   1.401218   0.000000
     4  C    2.767312   2.377042   1.381535   0.000000
     5  C    2.407442   2.783484   2.451495   1.416658   0.000000
     6  C    1.388570   2.422429   2.841300   2.434635   1.407217
     7  N    4.134937   3.721166   2.512462   1.388299   2.261302
     8  C    3.795500   4.173454   3.600780   2.276525   1.420668
     9  C    4.596018   4.567375   3.591542   2.238940   2.262839
    10  H    4.887419   4.234595   2.877234   2.140262   3.238690
    11  H    4.398916   5.017140   4.608629   3.328274   2.245525
    12  H    5.676931   5.619537   4.566451   3.259599   3.325380
    13  H    2.148547   1.085327   2.150298   3.362739   3.868727
    14  H    3.429551   2.172393   1.087054   2.159089   3.441296
    15  H    1.085049   2.149090   3.416142   3.852114   3.395192
    16  H    2.154625   3.408484   3.926996   3.425279   2.170281
                    6          7          8          9         10
     6  C    0.000000
     7  N    3.586147   0.000000
     8  C    2.604726   2.241617   0.000000
     9  C    3.657210   1.356308   1.391041   0.000000
    10  H    4.508227   1.010826   3.214163   2.106995   0.000000
    11  H    3.057624   3.280729   1.081246   2.204239   4.216529
    12  H    4.702669   2.122886   2.244824   1.081817   2.492006
    13  H    3.397569   4.639249   5.256580   5.590363   5.013528
    14  H    3.928330   2.849639   4.432256   4.128497   2.826341
    15  H    2.146238   5.219101   4.724790   5.630880   5.967585
    16  H    1.085698   4.431540   2.949445   4.223423   5.404109
                   11         12         13         14         15
    11  H    0.000000
    12  H    2.717292   0.000000
    13  H    6.099863   6.622330   0.000000
    14  H    5.487247   4.971444   2.491981   0.000000
    15  H    5.191744   6.707254   2.460736   4.313465   0.000000
    16  H    3.013979   5.184897   4.294226   5.014019   2.481941
                   16
    16  H    0.000000
 Stoichiometry    C8H7N
 Framework group  C1[X(C8H7N)]
 Deg. of freedom    42
 Full point group                 C1      NOp   1
 Largest Abelian subgroup         C1      NOp   1
 Largest concise Abelian subgroup C1      NOp   1
                         Standard orientation:                         
 ---------------------------------------------------------------------
 Center     Atomic      Atomic             Coordinates (Angstroms)
 Number     Number       Type             X           Y           Z
 ---------------------------------------------------------------------
      1          6           0       -2.170532    0.663430    0.000085
      2          6           0       -2.118316   -0.733464    0.000056
      3          6           0       -0.897603   -1.421412   -0.000032
      4          6           0        0.257707   -0.663851   -0.000046
      5          6           0        0.235257    0.752629    0.000010
      6          6           0       -1.004791    1.417866    0.000043
      7          7           0        1.588583   -1.058999   -0.000282
      8          6           0        1.589290    1.182619   -0.000126
      9          6           0        2.383044    0.040274    0.000241
     10          1           0        1.917795   -2.014712    0.000430
     11          1           0        1.950660    2.201689   -0.000294
     12          1           0        3.460427   -0.057576    0.000394
     13          1           0       -3.044435   -1.299361    0.000060
     14          1           0       -0.865168   -2.507981   -0.000105
     15          1           0       -3.135444    1.159692    0.000089
     16          1           0       -1.048251    2.502694    0.000011
 ---------------------------------------------------------------------
 Rotational constants (GHZ):           3.9059509           1.6401108           1.1550886

 **********************************************************************

            Population analysis using the CI Density.

 **********************************************************************

 Orbital symmetries:
       Occupied  (A) (A) (A) (A) (A) (A) (A) (A) (A) (A) (A) (A)
                 (A) (A) (A) (A) (A) (A) (A) (A) (A) (A) (A) (A)
                 (A) (A) (A) (A) (A) (A) (A)
       Virtual   (A) (A) (A) (A) (A) (A) (A) (A) (A) (A) (A) (A)
                 (A) (A) (A) (A) (A) (A) (A) (A) (A) (A) (A) (A)
                 (A) (A) (A) (A) (A) (A) (A) (A) (A) (A) (A) (A)
                 (A) (A) (A) (A) (A) (A) (A) (A) (A) (A) (A) (A)
                 (A) (A) (A) (A) (A) (A) (A) (A) (A) (A) (A) (A)
                 (A) (A) (A) (A) (A) (A) (A) (A) (A) (A) (A) (A)
                 (A) (A) (A) (A) (A) (A) (A) (A) (A) (A) (A) (A)
                 (A) (A) (A) (A) (A) (A) (A) (A) (A) (A) (A) (A)
                 (A) (A) (A) (A) (A) (A) (A) (A) (A) (A) (A) (A)
                 (A) (A) (A) (A) (A) (A) (A) (A) (A) (A) (A) (A)
                 (A) (A) (A) (A) (A) (A) (A) (A) (A) (A) (A) (A)
                 (A) (A) (A) (A) (A) (A) (A) (A) (A) (A) (A) (A)
                 (A) (A) (A) (A) (A) (A) (A) (A) (A) (A)
 The electronic state is 1-A.
 Alpha  occ. eigenvalues --  -14.46182 -10.29606 -10.29198 -10.26299 -10.25819
 Alpha  occ. eigenvalues --  -10.25763 -10.25751 -10.25321 -10.24800  -1.00225
 Alpha  occ. eigenvalues --   -0.85529  -0.79542  -0.75247  -0.72559  -0.63794
 Alpha  occ. eigenvalues --   -0.60865  -0.59311  -0.55242  -0.49205  -0.48277
 Alpha  occ. eigenvalues --   -0.45131  -0.44160  -0.44138  -0.41902  -0.40265
 Alpha  occ. eigenvalues --   -0.36651  -0.35061  -0.34801  -0.29156  -0.24056
 Alpha  occ. eigenvalues --   -0.21439
 Alpha virt. eigenvalues --   -0.03263  -0.01663  -0.01292  -0.00845   0.00314
 Alpha virt. eigenvalues --    0.00608   0.02115   0.02817   0.02990   0.03358
 Alpha virt. eigenvalues --    0.03897   0.04113   0.06455   0.06821   0.06864
 Alpha virt. eigenvalues --    0.06980   0.09468   0.09976   0.10892   0.11706
 Alpha virt. eigenvalues --    0.11984   0.12149   0.13137   0.13499   0.15181
 Alpha virt. eigenvalues --    0.15650   0.15940   0.16660   0.17504   0.17588
 Alpha virt. eigenvalues --    0.18241   0.19017   0.19261   0.19983   0.20799
 Alpha virt. eigenvalues --    0.21268   0.21467   0.22084   0.23184   0.23768
 Alpha virt. eigenvalues --    0.24716   0.25048   0.25719   0.27074   0.27973
 Alpha virt. eigenvalues --    0.29404   0.29668   0.30920   0.32534   0.35022
 Alpha virt. eigenvalues --    0.35677   0.39051   0.42891   0.43651   0.50675
 Alpha virt. eigenvalues --    0.57459   0.61965   0.65257   0.66185   0.67995
 Alpha virt. eigenvalues --    0.70057   0.70335   0.71443   0.72042   0.72816
 Alpha virt. eigenvalues --    0.73453   0.74750   0.75864   0.77251   0.78167
 Alpha virt. eigenvalues --    0.80089   0.83633   0.86333   0.87199   0.88307
 Alpha virt. eigenvalues --    0.90425   0.90946   0.92502   0.95535   0.95755
 Alpha virt. eigenvalues --    0.98333   1.00631   1.02586   1.03859   1.08363
 Alpha virt. eigenvalues --    1.10190   1.10818   1.16063   1.16826   1.19135
 Alpha virt. eigenvalues --    1.21277   1.23828   1.24494   1.29639   1.32176
 Alpha virt. eigenvalues --    1.34163   1.34762   1.39599   1.41147   1.41568
 Alpha virt. eigenvalues --    1.46074   1.46369   1.49530   1.50306   1.51905
 Alpha virt. eigenvalues --    1.56423   1.62195   1.76582   1.82362   1.86085
 Alpha virt. eigenvalues --    1.88076   1.88574   1.89229   1.94004   1.95496
 Alpha virt. eigenvalues --    1.99377   2.04338   2.07461   2.12037   2.14809
 Alpha virt. eigenvalues --    2.15189   2.15391   2.23437   2.24142   2.24650
 Alpha virt. eigenvalues --    2.26411   2.29827   2.35965   2.39456   2.41766
 Alpha virt. eigenvalues --    2.51091   2.54512   2.61283   2.63250   2.64947
 Alpha virt. eigenvalues --    2.66688   2.71151   2.78786   2.80836   2.83759
 Alpha virt. eigenvalues --    2.92555   2.95307   3.06371   3.22958   3.40714
 Alpha virt. eigenvalues --    4.14046   4.22056   4.24951   4.28241   4.32411
 Alpha virt. eigenvalues --    4.36654   4.44323   4.48441   4.75169
          Condensed to atoms (all electrons):
               1          2          3          4          5          6
     1  C   51.380592 -79.384607 194.401109-157.898343  -3.371473  55.419527
     2  C  -79.384607 160.928124-394.912377 322.713843  -2.146974 -91.432547
     3  C  194.401109-394.9123771328.027527*********** 109.501195 255.663577
     4  C -157.898343 322.713843*********** 981.795884-123.958803-227.672843
     5  C   -3.371473  -2.146974 109.501195-123.958803 196.034650  33.781767
     6  C   55.419527 -91.432547 255.663577-227.672843  33.781767 143.506090
     7  N    1.837491  -4.650187  19.751475 -19.830048   1.705531   2.879007
     8  C  -46.207281  78.160076-299.990776 273.092091-170.015216-139.064566
     9  C  -12.220435  21.350932-103.058342  83.448544 -35.510984 -28.054544
    10  H   -0.022651  -0.026689  -0.670591   0.320539   0.233646   0.021149
    11  H   -0.009420   0.008594  -0.045071  -0.257176   0.557633   0.355232
    12  H   -0.000033   0.014171   0.018122   0.445328  -1.033913  -0.142571
    13  H    0.426060  -0.617964   1.525857  -1.044572  -0.088139   0.164131
    14  H   -0.145596  -0.422680   0.080751   0.461074   0.162166   0.334591
    15  H    0.288874   0.010973   0.125458  -0.164150   0.004837   0.027723
    16  H    0.033464   0.096615  -0.280270   0.126275   0.275853  -0.013912
               7          8          9         10         11         12
     1  C    1.837491 -46.207281 -12.220435  -0.022651  -0.009420  -0.000033
     2  C   -4.650187  78.160076  21.350932  -0.026689   0.008594   0.014171
     3  C   19.751475-299.990776-103.058342  -0.670591  -0.045071   0.018122
     4  C  -19.830048 273.092091  83.448544   0.320539  -0.257176   0.445328
     5  C    1.705531-170.015216 -35.510984   0.233646   0.557633  -1.033913
     6  C    2.879007-139.064566 -28.054544   0.021149   0.355232  -0.142571
     7  N    7.823060  -3.070792   0.356731   0.223516  -0.001243  -0.049875
     8  C   -3.070792 261.619054  50.257824   0.147909  -0.601313   1.064663
     9  C    0.356731  50.257824  29.127690  -0.007753   0.296329  -0.022306
    10  H    0.223516   0.147909  -0.007753   0.312593  -0.000090  -0.000862
    11  H   -0.001243  -0.601313   0.296329  -0.000090   0.441319  -0.000861
    12  H   -0.049875   1.064663  -0.022306  -0.000862  -0.000861   0.444283
    13  H    0.007343  -0.081233  -0.013859  -0.000005   0.000000  -0.000000
    14  H    0.012143  -0.261283   0.028099   0.003536   0.000002  -0.000005
    15  H    0.000287   0.020337  -0.005475  -0.000000  -0.000002  -0.000000
    16  H    0.000121   0.002650   0.053642   0.000004   0.001115  -0.000000
              13         14         15         16
     1  C    0.426060  -0.145596   0.288874   0.033464
     2  C   -0.617964  -0.422680   0.010973   0.096615
     3  C    1.525857   0.080751   0.125458  -0.280270
     4  C   -1.044572   0.461074  -0.164150   0.126275
     5  C   -0.088139   0.162166   0.004837   0.275853
     6  C    0.164131   0.334591   0.027723  -0.013912
     7  N    0.007343   0.012143   0.000287   0.000121
     8  C   -0.081233  -0.261283   0.020337   0.002650
     9  C   -0.013859   0.028099  -0.005475   0.053642
    10  H   -0.000005   0.003536  -0.000000   0.000004
    11  H    0.000000   0.000002  -0.000002   0.001115
    12  H   -0.000000  -0.000005  -0.000000  -0.000000
    13  H    0.487610  -0.001857  -0.003386  -0.000143
    14  H   -0.001857   0.537248  -0.000137   0.000012
    15  H   -0.003386  -0.000137   0.473629  -0.003064
    16  H   -0.000143   0.000012  -0.003064   0.472051
 Mulliken charges:
               1
     1  C    1.472723
     2  C   -3.689302
     3  C   10.378314
     4  C  -11.061688
     5  C   -0.131774
     6  C    0.228188
     7  N    0.005440
     8  C    0.927856
     9  C   -0.026093
    10  H    0.465748
    11  H    0.254952
    12  H    0.263859
    13  H    0.240157
    14  H    0.211936
    15  H    0.224095
    16  H    0.235589
 Sum of Mulliken charges =  -0.00000
 Mulliken charges with hydrogens summed into heavy atoms:
               1
     1  C    1.696818
     2  C   -3.449145
     3  C   10.590249
     4  C  -11.061688
     5  C   -0.131774
     6  C    0.463777
     7  N    0.471189
     8  C    1.182807
     9  C    0.237766
 Electronic spatial extent (au):  <R**2>=           1057.6770
 Charge=             -0.0000 electrons
 Dipole moment (field-independent basis, Debye):
    X=             -0.8071    Y=              3.9871    Z=              0.0010  Tot=              4.0680
 Quadrupole moment (field-independent basis, Debye-Ang):
   XX=            -81.1543   YY=            -74.6626   ZZ=            -61.4045
   XY=            -13.6705   XZ=             -0.0012   YZ=             -0.0051
 Traceless Quadrupole moment (field-independent basis, Debye-Ang):
   XX=             -8.7471   YY=             -2.2555   ZZ=             11.0026
   XY=            -13.6705   XZ=             -0.0012   YZ=             -0.0051
 Octapole moment (field-independent basis, Debye-Ang**2):
  XXX=           -105.9045  YYY=             98.9934  ZZZ=              0.0003  XYY=             22.0032
  XXY=              0.3209  XXZ=             -0.0162  XZZ=             -3.1344  YZZ=             10.3591
  YYZ=              0.0133  XYZ=             -0.0016
 Hexadecapole moment (field-independent basis, Debye-Ang**3):
 XXXX=          -1996.7498 YYYY=          -1036.9090 ZZZZ=            -99.2544 XXXY=           -163.0406
 XXXZ=             -0.0637 YYYX=           -205.8039 YYYZ=             -0.0543 ZZZX=             -0.0154
 ZZZY=             -0.0196 XXYY=           -448.0444 XXZZ=           -262.8892 YYZZ=           -156.1507
 XXYZ=             -0.0102 YYXZ=             -0.0073 ZZXY=            -19.6727
 N-N= 4.009751387601D+02 E-N=-1.639401657211D+03  KE= 3.594927175240D+02


  THE LARGE PRINT GIVETH,
  AND THE SMALL PRINT TAKETH AWAY.

                     -- TOM WAITS
 Error termination request processed by link 9999.
 Error termination via Lnk1e in /cm/shared/apps/spack/cpu/opt/spack/linux-centos8-zen/gcc-8.3.1/gaussian-16.C.01-po5bqktfeugvmjyga3v7eigbecnokxng/g16/l9999.exe at Thu Jun 24 00:16:06 2021.
 Job cpu time:       2 days  3 hours 58 minutes  3.3 seconds.
 Elapsed time:       0 days 13 hours 14 minutes 26.2 seconds.
 File lengths (MBytes):  RWF=    238 Int=      0 D2E=      0 Chk=     11 Scr=      1
