 Entering Gaussian System, Link 0=/cm/shared/apps/spack/cpu/opt/spack/linux-centos8-zen/gcc-8.3.1/gaussian-16.C.01-po5bqktfeugvmjyga3v7eigbecnokxng/g16/g16
 Initial command:
 /cm/shared/apps/spack/cpu/opt/spack/linux-centos8-zen/gcc-8.3.1/gaussian-16.C.01-po5bqktfeugvmjyga3v7eigbecnokxng/g16/l1.exe "/scratch/scaparas/job_3445882/Gau-60295.inp" -scrdir="/scratch/scaparas/job_3445882/"
 Entering Link 1 = /cm/shared/apps/spack/cpu/opt/spack/linux-centos8-zen/gcc-8.3.1/gaussian-16.C.01-po5bqktfeugvmjyga3v7eigbecnokxng/g16/l1.exe PID=     60296.
  
 Copyright (c) 1988-2019, Gaussian, Inc.  All Rights Reserved.
  
 This is part of the Gaussian(R) 16 program.  It is based on
 the Gaussian(R) 09 system (copyright 2009, Gaussian, Inc.),
 the Gaussian(R) 03 system (copyright 2003, Gaussian, Inc.),
 the Gaussian(R) 98 system (copyright 1998, Gaussian, Inc.),
 the Gaussian(R) 94 system (copyright 1995, Gaussian, Inc.),
 the Gaussian 92(TM) system (copyright 1992, Gaussian, Inc.),
 the Gaussian 90(TM) system (copyright 1990, Gaussian, Inc.),
 the Gaussian 88(TM) system (copyright 1988, Gaussian, Inc.),
 the Gaussian 86(TM) system (copyright 1986, Carnegie Mellon
 University), and the Gaussian 82(TM) system (copyright 1983,
 Carnegie Mellon University). Gaussian is a federally registered
 trademark of Gaussian, Inc.
  
 This software contains proprietary and confidential information,
 including trade secrets, belonging to Gaussian, Inc.
  
 This software is provided under written license and may be
 used, copied, transmitted, or stored only in accord with that
 written license.
  
 The following legend is applicable only to US Government
 contracts under FAR:
  
                    RESTRICTED RIGHTS LEGEND
  
 Use, reproduction and disclosure by the US Government is
 subject to restrictions as set forth in subparagraphs (a)
 and (c) of the Commercial Computer Software - Restricted
 Rights clause in FAR 52.227-19.
  
 Gaussian, Inc.
 340 Quinnipiac St., Bldg. 40, Wallingford CT 06492
  
  
 ---------------------------------------------------------------
 Warning -- This program may not be used in any manner that
 competes with the business of Gaussian, Inc. or will provide
 assistance to any competitor of Gaussian, Inc.  The licensee
 of this program is prohibited from giving any competitor of
 Gaussian, Inc. access to this program.  By using this program,
 the user acknowledges that Gaussian, Inc. is engaged in the
 business of creating and licensing software in the field of
 computational chemistry and represents and warrants to the
 licensee that it is not a competitor of Gaussian, Inc. and that
 it will not use this program in any manner prohibited above.
 ---------------------------------------------------------------
  

 Cite this work as:
 Gaussian 16, Revision C.01,
 M. J. Frisch, G. W. Trucks, H. B. Schlegel, G. E. Scuseria, 
 M. A. Robb, J. R. Cheeseman, G. Scalmani, V. Barone, 
 G. A. Petersson, H. Nakatsuji, X. Li, M. Caricato, A. V. Marenich, 
 J. Bloino, B. G. Janesko, R. Gomperts, B. Mennucci, H. P. Hratchian, 
 J. V. Ortiz, A. F. Izmaylov, J. L. Sonnenberg, D. Williams-Young, 
 F. Ding, F. Lipparini, F. Egidi, J. Goings, B. Peng, A. Petrone, 
 T. Henderson, D. Ranasinghe, V. G. Zakrzewski, J. Gao, N. Rega, 
 G. Zheng, W. Liang, M. Hada, M. Ehara, K. Toyota, R. Fukuda, 
 J. Hasegawa, M. Ishida, T. Nakajima, Y. Honda, O. Kitao, H. Nakai, 
 T. Vreven, K. Throssell, J. A. Montgomery, Jr., J. E. Peralta, 
 F. Ogliaro, M. J. Bearpark, J. J. Heyd, E. N. Brothers, K. N. Kudin, 
 V. N. Staroverov, T. A. Keith, R. Kobayashi, J. Normand, 
 K. Raghavachari, A. P. Rendell, J. C. Burant, S. S. Iyengar, 
 J. Tomasi, M. Cossi, J. M. Millam, M. Klene, C. Adamo, R. Cammi, 
 J. W. Ochterski, R. L. Martin, K. Morokuma, O. Farkas, 
 J. B. Foresman, and D. J. Fox, Gaussian, Inc., Wallingford CT, 2019.
 
 ******************************************
 Gaussian 16:  AS64L-G16RevC.01  3-Jul-2019
                16-Jun-2021 
 ******************************************
 %nprocshared=4
 Will use up to    4 processors via shared memory.
 %chk=FuncsSOGGA11X-V-3rd.chk
 %Mem=3GB
 --------------------------------------------------------------
 # td= (nstates=6, root=3) SOGGA11X/6-31+G* Opt density=current
 --------------------------------------------------------------
 1/18=20,19=15,26=3,38=1/1,3;
 2/9=110,12=2,17=6,18=5,40=1/2;
 3/5=1,6=6,7=11,11=9,25=1,30=1,71=1,74=-65/1,2,3,8;
 4//1;
 5/5=2,38=5/2;
 8/6=1,10=2,107=3,108=6/1;
 9/8=3,15=2,41=6,42=1,70=2/14;
 10/5=4,28=3/2;
 6/7=2,8=2,9=2,10=2,22=-1/1;
 7/12=6,13=5,14=3/1,2,3,16;
 1/18=20,19=15,26=3/3(2);
 2/9=110/2;
 99//99;
 2/9=110/2;
 3/5=1,6=6,7=11,11=9,25=1,30=1,71=1,74=-65/1,2,3,8;
 4/5=5,16=3,69=1/1;
 5/5=2,38=5/2;
 8/6=1,10=2,107=3,108=6/1;
 9/8=3,15=2,41=6,42=1,49=4,70=2/14;
 10/5=4,28=3/2;
 7/12=6,13=5,14=3/1,2,3,16;
 1/18=20,19=15,26=3/3(-8);
 2/9=110/2;
 6/7=2,8=2,9=2,10=2,22=-1/1;
 99/9=10/99;
 -------------------
 FuncsSOGGA11X-V-3rd
 -------------------
 Symbolic Z-matrix:
 Charge =  0 Multiplicity = 1
 C                    -2.15106   0.68921   0.00009 
 C                    -2.12793  -0.71582   0.00008 
 C                    -0.9323   -1.4131   -0.00001 
 C                     0.24691  -0.6702   -0.00004 
 C                     0.24819   0.7483    0. 
 C                    -0.97947   1.42353   0.00003 
 N                     1.56177  -1.07759  -0.00029 
 C                     1.62013   1.1629   -0.00016 
 C                     2.38201   0.03081   0.00025 
 H                     1.87632  -2.03001   0.00044 
 H                     1.99217   2.17301  -0.00035 
 H                     3.45255  -0.08243   0.00041 
 H                    -3.06159  -1.26202   0.00009 
 H                    -0.91725  -2.49534  -0.00007 
 H                    -3.1042    1.20079   0.00009 
 H                    -1.00935   2.50542  -0.00002 
 

 GradGradGradGradGradGradGradGradGradGradGradGradGradGradGradGradGradGrad
 Berny optimization.
 Initialization pass.
                           ----------------------------
                           !    Initial Parameters    !
                           ! (Angstroms and Degrees)  !
 --------------------------                            --------------------------
 ! Name  Definition              Value          Derivative Info.                !
 --------------------------------------------------------------------------------
 ! R1    R(1,2)                  1.4052         estimate D2E/DX2                !
 ! R2    R(1,6)                  1.3827         estimate D2E/DX2                !
 ! R3    R(1,15)                 1.0818         estimate D2E/DX2                !
 ! R4    R(2,3)                  1.3841         estimate D2E/DX2                !
 ! R5    R(2,13)                 1.0817         estimate D2E/DX2                !
 ! R6    R(3,4)                  1.3937         estimate D2E/DX2                !
 ! R7    R(3,14)                 1.0823         estimate D2E/DX2                !
 ! R8    R(4,5)                  1.4185         estimate D2E/DX2                !
 ! R9    R(4,7)                  1.3765         estimate D2E/DX2                !
 ! R10   R(5,6)                  1.4011         estimate D2E/DX2                !
 ! R11   R(5,8)                  1.4332         estimate D2E/DX2                !
 ! R12   R(6,16)                 1.0823         estimate D2E/DX2                !
 ! R13   R(7,9)                  1.3789         estimate D2E/DX2                !
 ! R14   R(7,10)                 1.003          estimate D2E/DX2                !
 ! R15   R(8,9)                  1.3646         estimate D2E/DX2                !
 ! R16   R(8,11)                 1.0764         estimate D2E/DX2                !
 ! R17   R(9,12)                 1.0765         estimate D2E/DX2                !
 ! A1    A(2,1,6)              121.1349         estimate D2E/DX2                !
 ! A2    A(2,1,15)             119.1671         estimate D2E/DX2                !
 ! A3    A(6,1,15)             119.698          estimate D2E/DX2                !
 ! A4    A(1,2,3)              121.1938         estimate D2E/DX2                !
 ! A5    A(1,2,13)             119.3846         estimate D2E/DX2                !
 ! A6    A(3,2,13)             119.4217         estimate D2E/DX2                !
 ! A7    A(2,3,4)              117.5387         estimate D2E/DX2                !
 ! A8    A(2,3,14)             121.0469         estimate D2E/DX2                !
 ! A9    A(4,3,14)             121.4144         estimate D2E/DX2                !
 ! A10   A(3,4,5)              122.2626         estimate D2E/DX2                !
 ! A11   A(3,4,7)              130.5743         estimate D2E/DX2                !
 ! A12   A(5,4,7)              107.163          estimate D2E/DX2                !
 ! A13   A(4,5,6)              118.7594         estimate D2E/DX2                !
 ! A14   A(4,5,8)              106.8666         estimate D2E/DX2                !
 ! A15   A(6,5,8)              134.374          estimate D2E/DX2                !
 ! A16   A(1,6,5)              119.1105         estimate D2E/DX2                !
 ! A17   A(1,6,16)             120.4966         estimate D2E/DX2                !
 ! A18   A(5,6,16)             120.3928         estimate D2E/DX2                !
 ! A19   A(4,7,9)              109.2874         estimate D2E/DX2                !
 ! A20   A(4,7,10)             125.4909         estimate D2E/DX2                !
 ! A21   A(9,7,10)             125.2217         estimate D2E/DX2                !
 ! A22   A(5,8,9)              107.125          estimate D2E/DX2                !
 ! A23   A(5,8,11)             127.0344         estimate D2E/DX2                !
 ! A24   A(9,8,11)             125.8405         estimate D2E/DX2                !
 ! A25   A(7,9,8)              109.5578         estimate D2E/DX2                !
 ! A26   A(7,9,12)             120.4645         estimate D2E/DX2                !
 ! A27   A(8,9,12)             129.9776         estimate D2E/DX2                !
 ! D1    D(6,1,2,3)             -0.0008         estimate D2E/DX2                !
 ! D2    D(6,1,2,13)          -179.9981         estimate D2E/DX2                !
 ! D3    D(15,1,2,3)           179.996          estimate D2E/DX2                !
 ! D4    D(15,1,2,13)           -0.0013         estimate D2E/DX2                !
 ! D5    D(2,1,6,5)             -0.0018         estimate D2E/DX2                !
 ! D6    D(2,1,6,16)           179.9965         estimate D2E/DX2                !
 ! D7    D(15,1,6,5)          -179.9986         estimate D2E/DX2                !
 ! D8    D(15,1,6,16)           -0.0003         estimate D2E/DX2                !
 ! D9    D(1,2,3,4)              0.002          estimate D2E/DX2                !
 ! D10   D(1,2,3,14)          -179.9968         estimate D2E/DX2                !
 ! D11   D(13,2,3,4)           179.9992         estimate D2E/DX2                !
 ! D12   D(13,2,3,14)            0.0005         estimate D2E/DX2                !
 ! D13   D(2,3,4,5)             -0.0005         estimate D2E/DX2                !
 ! D14   D(2,3,4,7)           -179.9911         estimate D2E/DX2                !
 ! D15   D(14,3,4,5)           179.9982         estimate D2E/DX2                !
 ! D16   D(14,3,4,7)             0.0076         estimate D2E/DX2                !
 ! D17   D(3,4,5,6)             -0.002          estimate D2E/DX2                !
 ! D18   D(3,4,5,8)           -179.9955         estimate D2E/DX2                !
 ! D19   D(7,4,5,6)            179.9905         estimate D2E/DX2                !
 ! D20   D(7,4,5,8)             -0.003          estimate D2E/DX2                !
 ! D21   D(3,4,7,9)           -179.98           estimate D2E/DX2                !
 ! D22   D(3,4,7,10)            -0.0649         estimate D2E/DX2                !
 ! D23   D(5,4,7,9)              0.0284         estimate D2E/DX2                !
 ! D24   D(5,4,7,10)           179.9434         estimate D2E/DX2                !
 ! D25   D(4,5,6,1)              0.0031         estimate D2E/DX2                !
 ! D26   D(4,5,6,16)          -179.9951         estimate D2E/DX2                !
 ! D27   D(8,5,6,1)            179.9944         estimate D2E/DX2                !
 ! D28   D(8,5,6,16)            -0.0038         estimate D2E/DX2                !
 ! D29   D(4,5,8,9)             -0.0234         estimate D2E/DX2                !
 ! D30   D(4,5,8,11)           179.9883         estimate D2E/DX2                !
 ! D31   D(6,5,8,9)            179.9846         estimate D2E/DX2                !
 ! D32   D(6,5,8,11)            -0.0037         estimate D2E/DX2                !
 ! D33   D(4,7,9,8)             -0.0444         estimate D2E/DX2                !
 ! D34   D(4,7,9,12)           179.9847         estimate D2E/DX2                !
 ! D35   D(10,7,9,8)          -179.9597         estimate D2E/DX2                !
 ! D36   D(10,7,9,12)            0.0693         estimate D2E/DX2                !
 ! D37   D(5,8,9,7)              0.0414         estimate D2E/DX2                !
 ! D38   D(5,8,9,12)          -179.9913         estimate D2E/DX2                !
 ! D39   D(11,8,9,7)          -179.9702         estimate D2E/DX2                !
 ! D40   D(11,8,9,12)           -0.0029         estimate D2E/DX2                !
 --------------------------------------------------------------------------------
 Trust Radius=3.00D-01 FncErr=1.00D-07 GrdErr=1.00D-06 EigMax=2.50D+02 EigMin=1.00D-04
 Number of steps in this run=     94 maximum allowed number of steps=    100.
 GradGradGradGradGradGradGradGradGradGradGradGradGradGradGradGradGradGrad

                          Input orientation:                          
 ---------------------------------------------------------------------
 Center     Atomic      Atomic             Coordinates (Angstroms)
 Number     Number       Type             X           Y           Z
 ---------------------------------------------------------------------
      1          6           0       -2.151063    0.689208    0.000088
      2          6           0       -2.127927   -0.715818    0.000075
      3          6           0       -0.932297   -1.413100   -0.000011
      4          6           0        0.246911   -0.670201   -0.000042
      5          6           0        0.248193    0.748299    0.000000
      6          6           0       -0.979474    1.423526    0.000032
      7          7           0        1.561774   -1.077592   -0.000285
      8          6           0        1.620133    1.162900   -0.000157
      9          6           0        2.382013    0.030806    0.000248
     10          1           0        1.876315   -2.030011    0.000438
     11          1           0        1.992173    2.173010   -0.000348
     12          1           0        3.452549   -0.082425    0.000408
     13          1           0       -3.061594   -1.262020    0.000088
     14          1           0       -0.917252   -2.495342   -0.000073
     15          1           0       -3.104203    1.200785    0.000090
     16          1           0       -1.009348    2.505421   -0.000015
 ---------------------------------------------------------------------
                    Distance matrix (angstroms):
                    1          2          3          4          5
     1  C    0.000000
     2  C    1.405216   0.000000
     3  C    2.430039   1.384100   0.000000
     4  C    2.756496   2.375276   1.393711   0.000000
     5  C    2.399984   2.790983   2.462763   1.418501   0.000000
     6  C    1.382694   2.428114   2.837018   2.426461   1.401106
     7  N    4.111781   3.707395   2.516536   1.376529   2.249305
     8  C    3.800829   4.192557   3.626386   2.290414   1.433218
     9  C    4.580641   4.571324   3.615178   2.247236   2.251218
    10  H    4.859416   4.214387   2.875566   2.122273   3.220216
    11  H    4.400917   5.031953   4.627387   3.336134   2.251948
    12  H    5.656491   5.616307   4.582311   3.259079   3.310287
    13  H    2.153220   1.081698   2.134650   3.361020   3.872476
    14  H    3.415208   2.152310   1.082347   2.164813   3.446661
    15  H    1.081752   2.150926   3.398466   3.838040   3.382795
    16  H    2.145261   3.409927   3.919278   3.415079   2.160761
                    6          7          8          9         10
     6  C    0.000000
     7  N    3.565604   0.000000
     8  C    2.612639   2.241252   0.000000
     9  C    3.638580   1.378890   1.364587   0.000000
    10  H    4.481345   1.003015   3.203172   2.121956   0.000000
    11  H    3.064704   3.278972   1.076446   2.177387   4.204618
    12  H    4.680888   2.136677   2.215532   1.076508   2.505515
    13  H    3.398144   4.627045   5.272457   5.595021   4.997275
    14  H    3.919362   2.855798   4.452085   4.155307   2.832058
    15  H    2.136372   5.192528   4.724488   5.609583   5.936632
    16  H    1.082307   4.410062   2.952378   4.198220   5.375611
                   11         12         13         14         15
    11  H    0.000000
    12  H    2.686947   0.000000
    13  H    6.110646   6.620083   0.000000
    14  H    5.500751   4.991726   2.473719   0.000000
    15  H    5.188282   6.681139   2.463174   4.294661   0.000000
    16  H    3.019872   5.158049   4.290143   5.001611   2.467892
                   16
    16  H    0.000000
 Stoichiometry    C8H7N
 Framework group  C1[X(C8H7N)]
 Deg. of freedom    42
 Full point group                 C1      NOp   1
 Largest Abelian subgroup         C1      NOp   1
 Largest concise Abelian subgroup C1      NOp   1
                         Standard orientation:                         
 ---------------------------------------------------------------------
 Center     Atomic      Atomic             Coordinates (Angstroms)
 Number     Number       Type             X           Y           Z
 ---------------------------------------------------------------------
      1          6           0       -2.151063    0.689208    0.000088
      2          6           0       -2.127927   -0.715818    0.000075
      3          6           0       -0.932297   -1.413100   -0.000011
      4          6           0        0.246911   -0.670201   -0.000042
      5          6           0        0.248193    0.748299    0.000000
      6          6           0       -0.979474    1.423526    0.000032
      7          7           0        1.561774   -1.077592   -0.000285
      8          6           0        1.620133    1.162900   -0.000157
      9          6           0        2.382013    0.030806    0.000248
     10          1           0        1.876315   -2.030011    0.000438
     11          1           0        1.992173    2.173010   -0.000348
     12          1           0        3.452549   -0.082425    0.000408
     13          1           0       -3.061594   -1.262020    0.000088
     14          1           0       -0.917252   -2.495342   -0.000073
     15          1           0       -3.104203    1.200785    0.000090
     16          1           0       -1.009348    2.505421   -0.000015
 ---------------------------------------------------------------------
 Rotational constants (GHZ):           3.9080822           1.6429452           1.1566805
 Standard basis: 6-31+G(d) (6D, 7F)
 There are   185 symmetry adapted cartesian basis functions of A   symmetry.
 There are   185 symmetry adapted basis functions of A   symmetry.
   185 basis functions,   316 primitive gaussians,   185 cartesian basis functions
    31 alpha electrons       31 beta electrons
       nuclear repulsion energy       401.3368668897 Hartrees.
 NAtoms=   16 NActive=   16 NUniq=   16 SFac= 1.00D+00 NAtFMM=   60 NAOKFM=F Big=F
 Integral buffers will be    131072 words long.
 Regular integral format.
 Two-electron integral symmetry is turned on.
 One-electron integrals computed using PRISM.
 NBasis=   185 RedAO= T EigKep=  1.26D-06  NBF=   185
 NBsUse=   185 1.00D-06 EigRej= -1.00D+00 NBFU=   185
 ExpMin= 4.38D-02 ExpMax= 4.17D+03 ExpMxC= 6.27D+02 IAcc=3 IRadAn=         5 AccDes= 0.00D+00
 Harris functional with IExCor= 5143 and IRadAn=       5 diagonalized for initial guess.
 HarFok:  IExCor= 5143 AccDes= 0.00D+00 IRadAn=         5 IDoV= 1 UseB2=F ITyADJ=14
 ICtDFT=  3500011 ScaDFX=  1.000000  1.000000  1.000000  1.000000
 FoFCou: FMM=F IPFlag=           0 FMFlag=      100000 FMFlg1=           0
         NFxFlg=           0 DoJE=T BraDBF=F KetDBF=T FulRan=T
         wScrn=  0.000000 ICntrl=       500 IOpCl=  0 I1Cent=   200000004 NGrid=           0
         NMat0=    1 NMatS0=      1 NMatT0=    0 NMatD0=    1 NMtDS0=    0 NMtDT0=    0
 Petite list used in FoFCou.
 Keep R1 ints in memory in canonical form, NReq=152071459.
 Requested convergence on RMS density matrix=1.00D-08 within 128 cycles.
 Requested convergence on MAX density matrix=1.00D-06.
 Requested convergence on             energy=1.00D-06.
 No special actions if energy rises.
 SCF Done:  E(RSOGGA11X) =  -363.729258520     A.U. after   15 cycles
            NFock= 15  Conv=0.76D-08     -V/T= 2.0078
 DoSCS=F DFT=T ScalE2(SS,OS)=  1.000000  1.000000
 ExpMin= 4.38D-02 ExpMax= 4.17D+03 ExpMxC= 6.27D+02 IAcc=3 IRadAn=         5 AccDes= 0.00D+00
 HarFok:  IExCor=  205 AccDes= 0.00D+00 IRadAn=         5 IDoV=-2 UseB2=F ITyADJ=14
 ICtDFT= 12500011 ScaDFX=  1.000000  1.000000  1.000000  1.000000
 Range of M.O.s used for correlation:    10   185
 NBasis=   185 NAE=    31 NBE=    31 NFC=     9 NFV=     0
 NROrb=    176 NOA=    22 NOB=    22 NVA=   154 NVB=   154

 **** Warning!!: The largest alpha MO coefficient is  0.17764811D+03

 Orbital symmetries:
       Occupied  (A) (A) (A) (A) (A) (A) (A) (A) (A) (A) (A) (A)
                 (A) (A) (A) (A) (A) (A) (A) (A) (A) (A) (A) (A)
                 (A) (A) (A) (A) (A) (A) (A)
       Virtual   (A) (A) (A) (A) (A) (A) (A) (A) (A) (A) (A) (A)
                 (A) (A) (A) (A) (A) (A) (A) (A) (A) (A) (A) (A)
                 (A) (A) (A) (A) (A) (A) (A) (A) (A) (A) (A) (A)
                 (A) (A) (A) (A) (A) (A) (A) (A) (A) (A) (A) (A)
                 (A) (A) (A) (A) (A) (A) (A) (A) (A) (A) (A) (A)
                 (A) (A) (A) (A) (A) (A) (A) (A) (A) (A) (A) (A)
                 (A) (A) (A) (A) (A) (A) (A) (A) (A) (A) (A) (A)
                 (A) (A) (A) (A) (A) (A) (A) (A) (A) (A) (A) (A)
                 (A) (A) (A) (A) (A) (A) (A) (A) (A) (A) (A) (A)
                 (A) (A) (A) (A) (A) (A) (A) (A) (A) (A) (A) (A)
                 (A) (A) (A) (A) (A) (A) (A) (A) (A) (A) (A) (A)
                 (A) (A) (A) (A) (A) (A) (A) (A) (A) (A) (A) (A)
                 (A) (A) (A) (A) (A) (A) (A) (A) (A) (A)
    24 initial guesses have been made.
 Convergence on wavefunction:    0.000001000000000
 Iteration     1 Dimension    24 NMult     0 NNew     24
 CISAX will form    24 AO SS matrices at one time.
 New state      1 was old state      2
 New state      2 was old state      3
 New state      3 was old state      1
 Iteration     2 Dimension    36 NMult    24 NNew     12
 New state      1 was old state      3
 New state      2 was old state      1
 New state      3 was old state      2
 Iteration     3 Dimension    48 NMult    36 NNew     12
 Iteration     4 Dimension    60 NMult    48 NNew     12
 Iteration     5 Dimension    72 NMult    60 NNew     12
 Iteration     6 Dimension    84 NMult    72 NNew     12
 Iteration     7 Dimension    96 NMult    84 NNew     12
 Iteration     8 Dimension   108 NMult    96 NNew     12
 Iteration     9 Dimension   118 NMult   108 NNew     10
 Iteration    10 Dimension   122 NMult   118 NNew      4
 ***********************************************************************
 Excited states from <AA,BB:AA,BB> singles matrix:
 ***********************************************************************
 
 Ground to excited state transition densities written to RWF  633
 Ground to excited state transition electric dipole moments (Au):
       state          X           Y           Z        Dip. S.      Osc.
         1        -0.6197      0.6650     -0.0005      0.8263      0.1028
         2        -0.0059     -0.0033     -0.1356      0.0184      0.0023
         3        -0.6422     -0.1115      0.0015      0.4248      0.0537
         4        -0.0003      0.0001     -0.1385      0.0192      0.0026
         5         0.0003     -0.0000     -0.0229      0.0005      0.0001
         6         0.0006      0.0001      0.1102      0.0121      0.0017
 Ground to excited state transition velocity dipole moments (Au):
       state          X           Y           Z        Dip. S.      Osc.
         1         0.1065     -0.1338      0.0001      0.0292      0.1045
         2         0.0011      0.0007      0.0167      0.0003      0.0010
         3         0.1155      0.0220     -0.0002      0.0138      0.0486
         4         0.0001     -0.0000      0.0305      0.0009      0.0030
         5        -0.0001      0.0000      0.0051      0.0000      0.0001
         6        -0.0001     -0.0000     -0.0225      0.0005      0.0016
 Ground to excited state transition magnetic dipole moments (Au):
       state          X           Y           Z
         1         0.0006     -0.0003      0.1759
         2         0.1355     -0.0860     -0.0012
         3        -0.0017      0.0008     -0.0686
         4         0.0496     -0.2661     -0.0000
         5         0.2482     -0.2396      0.0001
         6         0.2239      0.2768      0.0006
 Ground to excited state transition velocity quadrupole moments (Au):
       state          XX          YY          ZZ          XY          XZ          YZ
         1         0.2387     -0.1310      0.0180      0.0379      0.0003      0.0002
         2         0.0003     -0.0012      0.0004     -0.0003      0.0714      0.0564
         3         0.0868     -0.1279      0.0277     -0.0150     -0.0007     -0.0007
         4        -0.0000      0.0000     -0.0000     -0.0000      0.1901     -0.0046
         5        -0.0002      0.0000      0.0000      0.0001      0.2752      0.2505
         6         0.0001     -0.0001      0.0001      0.0003     -0.2284      0.1130
 <0|del|b> * <b|rxdel|0> + <0|del|b> * <b|delr+rdel|0>
 Rotatory Strengths (R) in cgs (10**-40 erg-esu-cm/Gauss)
       state          XX          YY          ZZ    R(velocity)    E-M Angle
         1         0.1576      0.1766      0.0778      0.1373       89.79
         2        -0.2426      0.3553      0.1400      0.0842       90.00
         3         0.0920     -0.5047     -0.2077     -0.2068       91.18
         4         0.0192      0.0047      0.0101      0.0113       90.00
         5         0.0003     -0.0494      0.0003     -0.0163       90.00
         6        -0.0446     -0.0691     -0.0210     -0.0449       90.00
 1/2[<0|r|b>*<b|rxdel|0> + (<0|rxdel|b>*<b|r|0>)*]
 Rotatory Strengths (R) in cgs (10**-40 erg-esu-cm/Gauss)
       state          XX          YY          ZZ     R(length)
         1         0.2621      0.1225      0.0572      0.1473
         2         0.5618     -0.2013     -0.1152      0.0818
         3        -0.7726      0.0636      0.0744     -0.2116
         4         0.0110      0.0205     -0.0019      0.0099
         5        -0.0487     -0.0058      0.0011     -0.0178
         6        -0.0875     -0.0283     -0.0430     -0.0529
  1/2[<0|del|b>*<b|r|0> + (<0|r|b>*<b|del|0>)*] (Au)
       state          X           Y           Z        Dip. S.   Osc.(frdel)
         1        -0.0660     -0.0890     -0.0000      0.1550      0.1033
         2        -0.0000     -0.0000     -0.0023      0.0023      0.0015
         3        -0.0742     -0.0025     -0.0000      0.0766      0.0511
         4        -0.0000     -0.0000     -0.0042      0.0042      0.0028
         5        -0.0000     -0.0000     -0.0001      0.0001      0.0001
         6        -0.0000     -0.0000     -0.0025      0.0025      0.0017

 Excitation energies and oscillator strengths:
 
 Excited State   1:      Singlet-A      5.0758 eV  244.26 nm  f=0.1028  <S**2>=0.000
      30 -> 32        -0.15832
      30 -> 36         0.18041
      31 -> 32         0.65644
 
 Excited State   2:      Singlet-A      5.1542 eV  240.55 nm  f=0.0023  <S**2>=0.000
      31 -> 33         0.69699
 
 Excited State   3:      Singlet-A      5.1604 eV  240.26 nm  f=0.0537  <S**2>=0.000
      30 -> 32         0.57001
      31 -> 32         0.15017
      31 -> 36        -0.36783
 This state for optimization and/or second-order correction.
 Total Energy, E(TD-HF/TD-DFT) =  -363.539616281    
 Copying the excited state density for this state as the 1-particle RhoCI density.
 
 Excited State   4:      Singlet-A      5.6352 eV  220.02 nm  f=0.0026  <S**2>=0.000
      30 -> 33         0.67472
      31 -> 34         0.15341
 
 Excited State   5:      Singlet-A      5.7994 eV  213.79 nm  f=0.0001  <S**2>=0.000
      30 -> 33        -0.15756
      31 -> 34         0.66675
      31 -> 35        -0.11454
 
 Excited State   6:      Singlet-A      5.8828 eV  210.76 nm  f=0.0017  <S**2>=0.000
      31 -> 34         0.11687
      31 -> 35         0.67603
 SavETr:  write IOETrn=   770 NScale= 10 NData=  16 NLR=1 NState=    6 LETran=     118.
          IDoAtm=1111111111111111
          Differentiating once with respect to electric field.
                with respect to dipole field.
          Differentiating once with respect to nuclear coordinates.
 Keep R1 ints in memory in canonical form, NReq=152083851.
          There are     1 degrees of freedom in the 1st order CPHF.  IDoFFX=0 NUNeed=     1.
 LinEq1:  Iter=  0 NonCon=     1 RMS=4.48D-03 Max=1.19D-01 NDo=     1
 AX will form     1 AO Fock derivatives at one time.
 LinEq1:  Iter=  1 NonCon=     1 RMS=1.58D-03 Max=5.04D-02 NDo=     1
 LinEq1:  Iter=  2 NonCon=     1 RMS=1.11D-03 Max=3.65D-02 NDo=     1
 LinEq1:  Iter=  3 NonCon=     1 RMS=4.15D-04 Max=1.08D-02 NDo=     1
 LinEq1:  Iter=  4 NonCon=     1 RMS=1.66D-04 Max=6.21D-03 NDo=     1
 LinEq1:  Iter=  5 NonCon=     1 RMS=1.09D-04 Max=4.34D-03 NDo=     1
 LinEq1:  Iter=  6 NonCon=     1 RMS=4.66D-05 Max=1.20D-03 NDo=     1
 LinEq1:  Iter=  7 NonCon=     1 RMS=2.20D-05 Max=4.52D-04 NDo=     1
 LinEq1:  Iter=  8 NonCon=     1 RMS=9.00D-06 Max=1.72D-04 NDo=     1
 LinEq1:  Iter=  9 NonCon=     1 RMS=4.72D-06 Max=9.47D-05 NDo=     1
 LinEq1:  Iter= 10 NonCon=     1 RMS=1.65D-06 Max=3.38D-05 NDo=     1
 LinEq1:  Iter= 11 NonCon=     1 RMS=9.53D-07 Max=1.47D-05 NDo=     1
 LinEq1:  Iter= 12 NonCon=     1 RMS=2.29D-07 Max=4.76D-06 NDo=     1
 LinEq1:  Iter= 13 NonCon=     1 RMS=8.95D-08 Max=9.31D-07 NDo=     1
 LinEq1:  Iter= 14 NonCon=     1 RMS=4.84D-08 Max=9.15D-07 NDo=     1
 LinEq1:  Iter= 15 NonCon=     1 RMS=1.62D-08 Max=3.19D-07 NDo=     1
 LinEq1:  Iter= 16 NonCon=     1 RMS=7.77D-09 Max=1.45D-07 NDo=     1
 LinEq1:  Iter= 17 NonCon=     1 RMS=1.92D-09 Max=3.25D-08 NDo=     1
 LinEq1:  Iter= 18 NonCon=     1 RMS=6.64D-10 Max=1.38D-08 NDo=     1
 LinEq1:  Iter= 19 NonCon=     1 RMS=2.81D-10 Max=3.99D-09 NDo=     1
 LinEq1:  Iter= 20 NonCon=     0 RMS=5.97D-11 Max=7.25D-10 NDo=     1
 Linear equations converged to 1.000D-10 1.000D-09 after    20 iterations.
 End of Minotr F.D. properties file   721 does not exist.
 End of Minotr F.D. properties file   722 does not exist.
 End of Minotr F.D. properties file   788 does not exist.

 **********************************************************************

            Population analysis using the CI Density.

 **********************************************************************

 Orbital symmetries:
       Occupied  (A) (A) (A) (A) (A) (A) (A) (A) (A) (A) (A) (A)
                 (A) (A) (A) (A) (A) (A) (A) (A) (A) (A) (A) (A)
                 (A) (A) (A) (A) (A) (A) (A)
       Virtual   (A) (A) (A) (A) (A) (A) (A) (A) (A) (A) (A) (A)
                 (A) (A) (A) (A) (A) (A) (A) (A) (A) (A) (A) (A)
                 (A) (A) (A) (A) (A) (A) (A) (A) (A) (A) (A) (A)
                 (A) (A) (A) (A) (A) (A) (A) (A) (A) (A) (A) (A)
                 (A) (A) (A) (A) (A) (A) (A) (A) (A) (A) (A) (A)
                 (A) (A) (A) (A) (A) (A) (A) (A) (A) (A) (A) (A)
                 (A) (A) (A) (A) (A) (A) (A) (A) (A) (A) (A) (A)
                 (A) (A) (A) (A) (A) (A) (A) (A) (A) (A) (A) (A)
                 (A) (A) (A) (A) (A) (A) (A) (A) (A) (A) (A) (A)
                 (A) (A) (A) (A) (A) (A) (A) (A) (A) (A) (A) (A)
                 (A) (A) (A) (A) (A) (A) (A) (A) (A) (A) (A) (A)
                 (A) (A) (A) (A) (A) (A) (A) (A) (A) (A) (A) (A)
                 (A) (A) (A) (A) (A) (A) (A) (A) (A) (A)
 The electronic state is 1-A.
 Alpha  occ. eigenvalues --  -14.70918 -10.49326 -10.48990 -10.45947 -10.45499
 Alpha  occ. eigenvalues --  -10.45432 -10.45424 -10.44860 -10.44630  -1.08859
 Alpha  occ. eigenvalues --   -0.93673  -0.87512  -0.82397  -0.80454  -0.69855
 Alpha  occ. eigenvalues --   -0.66723  -0.65249  -0.60450  -0.54364  -0.53058
 Alpha  occ. eigenvalues --   -0.49277  -0.48491  -0.47807  -0.46529  -0.44424
 Alpha  occ. eigenvalues --   -0.40501  -0.38287  -0.38229  -0.32051  -0.25692
 Alpha  occ. eigenvalues --   -0.23980
 Alpha virt. eigenvalues --    0.00441   0.00542   0.02536   0.03010   0.04265
 Alpha virt. eigenvalues --    0.04406   0.04585   0.06242   0.06737   0.07171
 Alpha virt. eigenvalues --    0.07256   0.07604   0.09600   0.10192   0.11241
 Alpha virt. eigenvalues --    0.11403   0.12385   0.13649   0.14869   0.15194
 Alpha virt. eigenvalues --    0.16487   0.16633   0.17761   0.17950   0.18682
 Alpha virt. eigenvalues --    0.19783   0.20045   0.20156   0.21088   0.21792
 Alpha virt. eigenvalues --    0.22126   0.23160   0.23443   0.24133   0.24813
 Alpha virt. eigenvalues --    0.25457   0.25611   0.26146   0.27103   0.27648
 Alpha virt. eigenvalues --    0.28712   0.28972   0.30368   0.31703   0.32771
 Alpha virt. eigenvalues --    0.33889   0.34063   0.35478   0.37587   0.39875
 Alpha virt. eigenvalues --    0.40914   0.43476   0.48037   0.48861   0.55742
 Alpha virt. eigenvalues --    0.62934   0.67882   0.72088   0.72581   0.75033
 Alpha virt. eigenvalues --    0.76878   0.77214   0.78679   0.78867   0.79879
 Alpha virt. eigenvalues --    0.80574   0.81661   0.83228   0.84684   0.85907
 Alpha virt. eigenvalues --    0.87052   0.90957   0.95613   0.96943   0.97788
 Alpha virt. eigenvalues --    1.00018   1.01072   1.01695   1.02377   1.04551
 Alpha virt. eigenvalues --    1.06548   1.09156   1.10740   1.12695   1.14376
 Alpha virt. eigenvalues --    1.16660   1.17048   1.22197   1.22876   1.25299
 Alpha virt. eigenvalues --    1.27654   1.27794   1.30629   1.36602   1.37381
 Alpha virt. eigenvalues --    1.38610   1.41864   1.46291   1.46943   1.50780
 Alpha virt. eigenvalues --    1.50989   1.51629   1.54823   1.55418   1.59943
 Alpha virt. eigenvalues --    1.64653   1.70641   1.84353   1.90558   1.94733
 Alpha virt. eigenvalues --    1.94786   1.98588   2.00513   2.06035   2.06370
 Alpha virt. eigenvalues --    2.06427   2.12899   2.16764   2.20921   2.23449
 Alpha virt. eigenvalues --    2.24066   2.26593   2.31196   2.32327   2.32904
 Alpha virt. eigenvalues --    2.35126   2.38191   2.44644   2.47427   2.51473
 Alpha virt. eigenvalues --    2.61881   2.62758   2.70756   2.72947   2.73973
 Alpha virt. eigenvalues --    2.77660   2.81367   2.88677   2.92240   2.93797
 Alpha virt. eigenvalues --    3.03115   3.05605   3.19443   3.32855   3.53204
 Alpha virt. eigenvalues --    4.25688   4.37212   4.40164   4.43672   4.47276
 Alpha virt. eigenvalues --    4.50809   4.59175   4.63133   4.90097
          Condensed to atoms (all electrons):
               1          2          3          4          5          6
     1  C    6.466737  -0.128173   0.603092  -0.819079   0.304736  -0.733235
     2  C   -0.128173   6.512016  -0.585327   0.552800  -1.003158   1.037457
     3  C    0.603092  -0.585327  12.597173  -1.518300  -2.918909  -3.268094
     4  C   -0.819079   0.552800  -1.518300  12.310576  -4.056943  -0.720519
     5  C    0.304736  -1.003158  -2.918909  -4.056943  13.743989  -0.034637
     6  C   -0.733235   1.037457  -3.268094  -0.720519  -0.034637  13.060511
     7  N   -0.054317   0.022028  -0.602583  -0.267238   0.945743   0.194285
     8  C    0.168923  -0.300390   2.766789   2.223682  -3.914881  -4.074427
     9  C   -0.108399   0.033423  -1.087289  -0.882442   1.585429   1.082019
    10  H   -0.002130  -0.008492  -0.128462  -0.045296   0.151457   0.022528
    11  H    0.003998   0.001430  -0.004438  -0.041722   0.086296   0.056276
    12  H    0.001920  -0.000393   0.041922   0.106964  -0.139510  -0.017586
    13  H    0.055727   0.231803   0.045966  -0.012233   0.028104  -0.030680
    14  H   -0.010697   0.093009   0.117542   0.141869  -0.022372  -0.005559
    15  H    0.257511   0.036569   0.016050  -0.023663   0.032885  -0.010519
    16  H    0.064449  -0.012828   0.000453  -0.006126   0.136656   0.114751
               7          8          9         10         11         12
     1  C   -0.054317   0.168923  -0.108399  -0.002130   0.003998   0.001920
     2  C    0.022028  -0.300390   0.033423  -0.008492   0.001430  -0.000393
     3  C   -0.602583   2.766789  -1.087289  -0.128462  -0.004438   0.041922
     4  C   -0.267238   2.223682  -0.882442  -0.045296  -0.041722   0.106964
     5  C    0.945743  -3.914881   1.585429   0.151457   0.086296  -0.139510
     6  C    0.194285  -4.074427   1.082019   0.022528   0.056276  -0.017586
     7  N    7.319445  -0.899788   0.636750   0.284012   0.006033  -0.052269
     8  C   -0.899788  11.193347  -1.585376  -0.015308   0.185613   0.138843
     9  C    0.636750  -1.585376   6.313747  -0.004608   0.024671   0.245534
    10  H    0.284012  -0.015308  -0.004608   0.287238  -0.000069  -0.001462
    11  H    0.006033   0.185613   0.024671  -0.000069   0.434683  -0.000416
    12  H   -0.052269   0.138843   0.245534  -0.001462  -0.000416   0.430742
    13  H   -0.000307   0.002872   0.000695  -0.000001  -0.000000  -0.000000
    14  H   -0.006420  -0.001517   0.006437   0.001569   0.000002   0.000001
    15  H    0.000340   0.012874  -0.000310  -0.000000  -0.000001  -0.000000
    16  H   -0.000890   0.014272   0.002037   0.000003   0.000987  -0.000001
              13         14         15         16
     1  C    0.055727  -0.010697   0.257511   0.064449
     2  C    0.231803   0.093009   0.036569  -0.012828
     3  C    0.045966   0.117542   0.016050   0.000453
     4  C   -0.012233   0.141869  -0.023663  -0.006126
     5  C    0.028104  -0.022372   0.032885   0.136656
     6  C   -0.030680  -0.005559  -0.010519   0.114751
     7  N   -0.000307  -0.006420   0.000340  -0.000890
     8  C    0.002872  -0.001517   0.012874   0.014272
     9  C    0.000695   0.006437  -0.000310   0.002037
    10  H   -0.000001   0.001569  -0.000000   0.000003
    11  H   -0.000000   0.000002  -0.000001   0.000987
    12  H   -0.000000   0.000001  -0.000000  -0.000001
    13  H    0.454263  -0.002542  -0.002474  -0.000112
    14  H   -0.002542   0.458780  -0.000114   0.000013
    15  H   -0.002474  -0.000114   0.453833  -0.002384
    16  H   -0.000112   0.000013  -0.002384   0.457553
 Mulliken charges:
               1
     1  C   -0.071062
     2  C   -0.481774
     3  C   -0.075586
     4  C   -0.942330
     5  C    1.075115
     6  C   -0.672572
     7  N   -0.524824
     8  C    0.084472
     9  C   -0.262317
    10  H    0.459022
    11  H    0.246657
    12  H    0.245710
    13  H    0.228920
    14  H    0.229998
    15  H    0.229404
    16  H    0.231166
 Sum of Mulliken charges =  -0.00000
 Mulliken charges with hydrogens summed into heavy atoms:
               1
     1  C    0.158342
     2  C   -0.252854
     3  C    0.154413
     4  C   -0.942330
     5  C    1.075115
     6  C   -0.441406
     7  N   -0.065803
     8  C    0.331129
     9  C   -0.016607
 Electronic spatial extent (au):  <R**2>=           1008.3526
 Charge=             -0.0000 electrons
 Dipole moment (field-independent basis, Debye):
    X=              2.0972    Y=             -1.4062    Z=              0.0084  Tot=              2.5250
 Quadrupole moment (field-independent basis, Debye-Ang):
   XX=            -45.7984   YY=            -46.4601   ZZ=            -60.6227
   XY=             -2.9613   XZ=              0.0184   YZ=             -0.0202
 Traceless Quadrupole moment (field-independent basis, Debye-Ang):
   XX=              5.1620   YY=              4.5003   ZZ=             -9.6623
   XY=             -2.9613   XZ=              0.0184   YZ=             -0.0202
 Octapole moment (field-independent basis, Debye-Ang**2):
  XXX=             16.6324  YYY=             -9.2589  ZZZ=              0.0285  XYY=             11.1062
  XXY=             -6.9965  XXZ=              0.0726  XZZ=              2.8173  YZZ=             -1.2641
  YYZ=              0.0600  XYZ=             -0.0213
 Hexadecapole moment (field-independent basis, Debye-Ang**3):
 XXXX=           -832.9022 YYYY=           -383.6821 ZZZZ=            -84.0139 XXXY=            -20.1027
 XXXZ=              0.3074 YYYX=            -18.1293 YYYZ=             -0.1554 ZZZX=              0.0631
 ZZZY=             -0.0651 XXYY=           -197.6153 XXZZ=           -200.6000 YYZZ=           -101.9493
 XXYZ=             -0.1735 YYXZ=              0.0386 ZZXY=             -3.2509
 N-N= 4.013368668897D+02 E-N=-1.644877985805D+03  KE= 3.610902737448D+02
 Calling FoFJK, ICntrl=  10005127 FMM=F ISym2X=0 I1Cent= 0 IOpClX= 0 NMat=1 NMatS=1 NMatT=0.
 ***** Axes restored to original set *****
 -------------------------------------------------------------------
 Center     Atomic                   Forces (Hartrees/Bohr)
 Number     Number              X              Y              Z
 -------------------------------------------------------------------
      1        6          -0.022666830    0.002676114    0.000064525
      2        6          -0.020615636   -0.007656672   -0.000065994
      3        6           0.006500994   -0.032118590   -0.000010245
      4        6           0.019795292   -0.019727309    0.000160115
      5        6           0.019491043    0.026095445   -0.000108258
      6        6           0.013085202    0.032690364   -0.000087270
      7        7          -0.014614104   -0.004026437    0.000012572
      8        6          -0.021027025    0.009806058    0.000084840
      9        6           0.019484943   -0.006852767   -0.000072623
     10        1           0.000873986   -0.003419068   -0.000026619
     11        1           0.001129770    0.003648306    0.000012162
     12        1           0.003660325   -0.000704643    0.000000996
     13        1          -0.002746597   -0.001573352   -0.000004351
     14        1           0.000258493   -0.002939579    0.000008819
     15        1          -0.002960404    0.001353869    0.000016978
     16        1           0.000350548    0.002748262    0.000014352
 -------------------------------------------------------------------
 Cartesian Forces:  Max     0.032690364 RMS     0.011576668

 GradGradGradGradGradGradGradGradGradGradGradGradGradGradGradGradGradGrad
 Berny optimization.
 FormGI is forming the generalized inverse of G from B-inverse, IUseBI=4.
 Internal  Forces:  Max     0.035146171 RMS     0.008276408
 Search for a local minimum.
 Step number   1 out of a maximum of   94
 All quantities printed in internal units (Hartrees-Bohrs-Radians)
 Mixed Optimization -- RFO/linear search
 Second derivative matrix not updated -- first step.
 ITU=  0
     Eigenvalues ---    0.01853   0.01931   0.01986   0.02012   0.02070
     Eigenvalues ---    0.02113   0.02148   0.02153   0.02172   0.02209
     Eigenvalues ---    0.02233   0.02248   0.02338   0.16000   0.16000
     Eigenvalues ---    0.16000   0.16000   0.16000   0.16000   0.16000
     Eigenvalues ---    0.22000   0.22188   0.22662   0.24011   0.24651
     Eigenvalues ---    0.35712   0.35717   0.35783   0.35790   0.36420
     Eigenvalues ---    0.36427   0.37009   0.38432   0.42633   0.43465
     Eigenvalues ---    0.45769   0.46692   0.47162   0.47468   0.47567
     Eigenvalues ---    0.48125   0.50955
 RFO step:  Lambda=-1.24808054D-02 EMin= 1.85287394D-02
 Linear search not attempted -- first point.
 Iteration  1 RMS(Cart)=  0.02625343 RMS(Int)=  0.00013824
 Iteration  2 RMS(Cart)=  0.00022595 RMS(Int)=  0.00001480
 Iteration  3 RMS(Cart)=  0.00000003 RMS(Int)=  0.00001480
 Variable       Old X    -DE/DX   Delta X   Delta X   Delta X     New X
                                 (Linear)    (Quad)   (Total)
    R1        2.65547   0.02713   0.00000   0.05938   0.05935   2.71483
    R2        2.61291   0.03467   0.00000   0.06976   0.06975   2.68266
    R3        2.04421   0.00325   0.00000   0.00877   0.00877   2.05299
    R4        2.61557   0.02852   0.00000   0.05766   0.05764   2.67321
    R5        2.04411   0.00317   0.00000   0.00855   0.00855   2.05266
    R6        2.63373   0.02251   0.00000   0.04673   0.04673   2.68047
    R7        2.04534   0.00294   0.00000   0.00796   0.00796   2.05330
    R8        2.68058   0.03515   0.00000   0.07918   0.07918   2.75976
    R9        2.60126  -0.00466   0.00000  -0.00964  -0.00965   2.59161
   R10        2.64771   0.01732   0.00000   0.03692   0.03694   2.68465
   R11        2.70839  -0.00683   0.00000  -0.01597  -0.01597   2.69242
   R12        2.04526   0.00274   0.00000   0.00741   0.00741   2.05267
   R13        2.60573   0.01296   0.00000   0.02564   0.02566   2.63138
   R14        1.89542   0.00352   0.00000   0.00727   0.00727   1.90270
   R15        2.57870   0.02155   0.00000   0.04094   0.04096   2.61965
   R16        2.03419   0.00381   0.00000   0.01012   0.01012   2.04431
   R17        2.03430   0.00371   0.00000   0.00986   0.00986   2.04416
    A1        2.11420   0.00349   0.00000   0.01662   0.01658   2.13079
    A2        2.07986  -0.00196   0.00000  -0.00954  -0.00952   2.07034
    A3        2.08912  -0.00153   0.00000  -0.00708  -0.00706   2.08206
    A4        2.11523   0.00141   0.00000   0.00754   0.00749   2.12272
    A5        2.08365  -0.00073   0.00000  -0.00394  -0.00391   2.07974
    A6        2.08430  -0.00067   0.00000  -0.00360  -0.00358   2.08072
    A7        2.05144  -0.00564   0.00000  -0.02402  -0.02404   2.02740
    A8        2.11267   0.00304   0.00000   0.01330   0.01331   2.12598
    A9        2.11908   0.00259   0.00000   0.01072   0.01073   2.12981
   A10        2.13389   0.00426   0.00000   0.01637   0.01640   2.15029
   A11        2.27895  -0.00352   0.00000  -0.01201  -0.01201   2.26694
   A12        1.87035  -0.00075   0.00000  -0.00436  -0.00439   1.86596
   A13        2.07274   0.00251   0.00000   0.00903   0.00908   2.08182
   A14        1.86517  -0.00164   0.00000  -0.00633  -0.00637   1.85880
   A15        2.34527  -0.00087   0.00000  -0.00269  -0.00271   2.34256
   A16        2.07887  -0.00604   0.00000  -0.02553  -0.02552   2.05335
   A17        2.10306   0.00345   0.00000   0.01529   0.01528   2.11835
   A18        2.10125   0.00258   0.00000   0.01024   0.01023   2.11149
   A19        1.90743   0.00231   0.00000   0.00850   0.00851   1.91594
   A20        2.19023  -0.00139   0.00000  -0.00558  -0.00559   2.18464
   A21        2.18553  -0.00093   0.00000  -0.00292  -0.00293   2.18260
   A22        1.86968   0.00178   0.00000   0.00890   0.00892   1.87861
   A23        2.21717  -0.00110   0.00000  -0.00564  -0.00565   2.21152
   A24        2.19633  -0.00069   0.00000  -0.00326  -0.00327   2.19306
   A25        1.91215  -0.00170   0.00000  -0.00671  -0.00667   1.90547
   A26        2.10250   0.00053   0.00000   0.00150   0.00148   2.10398
   A27        2.26854   0.00117   0.00000   0.00521   0.00520   2.27373
    D1       -0.00001   0.00003   0.00000   0.00087   0.00088   0.00087
    D2       -3.14156   0.00001   0.00000   0.00043   0.00043  -3.14113
    D3        3.14152   0.00002   0.00000   0.00059   0.00060  -3.14107
    D4       -0.00002   0.00000   0.00000   0.00015   0.00015   0.00013
    D5       -0.00003  -0.00002   0.00000  -0.00072  -0.00072  -0.00075
    D6        3.14153  -0.00000   0.00000  -0.00002  -0.00001   3.14152
    D7       -3.14157  -0.00001   0.00000  -0.00044  -0.00043   3.14118
    D8       -0.00001   0.00001   0.00000   0.00027   0.00027   0.00026
    D9        0.00003  -0.00001   0.00000  -0.00035  -0.00034  -0.00031
   D10       -3.14154  -0.00001   0.00000  -0.00023  -0.00023   3.14142
   D11        3.14158   0.00000   0.00000   0.00010   0.00011  -3.14150
   D12        0.00001   0.00001   0.00000   0.00021   0.00021   0.00022
   D13       -0.00001  -0.00001   0.00000  -0.00030  -0.00030  -0.00031
   D14       -3.14144   0.00003   0.00000   0.00096   0.00096  -3.14048
   D15        3.14156  -0.00001   0.00000  -0.00041  -0.00041   3.14115
   D16        0.00013   0.00003   0.00000   0.00085   0.00085   0.00098
   D17       -0.00004   0.00001   0.00000   0.00044   0.00044   0.00041
   D18       -3.14151  -0.00000   0.00000  -0.00012  -0.00012   3.14155
   D19        3.14143  -0.00002   0.00000  -0.00057  -0.00057   3.14086
   D20       -0.00005  -0.00004   0.00000  -0.00113  -0.00113  -0.00118
   D21       -3.14124  -0.00002   0.00000  -0.00070  -0.00069   3.14125
   D22       -0.00113  -0.00000   0.00000  -0.00015  -0.00014  -0.00128
   D23        0.00049   0.00001   0.00000   0.00041   0.00041   0.00090
   D24        3.14060   0.00003   0.00000   0.00097   0.00096   3.14156
   D25        0.00005   0.00000   0.00000   0.00008   0.00008   0.00013
   D26       -3.14151  -0.00002   0.00000  -0.00062  -0.00062   3.14106
   D27        3.14150   0.00003   0.00000   0.00083   0.00083  -3.14086
   D28       -0.00007   0.00000   0.00000   0.00013   0.00013   0.00006
   D29       -0.00041   0.00005   0.00000   0.00143   0.00143   0.00102
   D30        3.14139   0.00002   0.00000   0.00059   0.00058  -3.14121
   D31        3.14132   0.00002   0.00000   0.00074   0.00075  -3.14111
   D32       -0.00006  -0.00000   0.00000  -0.00010  -0.00010  -0.00016
   D33       -0.00077   0.00002   0.00000   0.00051   0.00050  -0.00027
   D34        3.14133   0.00000   0.00000  -0.00001  -0.00002   3.14131
   D35       -3.14089  -0.00000   0.00000  -0.00004  -0.00004  -3.14093
   D36        0.00121  -0.00002   0.00000  -0.00056  -0.00056   0.00065
   D37        0.00072  -0.00004   0.00000  -0.00121  -0.00122  -0.00050
   D38       -3.14144  -0.00002   0.00000  -0.00062  -0.00063   3.14111
   D39       -3.14107  -0.00001   0.00000  -0.00038  -0.00038  -3.14146
   D40       -0.00005   0.00001   0.00000   0.00021   0.00020   0.00015
         Item               Value     Threshold  Converged?
 Maximum Force            0.035146     0.000450     NO 
 RMS     Force            0.008276     0.000300     NO 
 Maximum Displacement     0.101144     0.001800     NO 
 RMS     Displacement     0.026244     0.001200     NO 
 Predicted change in Energy=-6.415030D-03
 GradGradGradGradGradGradGradGradGradGradGradGradGradGradGradGradGradGrad

                          Input orientation:                          
 ---------------------------------------------------------------------
 Center     Atomic      Atomic             Coordinates (Angstroms)
 Number     Number       Type             X           Y           Z
 ---------------------------------------------------------------------
      1          6           0       -2.169829    0.701259    0.000017
      2          6           0       -2.148467   -0.735207   -0.000112
      3          6           0       -0.933017   -1.458932    0.000344
      4          6           0        0.255677   -0.684993    0.000541
      5          6           0        0.259119    0.775405   -0.000086
      6          6           0       -0.978399    1.473123   -0.000434
      7          7           0        1.566849   -1.087022   -0.000200
      8          6           0        1.626151    1.176879    0.000404
      9          6           0        2.401394    0.027654   -0.000076
     10          1           0        1.880064   -2.043928    0.000015
     11          1           0        2.002251    2.191200    0.000479
     12          1           0        3.476643   -0.090533   -0.000326
     13          1           0       -3.089046   -1.278518   -0.000194
     14          1           0       -0.913326   -2.545313    0.000411
     15          1           0       -3.131101    1.207427    0.000153
     16          1           0       -1.008060    2.558944   -0.000401
 ---------------------------------------------------------------------
                    Distance matrix (angstroms):
                    1          2          3          4          5
     1  C    0.000000
     2  C    1.436625   0.000000
     3  C    2.489201   1.414601   0.000000
     4  C    2.793702   2.404669   1.418442   0.000000
     5  C    2.430079   2.842256   2.532479   1.460402   0.000000
     6  C    1.419605   2.499156   2.932406   2.486043   1.420656
     7  N    4.142548   3.731936   2.527380   1.371422   2.275696
     8  C    3.825660   4.231290   3.673804   2.311875   1.424766
     9  C    4.620586   4.613371   3.650785   2.260965   2.269024
    10  H    4.892615   4.235778   2.873265   2.117861   3.252092
    11  H    4.430143   5.078614   4.683936   3.364967   2.245659
    12  H    5.701717   5.661932   4.617101   3.275363   3.332013
    13  H    2.182768   1.086220   2.163564   3.396976   3.927952
    14  H    3.481240   2.191360   1.086560   2.197125   3.521618
    15  H    1.086394   2.177016   3.455581   3.879630   3.417636
    16  H    2.191050   3.485967   4.018577   3.481402   2.187866
                    6          7          8          9         10
     6  C    0.000000
     7  N    3.610074   0.000000
     8  C    2.621344   2.264678   0.000000
     9  C    3.675919   1.392468   1.386261   0.000000
    10  H    4.532159   1.006863   3.230800   2.136174   0.000000
    11  H    3.065927   3.307010   1.081803   2.200056   4.236890
    12  H    4.721485   2.154136   2.242912   1.081725   2.522859
    13  H    3.467904   4.659831   5.316207   5.643670   5.027714
    14  H    4.018963   2.877131   4.505958   4.196132   2.838030
    15  H    2.169037   5.228311   4.757350   5.656887   5.973533
    16  H    1.086226   4.463544   2.974756   4.246387   5.433939
                   11         12         13         14         15
    11  H    0.000000
    12  H    2.716641   0.000000
    13  H    6.161189   6.672299   0.000000
    14  H    5.561937   5.029689   2.517643   0.000000
    15  H    5.226769   6.734017   2.486301   4.359081   0.000000
    16  H    3.032690   5.208867   4.365389   5.105137   2.516725
                   16
    16  H    0.000000
 Stoichiometry    C8H7N
 Framework group  C1[X(C8H7N)]
 Deg. of freedom    42
 Full point group                 C1      NOp   1
 Largest Abelian subgroup         C1      NOp   1
 Largest concise Abelian subgroup C1      NOp   1
                         Standard orientation:                         
 ---------------------------------------------------------------------
 Center     Atomic      Atomic             Coordinates (Angstroms)
 Number     Number       Type             X           Y           Z
 ---------------------------------------------------------------------
      1          6           0       -2.169906    0.703404   -0.000020
      2          6           0       -2.150405   -0.733089   -0.000150
      3          6           0       -0.935893   -1.458386    0.000306
      4          6           0        0.253803   -0.685988    0.000504
      5          6           0        0.259136    0.774404   -0.000123
      6          6           0       -0.977478    1.473725   -0.000471
      7          7           0        1.564453   -1.089714   -0.000238
      8          6           0        1.626686    1.174108    0.000366
      9          6           0        2.400440    0.023880   -0.000113
     10          1           0        1.876429   -2.047025   -0.000022
     11          1           0        2.004099    2.187941    0.000441
     12          1           0        3.475536   -0.095699   -0.000363
     13          1           0       -3.091686   -1.275181   -0.000231
     14          1           0       -0.917608   -2.544793    0.000374
     15          1           0       -3.130522    1.210817    0.000116
     16          1           0       -1.005733    2.559583   -0.000439
 ---------------------------------------------------------------------
 Rotational constants (GHZ):           3.7353900           1.6205187           1.1302040
 Standard basis: 6-31+G(d) (6D, 7F)
 There are   185 symmetry adapted cartesian basis functions of A   symmetry.
 There are   185 symmetry adapted basis functions of A   symmetry.
   185 basis functions,   316 primitive gaussians,   185 cartesian basis functions
    31 alpha electrons       31 beta electrons
       nuclear repulsion energy       396.2279290479 Hartrees.
 NAtoms=   16 NActive=   16 NUniq=   16 SFac= 1.00D+00 NAtFMM=   60 NAOKFM=F Big=F
 Integral buffers will be    131072 words long.
 Regular integral format.
 Two-electron integral symmetry is turned on.
 One-electron integrals computed using PRISM.
 NBasis=   185 RedAO= T EigKep=  1.51D-06  NBF=   185
 NBsUse=   185 1.00D-06 EigRej= -1.00D+00 NBFU=   185
 Initial guess from the checkpoint file:  "FuncsSOGGA11X-V-3rd.chk"
 B after Tr=     0.000000    0.000000   -0.000000
         Rot=    1.000000    0.000032    0.000016    0.000624 Ang=   0.07 deg.
 ExpMin= 4.38D-02 ExpMax= 4.17D+03 ExpMxC= 6.27D+02 IAcc=3 IRadAn=         5 AccDes= 0.00D+00
 Harris functional with IExCor= 5143 and IRadAn=       5 diagonalized for initial guess.
 HarFok:  IExCor= 5143 AccDes= 0.00D+00 IRadAn=         5 IDoV= 1 UseB2=F ITyADJ=14
 ICtDFT=  3500011 ScaDFX=  1.000000  1.000000  1.000000  1.000000
 FoFCou: FMM=F IPFlag=           0 FMFlag=      100000 FMFlg1=           0
         NFxFlg=           0 DoJE=T BraDBF=F KetDBF=T FulRan=T
         wScrn=  0.000000 ICntrl=       500 IOpCl=  0 I1Cent=   200000004 NGrid=           0
         NMat0=    1 NMatS0=      1 NMatT0=    0 NMatD0=    1 NMtDS0=    0 NMtDT0=    0
 Petite list used in FoFCou.
 Keep R1 ints in memory in canonical form, NReq=152071459.
 Requested convergence on RMS density matrix=1.00D-08 within 128 cycles.
 Requested convergence on MAX density matrix=1.00D-06.
 Requested convergence on             energy=1.00D-06.
 No special actions if energy rises.
 SCF Done:  E(RSOGGA11X) =  -363.725259518     A.U. after   12 cycles
            NFock= 12  Conv=0.71D-08     -V/T= 2.0094
 DoSCS=F DFT=T ScalE2(SS,OS)=  1.000000  1.000000
 ExpMin= 4.38D-02 ExpMax= 4.17D+03 ExpMxC= 6.27D+02 IAcc=3 IRadAn=         5 AccDes= 0.00D+00
 HarFok:  IExCor=  205 AccDes= 0.00D+00 IRadAn=         5 IDoV=-2 UseB2=F ITyADJ=14
 ICtDFT= 12500011 ScaDFX=  1.000000  1.000000  1.000000  1.000000
 Range of M.O.s used for correlation:    10   185
 NBasis=   185 NAE=    31 NBE=    31 NFC=     9 NFV=     0
 NROrb=    176 NOA=    22 NOB=    22 NVA=   154 NVB=   154

 **** Warning!!: The largest alpha MO coefficient is  0.16711348D+03

 Orbital symmetries:
       Occupied  (A) (A) (A) (A) (A) (A) (A) (A) (A) (A) (A) (A)
                 (A) (A) (A) (A) (A) (A) (A) (A) (A) (A) (A) (A)
                 (A) (A) (A) (A) (A) (A) (A)
       Virtual   (A) (A) (A) (A) (A) (A) (A) (A) (A) (A) (A) (A)
                 (A) (A) (A) (A) (A) (A) (A) (A) (A) (A) (A) (A)
                 (A) (A) (A) (A) (A) (A) (A) (A) (A) (A) (A) (A)
                 (A) (A) (A) (A) (A) (A) (A) (A) (A) (A) (A) (A)
                 (A) (A) (A) (A) (A) (A) (A) (A) (A) (A) (A) (A)
                 (A) (A) (A) (A) (A) (A) (A) (A) (A) (A) (A) (A)
                 (A) (A) (A) (A) (A) (A) (A) (A) (A) (A) (A) (A)
                 (A) (A) (A) (A) (A) (A) (A) (A) (A) (A) (A) (A)
                 (A) (A) (A) (A) (A) (A) (A) (A) (A) (A) (A) (A)
                 (A) (A) (A) (A) (A) (A) (A) (A) (A) (A) (A) (A)
                 (A) (A) (A) (A) (A) (A) (A) (A) (A) (A) (A) (A)
                 (A) (A) (A) (A) (A) (A) (A) (A) (A) (A) (A) (A)
                 (A) (A) (A) (A) (A) (A) (A) (A) (A) (A)
 Generating guess from densities on rwf.
 Convergence on wavefunction:    0.000001000000000
 Iteration     1 Dimension    12 NMult     0 NNew     12
 CISAX will form    12 AO SS matrices at one time.
 New state      1 was old state      3
 New state      2 was old state      1
 New state      3 was old state      2
 New state      5 was old state      6
 New state      6 was old state      5
 Iteration     2 Dimension    24 NMult    12 NNew     12
 New state      5 was old state      6
 New state      6 was old state      5
 Iteration     3 Dimension    36 NMult    24 NNew     12
 Iteration     4 Dimension    48 NMult    36 NNew     12
 Iteration     5 Dimension    60 NMult    48 NNew     12
 Iteration     6 Dimension    72 NMult    60 NNew     12
 Iteration     7 Dimension    84 NMult    72 NNew     12
 Iteration     8 Dimension    96 NMult    84 NNew     12
 Iteration     9 Dimension   108 NMult    96 NNew     12
 Iteration    10 Dimension   114 NMult   108 NNew      6
 Iteration    11 Dimension   116 NMult   114 NNew      2
 ***********************************************************************
 Excited states from <AA,BB:AA,BB> singles matrix:
 ***********************************************************************
 
 Ground to excited state transition densities written to RWF  633
 Ground to excited state transition electric dipole moments (Au):
       state          X           Y           Z        Dip. S.      Osc.
         1        -0.0019     -0.0005     -0.1525      0.0233      0.0029
         2        -0.6651      0.6783     -0.0002      0.9024      0.1083
         3        -0.6899     -0.1711      0.0003      0.5053      0.0605
         4         0.0009     -0.0007     -0.1075      0.0116      0.0016
         5         0.0002      0.0005     -0.0399      0.0016      0.0002
         6         0.0012      0.0005      0.0959      0.0092      0.0013
 Ground to excited state transition velocity dipole moments (Au):
       state          X           Y           Z        Dip. S.      Osc.
         1         0.0003      0.0001      0.0198      0.0004      0.0014
         2         0.1102     -0.1307      0.0000      0.0292      0.1083
         3         0.1182      0.0322     -0.0000      0.0150      0.0557
         4        -0.0002      0.0002      0.0246      0.0006      0.0020
         5        -0.0001     -0.0001      0.0084      0.0001      0.0002
         6        -0.0003     -0.0001     -0.0188      0.0004      0.0011
 Ground to excited state transition magnetic dipole moments (Au):
       state          X           Y           Z
         1         0.1261     -0.1100     -0.0004
         2        -0.0001      0.0003      0.1706
         3        -0.0002      0.0002     -0.1043
         4         0.0316     -0.2484     -0.0003
         5         0.2164     -0.2983      0.0003
         6         0.2456      0.2442      0.0002
 Ground to excited state transition velocity quadrupole moments (Au):
       state          XX          YY          ZZ          XY          XZ          YZ
         1         0.0002     -0.0004      0.0001     -0.0001      0.0879      0.0368
         2         0.2471     -0.1430      0.0176      0.0354     -0.0002     -0.0000
         3         0.0709     -0.1233      0.0214     -0.0260     -0.0001      0.0000
         4         0.0004      0.0003     -0.0002     -0.0004      0.1580     -0.0188
         5        -0.0001      0.0000     -0.0000      0.0000      0.3240      0.2319
         6         0.0000      0.0002     -0.0001      0.0003     -0.1889      0.1359
 <0|del|b> * <b|rxdel|0> + <0|del|b> * <b|delr+rdel|0>
 Rotatory Strengths (R) in cgs (10**-40 erg-esu-cm/Gauss)
       state          XX          YY          ZZ    R(velocity)    E-M Angle
         1        -0.0449      0.0905      0.0541      0.0332       90.00
         2        -0.0892     -0.0151     -0.0431     -0.0491       90.00
         3         0.0320     -0.0327     -0.0483     -0.0163       90.00
         4        -0.1427      0.0023     -0.0433     -0.0612       90.00
         5         0.1075     -0.0360     -0.0029      0.0229       90.00
         6        -0.1078     -0.1624     -0.0591     -0.1097       90.00
 1/2[<0|r|b>*<b|rxdel|0> + (<0|rxdel|b>*<b|r|0>)*]
 Rotatory Strengths (R) in cgs (10**-40 erg-esu-cm/Gauss)
       state          XX          YY          ZZ     R(length)
         1         0.1721     -0.0393     -0.0453      0.0292
         2        -0.0469     -0.1250      0.0217     -0.0501
         3        -0.0995      0.0289      0.0208     -0.0166
         4        -0.0208     -0.1172     -0.0202     -0.0527
         5        -0.0380      0.0993      0.0079      0.0231
         6        -0.2124     -0.0815     -0.0162     -0.1034
  1/2[<0|del|b>*<b|r|0> + (<0|r|b>*<b|del|0>)*] (Au)
       state          X           Y           Z        Dip. S.   Osc.(frdel)
         1        -0.0000     -0.0000     -0.0030      0.0030      0.0020
         2        -0.0733     -0.0887     -0.0000      0.1619      0.1080
         3        -0.0815     -0.0055     -0.0000      0.0870      0.0580
         4        -0.0000     -0.0000     -0.0026      0.0026      0.0018
         5        -0.0000     -0.0000     -0.0003      0.0003      0.0002
         6        -0.0000     -0.0000     -0.0018      0.0018      0.0012

 Excitation energies and oscillator strengths:
 
 Excited State   1:      Singlet-A      5.1154 eV  242.37 nm  f=0.0029  <S**2>=0.000
      31 -> 33         0.69790
 
 Excited State   2:      Singlet-A      4.8973 eV  253.17 nm  f=0.1083  <S**2>=0.000
      30 -> 32        -0.17062
      30 -> 36         0.19286
      31 -> 32         0.65023
 
 Excited State   3:      Singlet-A      4.8877 eV  253.67 nm  f=0.0605  <S**2>=0.000
      30 -> 32         0.58005
      31 -> 32         0.15800
      31 -> 36        -0.35005
 This state for optimization and/or second-order correction.
 Total Energy, E(TD-HF/TD-DFT) =  -363.545639606    
 Copying the excited state density for this state as the 1-particle RhoCI density.
 
 Excited State   4:      Singlet-A      5.4941 eV  225.67 nm  f=0.0016  <S**2>=0.000
      30 -> 33         0.68629
 
 Excited State   5:      Singlet-A      5.7499 eV  215.63 nm  f=0.0002  <S**2>=0.000
      31 -> 34         0.67859
      31 -> 35        -0.11906
 
 Excited State   6:      Singlet-A      5.8404 eV  212.29 nm  f=0.0013  <S**2>=0.000
      31 -> 34         0.11671
      31 -> 35         0.67489
 SavETr:  write IOETrn=   770 NScale= 10 NData=  16 NLR=1 NState=    6 LETran=     118.
          IDoAtm=1111111111111111
          Differentiating once with respect to electric field.
                with respect to dipole field.
          Differentiating once with respect to nuclear coordinates.
 Keep R1 ints in memory in canonical form, NReq=152083851.
          There are     1 degrees of freedom in the 1st order CPHF.  IDoFFX=0 NUNeed=     1.
 LinEq1:  Iter=  0 NonCon=     1 RMS=4.69D-03 Max=1.23D-01 NDo=     1
 AX will form     1 AO Fock derivatives at one time.
 LinEq1:  Iter=  1 NonCon=     1 RMS=1.58D-03 Max=5.25D-02 NDo=     1
 LinEq1:  Iter=  2 NonCon=     1 RMS=1.15D-03 Max=4.15D-02 NDo=     1
 LinEq1:  Iter=  3 NonCon=     1 RMS=4.30D-04 Max=1.04D-02 NDo=     1
 LinEq1:  Iter=  4 NonCon=     1 RMS=1.76D-04 Max=6.32D-03 NDo=     1
 LinEq1:  Iter=  5 NonCon=     1 RMS=1.16D-04 Max=5.11D-03 NDo=     1
 LinEq1:  Iter=  6 NonCon=     1 RMS=5.03D-05 Max=1.54D-03 NDo=     1
 LinEq1:  Iter=  7 NonCon=     1 RMS=2.61D-05 Max=5.29D-04 NDo=     1
 LinEq1:  Iter=  8 NonCon=     1 RMS=1.15D-05 Max=2.65D-04 NDo=     1
 LinEq1:  Iter=  9 NonCon=     1 RMS=5.64D-06 Max=9.61D-05 NDo=     1
 LinEq1:  Iter= 10 NonCon=     1 RMS=2.29D-06 Max=3.75D-05 NDo=     1
 LinEq1:  Iter= 11 NonCon=     1 RMS=1.19D-06 Max=2.10D-05 NDo=     1
 LinEq1:  Iter= 12 NonCon=     1 RMS=3.36D-07 Max=5.69D-06 NDo=     1
 LinEq1:  Iter= 13 NonCon=     1 RMS=2.17D-07 Max=5.33D-06 NDo=     1
 LinEq1:  Iter= 14 NonCon=     1 RMS=7.04D-08 Max=9.15D-07 NDo=     1
 LinEq1:  Iter= 15 NonCon=     1 RMS=3.61D-08 Max=7.10D-07 NDo=     1
 LinEq1:  Iter= 16 NonCon=     1 RMS=1.48D-08 Max=2.46D-07 NDo=     1
 LinEq1:  Iter= 17 NonCon=     1 RMS=2.93D-09 Max=4.58D-08 NDo=     1
 LinEq1:  Iter= 18 NonCon=     1 RMS=1.71D-09 Max=3.87D-08 NDo=     1
 LinEq1:  Iter= 19 NonCon=     1 RMS=4.27D-10 Max=5.27D-09 NDo=     1
 LinEq1:  Iter= 20 NonCon=     0 RMS=8.01D-11 Max=8.26D-10 NDo=     1
 Linear equations converged to 1.000D-10 1.000D-09 after    20 iterations.
 End of Minotr F.D. properties file   721 does not exist.
 End of Minotr F.D. properties file   722 does not exist.
 End of Minotr F.D. properties file   788 does not exist.
 Calling FoFJK, ICntrl=  10005127 FMM=F ISym2X=0 I1Cent= 0 IOpClX= 0 NMat=1 NMatS=1 NMatT=0.
 ***** Axes restored to original set *****
 -------------------------------------------------------------------
 Center     Atomic                   Forces (Hartrees/Bohr)
 Number     Number              X              Y              Z
 -------------------------------------------------------------------
      1        6           0.001481918   -0.003892539   -0.000026347
      2        6           0.001271822    0.002194580    0.000027778
      3        6          -0.001024536   -0.001248422   -0.000002319
      4        6           0.003302754   -0.004703295   -0.000081006
      5        6           0.001148450    0.003594857    0.000076069
      6        6           0.001865672    0.000618558    0.000015184
      7        7          -0.010344531    0.003634648    0.000026780
      8        6          -0.002860006   -0.004701330   -0.000053198
      9        6           0.005768389    0.004665485    0.000018689
     10        1           0.000002174   -0.000077925    0.000000543
     11        1           0.000392964   -0.000240958   -0.000004112
     12        1          -0.000629029   -0.000204951    0.000005395
     13        1           0.000055820    0.000875179   -0.000005211
     14        1          -0.000010917    0.001024576    0.000002228
     15        1           0.000030554   -0.000435465    0.000004199
     16        1          -0.000451500   -0.001102998   -0.000004670
 -------------------------------------------------------------------
 Cartesian Forces:  Max     0.010344531 RMS     0.002445965

 GradGradGradGradGradGradGradGradGradGradGradGradGradGradGradGradGradGrad
 Berny optimization.
 Using GEDIIS/GDIIS optimizer.
 FormGI is forming the generalized inverse of G from B-inverse, IUseBI=4.
 Internal  Forces:  Max     0.006817650 RMS     0.001294045
 Search for a local minimum.
 Step number   2 out of a maximum of   94
 All quantities printed in internal units (Hartrees-Bohrs-Radians)
 Mixed Optimization -- RFO/linear search
 Update second derivatives using D2CorX and points    1    2
 DE= -6.02D-03 DEPred=-6.42D-03 R= 9.39D-01
 TightC=F SS=  1.41D+00  RLast= 1.67D-01 DXNew= 5.0454D-01 5.0181D-01
 Trust test= 9.39D-01 RLast= 1.67D-01 DXMaxT set to 5.02D-01
 ITU=  1  0
 Use linear search instead of GDIIS.
     Eigenvalues ---    0.01853   0.01932   0.01986   0.02011   0.02071
     Eigenvalues ---    0.02113   0.02148   0.02152   0.02171   0.02209
     Eigenvalues ---    0.02234   0.02248   0.02339   0.15982   0.16000
     Eigenvalues ---    0.16000   0.16000   0.16000   0.16000   0.16008
     Eigenvalues ---    0.21194   0.22007   0.22782   0.23982   0.24626
     Eigenvalues ---    0.35714   0.35721   0.35786   0.35832   0.36417
     Eigenvalues ---    0.36458   0.36980   0.38158   0.42852   0.44011
     Eigenvalues ---    0.44500   0.46470   0.47126   0.47166   0.47615
     Eigenvalues ---    0.48909   0.56400
 RFO step:  Lambda=-3.92203004D-04 EMin= 1.85266694D-02
 Quartic linear search produced a step of -0.00945.
 Iteration  1 RMS(Cart)=  0.00502657 RMS(Int)=  0.00001560
 Iteration  2 RMS(Cart)=  0.00002041 RMS(Int)=  0.00000602
 Iteration  3 RMS(Cart)=  0.00000000 RMS(Int)=  0.00000602
 Variable       Old X    -DE/DX   Delta X   Delta X   Delta X     New X
                                 (Linear)    (Quad)   (Total)
    R1        2.71483  -0.00354  -0.00056  -0.00577  -0.00633   2.70850
    R2        2.68266  -0.00023  -0.00066   0.00212   0.00146   2.68413
    R3        2.05299  -0.00023  -0.00008  -0.00029  -0.00037   2.05262
    R4        2.67321  -0.00200  -0.00054  -0.00189  -0.00244   2.67077
    R5        2.05266  -0.00049  -0.00008  -0.00100  -0.00108   2.05157
    R6        2.68047  -0.00047  -0.00044   0.00106   0.00062   2.68108
    R7        2.05330  -0.00102  -0.00008  -0.00252  -0.00260   2.05070
    R8        2.75976   0.00115  -0.00075   0.00592   0.00515   2.76491
    R9        2.59161  -0.00682   0.00009  -0.01421  -0.01412   2.57749
   R10        2.68465  -0.00255  -0.00035  -0.00397  -0.00432   2.68033
   R11        2.69242  -0.00209   0.00015  -0.00557  -0.00543   2.68699
   R12        2.05267  -0.00109  -0.00007  -0.00273  -0.00280   2.04987
   R13        2.63138   0.00325  -0.00024   0.00759   0.00736   2.63875
   R14        1.90270   0.00007  -0.00007   0.00045   0.00038   1.90307
   R15        2.61965  -0.00278  -0.00039  -0.00338  -0.00375   2.61590
   R16        2.04431  -0.00009  -0.00010   0.00016   0.00006   2.04438
   R17        2.04416  -0.00060  -0.00009  -0.00125  -0.00134   2.04283
    A1        2.13079   0.00174  -0.00016   0.00739   0.00723   2.13802
    A2        2.07034  -0.00125   0.00009  -0.00609  -0.00601   2.06433
    A3        2.08206  -0.00049   0.00007  -0.00129  -0.00123   2.08083
    A4        2.12272   0.00029  -0.00007   0.00069   0.00062   2.12335
    A5        2.07974  -0.00089   0.00004  -0.00498  -0.00494   2.07480
    A6        2.08072   0.00061   0.00003   0.00429   0.00432   2.08504
    A7        2.02740  -0.00137   0.00023  -0.00692  -0.00670   2.02070
    A8        2.12598   0.00069  -0.00013   0.00356   0.00344   2.12941
    A9        2.12981   0.00068  -0.00010   0.00336   0.00326   2.13307
   A10        2.15029   0.00123  -0.00016   0.00685   0.00670   2.15698
   A11        2.26694   0.00025   0.00011   0.00051   0.00064   2.26757
   A12        1.86596  -0.00149   0.00004  -0.00736  -0.00733   1.85863
   A13        2.08182  -0.00108  -0.00009  -0.00314  -0.00322   2.07860
   A14        1.85880   0.00037   0.00006   0.00078   0.00082   1.85962
   A15        2.34256   0.00071   0.00003   0.00236   0.00240   2.34497
   A16        2.05335  -0.00081   0.00024  -0.00487  -0.00463   2.04872
   A17        2.11835  -0.00009  -0.00014  -0.00052  -0.00066   2.11769
   A18        2.11149   0.00090  -0.00010   0.00539   0.00529   2.11678
   A19        1.91594   0.00288  -0.00008   0.01282   0.01275   1.92869
   A20        2.18464  -0.00146   0.00005  -0.00659  -0.00654   2.17810
   A21        2.18260  -0.00142   0.00003  -0.00623  -0.00620   2.17640
   A22        1.87861   0.00117  -0.00008   0.00653   0.00645   1.88505
   A23        2.21152  -0.00012   0.00005  -0.00045  -0.00040   2.21112
   A24        2.19306  -0.00105   0.00003  -0.00607  -0.00604   2.18702
   A25        1.90547  -0.00293   0.00006  -0.01277  -0.01268   1.89279
   A26        2.10398   0.00119  -0.00001   0.00459   0.00456   2.10855
   A27        2.27373   0.00175  -0.00005   0.00818   0.00812   2.28185
    D1        0.00087  -0.00001  -0.00001  -0.00032  -0.00033   0.00054
    D2       -3.14113  -0.00000  -0.00000  -0.00008  -0.00009  -3.14122
    D3       -3.14107  -0.00000  -0.00001  -0.00011  -0.00011  -3.14118
    D4        0.00013   0.00000  -0.00000   0.00013   0.00013   0.00025
    D5       -0.00075   0.00000   0.00001   0.00018   0.00018  -0.00057
    D6        3.14152  -0.00000   0.00000  -0.00008  -0.00008   3.14144
    D7        3.14118  -0.00000   0.00000  -0.00004  -0.00003   3.14115
    D8        0.00026  -0.00001  -0.00000  -0.00029  -0.00029  -0.00003
    D9       -0.00031   0.00000   0.00000   0.00015   0.00015  -0.00015
   D10        3.14142  -0.00000   0.00000  -0.00005  -0.00005   3.14137
   D11       -3.14150  -0.00000  -0.00000  -0.00008  -0.00008  -3.14158
   D12        0.00022  -0.00001  -0.00000  -0.00028  -0.00028  -0.00006
   D13       -0.00031   0.00000   0.00000   0.00014   0.00014  -0.00017
   D14       -3.14048  -0.00001  -0.00001  -0.00070  -0.00071  -3.14119
   D15        3.14115   0.00001   0.00000   0.00034   0.00035   3.14149
   D16        0.00098  -0.00001  -0.00001  -0.00050  -0.00051   0.00047
   D17        0.00041  -0.00001  -0.00000  -0.00027  -0.00028   0.00013
   D18        3.14155   0.00001   0.00000   0.00031   0.00031  -3.14132
   D19        3.14086   0.00001   0.00001   0.00040   0.00041   3.14126
   D20       -0.00118   0.00002   0.00001   0.00098   0.00099  -0.00019
   D21        3.14125   0.00001   0.00001   0.00020   0.00020   3.14145
   D22       -0.00128   0.00001   0.00000   0.00030   0.00030  -0.00098
   D23        0.00090  -0.00001  -0.00000  -0.00055  -0.00055   0.00035
   D24        3.14156  -0.00001  -0.00001  -0.00045  -0.00045   3.14111
   D25        0.00013   0.00000  -0.00000   0.00011   0.00010   0.00024
   D26        3.14106   0.00001   0.00001   0.00036   0.00036   3.14142
   D27       -3.14086  -0.00001  -0.00001  -0.00067  -0.00068  -3.14154
   D28        0.00006  -0.00001  -0.00000  -0.00042  -0.00042  -0.00036
   D29        0.00102  -0.00002  -0.00001  -0.00105  -0.00106  -0.00004
   D30       -3.14121  -0.00001  -0.00001  -0.00047  -0.00048   3.14150
   D31       -3.14111  -0.00001  -0.00001  -0.00034  -0.00035  -3.14146
   D32       -0.00016   0.00000   0.00000   0.00024   0.00024   0.00008
   D33       -0.00027  -0.00000  -0.00000  -0.00011  -0.00012  -0.00039
   D34        3.14131   0.00000   0.00000   0.00011   0.00011   3.14142
   D35       -3.14093  -0.00000   0.00000  -0.00021  -0.00021  -3.14114
   D36        0.00065  -0.00000   0.00001   0.00001   0.00002   0.00066
   D37       -0.00050   0.00002   0.00001   0.00074   0.00075   0.00025
   D38        3.14111   0.00001   0.00001   0.00049   0.00049  -3.14158
   D39       -3.14146   0.00000   0.00000   0.00017   0.00017  -3.14129
   D40        0.00015  -0.00000  -0.00000  -0.00009  -0.00009   0.00006
         Item               Value     Threshold  Converged?
 Maximum Force            0.006818     0.000450     NO 
 RMS     Force            0.001294     0.000300     NO 
 Maximum Displacement     0.020360     0.001800     NO 
 RMS     Displacement     0.005031     0.001200     NO 
 Predicted change in Energy=-1.972808D-04
 GradGradGradGradGradGradGradGradGradGradGradGradGradGradGradGradGradGrad

                          Input orientation:                          
 ---------------------------------------------------------------------
 Center     Atomic      Atomic             Coordinates (Angstroms)
 Number     Number       Type             X           Y           Z
 ---------------------------------------------------------------------
      1          6           0       -2.163323    0.696580    0.000111
      2          6           0       -2.145664   -0.736586   -0.000111
      3          6           0       -0.933619   -1.463497    0.000036
      4          6           0        0.252610   -0.685188    0.000219
      5          6           0        0.260690    0.777917    0.000052
      6          6           0       -0.974876    1.474443   -0.000155
      7          7           0        1.558291   -1.079591   -0.000032
      8          6           0        1.625903    1.175378   -0.000045
      9          6           0        2.404732    0.030980    0.000111
     10          1           0        1.869290   -2.037430    0.000407
     11          1           0        2.003987    2.188998   -0.000258
     12          1           0        3.478794   -0.091446    0.000112
     13          1           0       -3.089787   -1.272553   -0.000246
     14          1           0       -0.913664   -2.548500    0.000076
     15          1           0       -3.126167    1.199332    0.000381
     16          1           0       -1.010294    2.558611   -0.000123
[...]
 ! D10   D(1,2,3,14)          -179.995          -DE/DX =    0.0                 !
 ! D11   D(13,2,3,4)           179.9966         -DE/DX =    0.0                 !
 ! D12   D(13,2,3,14)            0.006          -DE/DX =    0.0                 !
 ! D13   D(2,3,4,5)              0.0049         -DE/DX =    0.0                 !
 ! D14   D(2,3,4,7)            179.9969         -DE/DX =    0.0                 !
 ! D15   D(14,3,4,5)           179.9953         -DE/DX =    0.0                 !
 ! D16   D(14,3,4,7)            -0.0126         -DE/DX =    0.0                 !
 ! D17   D(3,4,5,6)             -0.0015         -DE/DX =    0.0                 !
 ! D18   D(3,4,5,8)            179.9857         -DE/DX =    0.0                 !
 ! D19   D(7,4,5,6)           -179.9951         -DE/DX =    0.0                 !
 ! D20   D(7,4,5,8)             -0.0079         -DE/DX =    0.0                 !
 ! D21   D(3,4,7,9)           -179.9881         -DE/DX =    0.0                 !
 ! D22   D(3,4,7,10)             0.0149         -DE/DX =    0.0                 !
 ! D23   D(5,4,7,9)              0.005          -DE/DX =    0.0                 !
 ! D24   D(5,4,7,10)          -179.992          -DE/DX =    0.0                 !
 ! D25   D(4,5,6,1)             -0.0026         -DE/DX =    0.0                 !
 ! D26   D(4,5,6,16)          -180.0035         -DE/DX =    0.0                 !
 ! D27   D(8,5,6,1)           -179.9858         -DE/DX =    0.0                 !
 ! D28   D(8,5,6,16)             0.0133         -DE/DX =    0.0                 !
 ! D29   D(4,5,8,9)              0.008          -DE/DX =    0.0                 !
 ! D30   D(4,5,8,11)          -179.9965         -DE/DX =    0.0                 !
 ! D31   D(6,5,8,9)            179.9928         -DE/DX =    0.0                 !
 ! D32   D(6,5,8,11)            -0.0117         -DE/DX =    0.0                 !
 ! D33   D(4,7,9,8)             -0.0001         -DE/DX =    0.0                 !
 ! D34   D(4,7,9,12)          -179.9881         -DE/DX =    0.0                 !
 ! D35   D(10,7,9,8)           179.9969         -DE/DX =    0.0                 !
 ! D36   D(10,7,9,12)            0.0089         -DE/DX =    0.0                 !
 ! D37   D(5,8,9,7)             -0.0049         -DE/DX =    0.0                 !
 ! D38   D(5,8,9,12)           179.9817         -DE/DX =    0.0                 !
 ! D39   D(11,8,9,7)           179.9993         -DE/DX =    0.0                 !
 ! D40   D(11,8,9,12)           -0.0141         -DE/DX =    0.0                 !
 --------------------------------------------------------------------------------
 GradGradGradGradGradGradGradGradGradGradGradGradGradGradGradGradGradGrad

                          Input orientation:                          
 ---------------------------------------------------------------------
 Center     Atomic      Atomic             Coordinates (Angstroms)
 Number     Number       Type             X           Y           Z
 ---------------------------------------------------------------------
      1          6           0       -2.184770    0.686402   -0.000096
      2          6           0       -2.153736   -0.697467   -0.000033
      3          6           0       -0.907934   -1.443706    0.000061
      4          6           0        0.247831   -0.658974   -0.000016
      5          6           0        0.247464    0.752015   -0.000073
      6          6           0       -0.993449    1.468431   -0.000086
      7          7           0        1.590762   -1.063056    0.000099
      8          6           0        1.601780    1.162389    0.000196
      9          6           0        2.425090   -0.009815    0.000227
     10          1           0        1.888972   -2.028113    0.000043
     11          1           0        1.981758    2.176287    0.000288
     12          1           0        3.499424   -0.120116    0.000139
     13          1           0       -3.087431   -1.253627   -0.000037
     14          1           0       -0.891647   -2.528341    0.000029
     15          1           0       -3.146834    1.192116   -0.000134
     16          1           0       -1.020375    2.553020   -0.000072
 ---------------------------------------------------------------------
                    Distance matrix (angstroms):
                    1          2          3          4          5
     1  C    0.000000
     2  C    1.384216   0.000000
     3  C    2.483479   1.452203   0.000000
     4  C    2.779854   2.401876   1.396996   0.000000
     5  C    2.433119   2.804775   2.481157   1.410990   0.000000
     6  C    1.425066   2.457107   2.913392   2.463053   1.432871
     7  N    4.161159   3.762302   2.527525   1.402407   2.258081
     8  C    3.816349   4.190819   3.618065   2.269480   1.415124
     9  C    4.662137   4.630174   3.628374   2.271973   2.307041
    10  H    4.895300   4.256067   2.857309   2.137261   3.228570
    11  H    4.424897   5.035947   4.631919   3.323433   2.244175
    12  H    5.741126   5.682565   4.601815   3.295940   3.366876
    13  H    2.139746   1.086785   2.187769   3.387859   3.891546
    14  H    3.465074   2.223728   1.084757   2.189279   3.472508
    15  H    1.086883   2.134659   3.458357   3.866561   3.422711
    16  H    2.200018   3.442407   3.998307   3.453296   2.202507
                    6          7          8          9         10
     6  C    0.000000
     7  N    3.617537   0.000000
     8  C    2.613212   2.225472   0.000000
     9  C    3.724462   1.343659   1.432446   0.000000
    10  H    4.531465   1.010082   3.203402   2.088289   0.000000
    11  H    3.058254   3.262854   1.082761   2.230601   4.205424
    12  H    4.765437   2.128879   2.290387   1.079982   2.496800
    13  H    3.434292   4.682073   5.275020   5.651102   5.036309
    14  H    3.998068   2.882606   4.454062   4.164579   2.825256
    15  H    2.171040   5.246963   4.748707   5.700086   5.977392
    16  H    1.084924   4.460274   2.968089   4.294107   5.426885
                   11         12         13         14         15
    11  H    0.000000
    12  H    2.752594   0.000000
    13  H    6.120538   6.683675   0.000000
    14  H    5.512711   5.008099   2.538968   0.000000
    15  H    5.222169   6.774563   2.446465   4.350594   0.000000
    16  H    3.025679   5.251118   4.331661   5.082991   2.524656
                   16
    16  H    0.000000
 Stoichiometry    C8H7N
 Framework group  C1[X(C8H7N)]
 Deg. of freedom    42
 Full point group                 C1      NOp   1
 Largest Abelian subgroup         C1      NOp   1
 Largest concise Abelian subgroup C1      NOp   1
                         Standard orientation:                         
 ---------------------------------------------------------------------
 Center     Atomic      Atomic             Coordinates (Angstroms)
 Number     Number       Type             X           Y           Z
 ---------------------------------------------------------------------
      1          6           0       -2.197096    0.646939   -0.000129
      2          6           0       -2.142221   -0.736189   -0.000066
      3          6           0       -0.883747   -1.460852    0.000028
      4          6           0        0.258326   -0.656322   -0.000049
      5          6           0        0.233647    0.754452   -0.000106
      6          6           0       -1.019427    1.449379   -0.000118
      7          7           0        1.608020   -1.037204    0.000066
      8          6           0        1.580690    1.188100    0.000163
      9          6           0        2.424076    0.030257    0.000195
     10          1           0        1.922814   -1.996980    0.000010
     11          1           0        1.943142    2.208395    0.000255
     12          1           0        3.500151   -0.061517    0.000106
     13          1           0       -3.066195   -1.308355   -0.000069
     14          1           0       -0.848773   -2.545045   -0.000004
     15          1           0       -3.167731    1.136002   -0.000166
     16          1           0       -1.065037    2.533343   -0.000105
 ---------------------------------------------------------------------
 Rotational constants (GHZ):           3.8485373           1.6077956           1.1340330

 **********************************************************************

            Population analysis using the CI Density.

 **********************************************************************

 Orbital symmetries:
       Occupied  (A) (A) (A) (A) (A) (A) (A) (A) (A) (A) (A) (A)
                 (A) (A) (A) (A) (A) (A) (A) (A) (A) (A) (A) (A)
                 (A) (A) (A) (A) (A) (A) (A)
       Virtual   (A) (A) (A) (A) (A) (A) (A) (A) (A) (A) (A) (A)
                 (A) (A) (A) (A) (A) (A) (A) (A) (A) (A) (A) (A)
                 (A) (A) (A) (A) (A) (A) (A) (A) (A) (A) (A) (A)
                 (A) (A) (A) (A) (A) (A) (A) (A) (A) (A) (A) (A)
                 (A) (A) (A) (A) (A) (A) (A) (A) (A) (A) (A) (A)
                 (A) (A) (A) (A) (A) (A) (A) (A) (A) (A) (A) (A)
                 (A) (A) (A) (A) (A) (A) (A) (A) (A) (A) (A) (A)
                 (A) (A) (A) (A) (A) (A) (A) (A) (A) (A) (A) (A)
                 (A) (A) (A) (A) (A) (A) (A) (A) (A) (A) (A) (A)
                 (A) (A) (A) (A) (A) (A) (A) (A) (A) (A) (A) (A)
                 (A) (A) (A) (A) (A) (A) (A) (A) (A) (A) (A) (A)
                 (A) (A) (A) (A) (A) (A) (A) (A) (A) (A) (A) (A)
                 (A) (A) (A) (A) (A) (A) (A) (A) (A) (A)
 The electronic state is 1-A.
 Alpha  occ. eigenvalues --  -14.71341 -10.50106 -10.49418 -10.47082 -10.46446
 Alpha  occ. eigenvalues --  -10.46090 -10.45942 -10.45582 -10.44850  -1.09098
 Alpha  occ. eigenvalues --   -0.93065  -0.86623  -0.82760  -0.79146  -0.70209
 Alpha  occ. eigenvalues --   -0.66687  -0.64631  -0.60322  -0.54454  -0.53030
 Alpha  occ. eigenvalues --   -0.49236  -0.48628  -0.47763  -0.45538  -0.44421
 Alpha  occ. eigenvalues --   -0.39762  -0.39320  -0.37974  -0.31333  -0.26619
 Alpha  occ. eigenvalues --   -0.22601
 Alpha virt. eigenvalues --   -0.00821   0.00425   0.02477   0.03042   0.04203
 Alpha virt. eigenvalues --    0.04325   0.04545   0.06139   0.06659   0.07068
 Alpha virt. eigenvalues --    0.07153   0.07575   0.09660   0.09969   0.11169
 Alpha virt. eigenvalues --    0.11300   0.12349   0.13739   0.14646   0.15051
 Alpha virt. eigenvalues --    0.16254   0.16383   0.17577   0.17895   0.18774
 Alpha virt. eigenvalues --    0.19429   0.20095   0.20205   0.20973   0.21370
 Alpha virt. eigenvalues --    0.22229   0.22713   0.23234   0.23644   0.24840
 Alpha virt. eigenvalues --    0.24977   0.25261   0.25935   0.26678   0.27554
 Alpha virt. eigenvalues --    0.28506   0.28737   0.30073   0.31229   0.32011
 Alpha virt. eigenvalues --    0.33042   0.33884   0.35402   0.37239   0.38515
 Alpha virt. eigenvalues --    0.40108   0.42060   0.46239   0.48724   0.55118
 Alpha virt. eigenvalues --    0.61969   0.65401   0.71479   0.72618   0.74924
 Alpha virt. eigenvalues --    0.76765   0.77543   0.77880   0.78554   0.79071
 Alpha virt. eigenvalues --    0.80826   0.81854   0.82831   0.84465   0.84546
 Alpha virt. eigenvalues --    0.86181   0.90670   0.94854   0.95824   0.97055
 Alpha virt. eigenvalues --    1.00226   1.00968   1.01743   1.02113   1.04783
 Alpha virt. eigenvalues --    1.05761   1.08623   1.10631   1.12099   1.13716
 Alpha virt. eigenvalues --    1.16142   1.17543   1.21888   1.22333   1.25336
 Alpha virt. eigenvalues --    1.27226   1.27905   1.29494   1.36232   1.37017
 Alpha virt. eigenvalues --    1.39023   1.40752   1.44951   1.45320   1.49054
 Alpha virt. eigenvalues --    1.51687   1.51975   1.53774   1.54712   1.60000
 Alpha virt. eigenvalues --    1.63408   1.68347   1.83789   1.87131   1.93911
 Alpha virt. eigenvalues --    1.94872   1.96046   1.99366   2.05024   2.05581
 Alpha virt. eigenvalues --    2.05683   2.09100   2.12315   2.18136   2.21201
 Alpha virt. eigenvalues --    2.21920   2.25842   2.27414   2.29721   2.33222
 Alpha virt. eigenvalues --    2.33348   2.36745   2.42400   2.45597   2.51758
 Alpha virt. eigenvalues --    2.58606   2.61135   2.67953   2.70074   2.71393
 Alpha virt. eigenvalues --    2.73363   2.79596   2.86030   2.89832   2.91413
 Alpha virt. eigenvalues --    3.01236   3.04213   3.15201   3.30800   3.46991
 Alpha virt. eigenvalues --    4.25139   4.35014   4.38817   4.42138   4.46429
 Alpha virt. eigenvalues --    4.50898   4.58251   4.62395   4.87896
          Condensed to atoms (all electrons):
               1          2          3          4          5          6
     1  C    6.123819   0.045304   0.741445  -0.702270   0.142993  -0.676095
     2  C    0.045304   6.303013  -0.848772   0.464362  -0.643936   1.035205
     3  C    0.741445  -0.848772  12.981288  -0.569587  -4.161470  -3.278038
     4  C   -0.702270   0.464362  -0.569587  12.512759  -4.991435  -1.712597
     5  C    0.142993  -0.643936  -4.161470  -4.991435  15.503152   0.930620
     6  C   -0.676095   1.035205  -3.278038  -1.712597   0.930620  13.191979
     7  N   -0.035340   0.027907  -0.615147  -0.235255   0.978540   0.156270
     8  C    0.206519  -0.408323   2.880264   3.239965  -4.837388  -4.167061
     9  C   -0.114866   0.055735  -0.989968  -1.031875   1.626334   1.019190
    10  H   -0.002680  -0.003558  -0.124917  -0.039847   0.151092   0.016469
    11  H    0.003623   0.001676  -0.001695  -0.057453   0.077369   0.066588
    12  H    0.001596  -0.000669   0.035719   0.096678  -0.134643  -0.012546
    13  H    0.058821   0.241100   0.018001  -0.004625   0.023476  -0.020197
    14  H   -0.009203   0.078847   0.126776   0.139343  -0.018200  -0.000368
    15  H    0.248372   0.045824   0.016684  -0.022393   0.036365  -0.018685
    16  H    0.065508  -0.013576   0.004913  -0.006069   0.134182   0.111600
               7          8          9         10         11         12
     1  C   -0.035340   0.206519  -0.114866  -0.002680   0.003623   0.001596
     2  C    0.027907  -0.408323   0.055735  -0.003558   0.001676  -0.000669
     3  C   -0.615147   2.880264  -0.989968  -0.124917  -0.001695   0.035719
     4  C   -0.235255   3.239965  -1.031875  -0.039847  -0.057453   0.096678
     5  C    0.978540  -4.837388   1.626334   0.151092   0.077369  -0.134643
     6  C    0.156270  -4.167061   1.019190   0.016469   0.066588  -0.012546
     7  N    7.148192  -0.846369   0.632249   0.273885   0.006347  -0.046641
     8  C   -0.846369  11.033126  -1.485123  -0.021902   0.210507   0.129550
     9  C    0.632249  -1.485123   6.255675  -0.001263   0.010292   0.260665
    10  H    0.273885  -0.021902  -0.001263   0.282512  -0.000053  -0.001317
    11  H    0.006347   0.210507   0.010292  -0.000053   0.419741  -0.000145
    12  H   -0.046641   0.129550   0.260665  -0.001317  -0.000145   0.411408
    13  H   -0.000268   0.002552   0.000773  -0.000001  -0.000000  -0.000000
    14  H   -0.004769  -0.005428   0.008003   0.001643   0.000002   0.000001
    15  H    0.000297   0.013931  -0.000365  -0.000000  -0.000001  -0.000000
    16  H   -0.000758   0.016930   0.000823   0.000003   0.000999  -0.000000
              13         14         15         16
     1  C    0.058821  -0.009203   0.248372   0.065508
     2  C    0.241100   0.078847   0.045824  -0.013576
     3  C    0.018001   0.126776   0.016684   0.004913
     4  C   -0.004625   0.139343  -0.022393  -0.006069
     5  C    0.023476  -0.018200   0.036365   0.134182
     6  C   -0.020197  -0.000368  -0.018685   0.111600
     7  N   -0.000268  -0.004769   0.000297  -0.000758
     8  C    0.002552  -0.005428   0.013931   0.016930
     9  C    0.000773   0.008003  -0.000365   0.000823
    10  H   -0.000001   0.001643  -0.000000   0.000003
    11  H   -0.000000   0.000002  -0.000001   0.000999
    12  H   -0.000000   0.000001  -0.000000  -0.000000
    13  H    0.467184  -0.001962  -0.002859  -0.000105
    14  H   -0.001962   0.460084  -0.000099   0.000010
    15  H   -0.002859  -0.000099   0.468422  -0.001875
    16  H   -0.000105   0.000010  -0.001875   0.460283
 Mulliken charges:
               1
     1  C   -0.097547
     2  C   -0.380138
     3  C   -0.215496
     4  C   -1.079701
     5  C    1.182947
     6  C   -0.642335
     7  N   -0.439139
     8  C    0.038253
     9  C   -0.246278
    10  H    0.469936
    11  H    0.262204
    12  H    0.260345
    13  H    0.218112
    14  H    0.225319
    15  H    0.216385
    16  H    0.227133
 Sum of Mulliken charges =  -0.00000
 Mulliken charges with hydrogens summed into heavy atoms:
               1
     1  C    0.118838
     2  C   -0.162027
     3  C    0.009823
     4  C   -1.079701
     5  C    1.182947
     6  C   -0.415202
     7  N    0.030797
     8  C    0.300457
     9  C    0.014067
 Electronic spatial extent (au):  <R**2>=           1025.8723
 Charge=             -0.0000 electrons
 Dipole moment (field-independent basis, Debye):
    X=              4.1937    Y=             -1.2889    Z=             -0.0002  Tot=              4.3873
 Quadrupole moment (field-independent basis, Debye-Ang):
   XX=            -44.5731   YY=            -46.5999   ZZ=            -61.6632
   XY=             -2.2001   XZ=             -0.0002   YZ=              0.0008
 Traceless Quadrupole moment (field-independent basis, Debye-Ang):
   XX=              6.3723   YY=              4.3455   ZZ=            -10.7178
   XY=             -2.2001   XZ=             -0.0002   YZ=              0.0008
 Octapole moment (field-independent basis, Debye-Ang**2):
  XXX=             27.2862  YYY=             -9.1085  ZZZ=             -0.0014  XYY=             15.1798
  XXY=             -7.0182  XXZ=             -0.0013  XZZ=              4.8676  YZZ=             -1.3691
  YYZ=              0.0000  XYZ=              0.0009
 Hexadecapole moment (field-independent basis, Debye-Ang**3):
 XXXX=           -844.3657 YYYY=           -398.5412 ZZZZ=            -90.1124 XXXY=            -17.4096
 XXXZ=             -0.0269 YYYX=            -14.2906 YYYZ=              0.0056 ZZZX=             -0.0326
 ZZZY=              0.0047 XXYY=           -198.3167 XXZZ=           -205.4817 YYZZ=           -107.4453
 XXYZ=              0.0019 YYXZ=             -0.0066 ZZXY=             -1.5061
 N-N= 3.976012731936D+02 E-N=-1.636910052653D+03  KE= 3.605770130580D+02
 Unable to Open any file for archive entry.
 1\1\GINC-EXP-2-22\FOpt\RSOGGA11X TD-FC\6-31+G(d)\C8H7N1\SCAPARAS\16-Ju
 n-2021\0\\# td= (nstates=6, root=3) SOGGA11X/6-31+G* Opt density=curre
 nt\\FuncsSOGGA11X-V-3rd\\0,1\C,-2.1847699731,0.6864018995,-0.000095871
 1\C,-2.1537356952,-0.6974666336,-0.0000329395\C,-0.9079344868,-1.44370
 59571,0.0000606785\C,0.2478313485,-0.6589742423,-0.0000157549\C,0.2474
 644934,0.7520154389,-0.0000727619\C,-0.9934494271,1.4684307229,-0.0000
 856457\N,1.5907622433,-1.0630555071,0.000098985\C,1.6017797711,1.16238
 92355,0.0001958829\C,2.4250897509,-0.0098145137,0.0002274656\H,1.88897
 154,-2.0281133482,0.0000425699\H,1.9817578765,2.1762867513,0.000287836
 4\H,3.4994238592,-0.1201157549,0.0001390653\H,-3.0874310928,-1.2536274
 673,-0.0000366253\H,-0.8916474082,-2.5283409136,0.000029095\H,-3.14683
 43301,1.1921162176,-0.0001335803\H,-1.0203754695,2.553020072,-0.000072
 4001\\Version=AS64L-G16RevC.01\State=1-A\HF=-363.7186504\RMSD=6.695e-0
 9\RMSF=6.036e-05\Dipole=1.6499446,-0.5070736,-0.0000625\Quadrupole=4.7
 376616,3.2307705,-7.9684321,-1.6356977,-0.0001523,0.0005585\PG=C01 [X(
 C8H7N1)]\\@
 The archive entry for this job was punched.


 WHEN YOU REACH FOR THE STARS, YOU MAY NOT QUITE GET ONE,
 BUT YOU WON'T COME UP WITH A HANDFUL OF MUD, EITHER.

                                         -- LEO BURNETT (AD AGENCY HEAD)
 Job cpu time:       0 days  9 hours 10 minutes 26.1 seconds.
 Elapsed time:       0 days  2 hours 36 minutes  7.6 seconds.
 File lengths (MBytes):  RWF=    239 Int=      0 D2E=      0 Chk=     11 Scr=      1
 Normal termination of Gaussian 16 at Wed Jun 16 09:51:15 2021.
