 Entering Gaussian System, Link 0=/cm/shared/apps/spack/cpu/opt/spack/linux-centos8-zen/gcc-8.3.1/gaussian-16.C.01-po5bqktfeugvmjyga3v7eigbecnokxng/g16/g16
 Initial command:
 /cm/shared/apps/spack/cpu/opt/spack/linux-centos8-zen/gcc-8.3.1/gaussian-16.C.01-po5bqktfeugvmjyga3v7eigbecnokxng/g16/l1.exe "/scratch/scaparas/job_3447289/Gau-74618.inp" -scrdir="/scratch/scaparas/job_3447289/"
 Entering Link 1 = /cm/shared/apps/spack/cpu/opt/spack/linux-centos8-zen/gcc-8.3.1/gaussian-16.C.01-po5bqktfeugvmjyga3v7eigbecnokxng/g16/l1.exe PID=     74619.
  
 Copyright (c) 1988-2019, Gaussian, Inc.  All Rights Reserved.
  
 This is part of the Gaussian(R) 16 program.  It is based on
 the Gaussian(R) 09 system (copyright 2009, Gaussian, Inc.),
 the Gaussian(R) 03 system (copyright 2003, Gaussian, Inc.),
 the Gaussian(R) 98 system (copyright 1998, Gaussian, Inc.),
 the Gaussian(R) 94 system (copyright 1995, Gaussian, Inc.),
 the Gaussian 92(TM) system (copyright 1992, Gaussian, Inc.),
 the Gaussian 90(TM) system (copyright 1990, Gaussian, Inc.),
 the Gaussian 88(TM) system (copyright 1988, Gaussian, Inc.),
 the Gaussian 86(TM) system (copyright 1986, Carnegie Mellon
 University), and the Gaussian 82(TM) system (copyright 1983,
 Carnegie Mellon University). Gaussian is a federally registered
 trademark of Gaussian, Inc.
  
 This software contains proprietary and confidential information,
 including trade secrets, belonging to Gaussian, Inc.
  
 This software is provided under written license and may be
 used, copied, transmitted, or stored only in accord with that
 written license.
  
 The following legend is applicable only to US Government
 contracts under FAR:
  
                    RESTRICTED RIGHTS LEGEND
  
 Use, reproduction and disclosure by the US Government is
 subject to restrictions as set forth in subparagraphs (a)
 and (c) of the Commercial Computer Software - Restricted
 Rights clause in FAR 52.227-19.
  
 Gaussian, Inc.
 340 Quinnipiac St., Bldg. 40, Wallingford CT 06492
  
  
 ---------------------------------------------------------------
 Warning -- This program may not be used in any manner that
 competes with the business of Gaussian, Inc. or will provide
 assistance to any competitor of Gaussian, Inc.  The licensee
 of this program is prohibited from giving any competitor of
 Gaussian, Inc. access to this program.  By using this program,
 the user acknowledges that Gaussian, Inc. is engaged in the
 business of creating and licensing software in the field of
 computational chemistry and represents and warrants to the
 licensee that it is not a competitor of Gaussian, Inc. and that
 it will not use this program in any manner prohibited above.
 ---------------------------------------------------------------
  

 Cite this work as:
 Gaussian 16, Revision C.01,
 M. J. Frisch, G. W. Trucks, H. B. Schlegel, G. E. Scuseria, 
 M. A. Robb, J. R. Cheeseman, G. Scalmani, V. Barone, 
 G. A. Petersson, H. Nakatsuji, X. Li, M. Caricato, A. V. Marenich, 
 J. Bloino, B. G. Janesko, R. Gomperts, B. Mennucci, H. P. Hratchian, 
 J. V. Ortiz, A. F. Izmaylov, J. L. Sonnenberg, D. Williams-Young, 
 F. Ding, F. Lipparini, F. Egidi, J. Goings, B. Peng, A. Petrone, 
 T. Henderson, D. Ranasinghe, V. G. Zakrzewski, J. Gao, N. Rega, 
 G. Zheng, W. Liang, M. Hada, M. Ehara, K. Toyota, R. Fukuda, 
 J. Hasegawa, M. Ishida, T. Nakajima, Y. Honda, O. Kitao, H. Nakai, 
 T. Vreven, K. Throssell, J. A. Montgomery, Jr., J. E. Peralta, 
 F. Ogliaro, M. J. Bearpark, J. J. Heyd, E. N. Brothers, K. N. Kudin, 
 V. N. Staroverov, T. A. Keith, R. Kobayashi, J. Normand, 
 K. Raghavachari, A. P. Rendell, J. C. Burant, S. S. Iyengar, 
 J. Tomasi, M. Cossi, J. M. Millam, M. Klene, C. Adamo, R. Cammi, 
 J. W. Ochterski, R. L. Martin, K. Morokuma, O. Farkas, 
 J. B. Foresman, and D. J. Fox, Gaussian, Inc., Wallingford CT, 2019.
 
 ******************************************
 Gaussian 16:  AS64L-G16RevC.01  3-Jul-2019
                16-Jun-2021 
 ******************************************
 %nprocshared=4
 Will use up to    4 processors via shared memory.
 %chk=FuncsSOGGA11X-V-1st.chk
 %Mem=3GB
 --------------------------------------------------------------
 # td= (nstates=6, root=1) SOGGA11X/6-31+G* Opt density=current
 --------------------------------------------------------------
 1/18=20,19=15,26=3,38=1/1,3;
 2/9=110,12=2,17=6,18=5,40=1/2;
 3/5=1,6=6,7=11,11=9,25=1,30=1,71=1,74=-65/1,2,3,8;
 4//1;
 5/5=2,38=5/2;
 8/6=1,10=2,107=1,108=6/1;
 9/8=1,15=2,41=6,42=1,70=2/14;
 10/5=4,28=1/2;
 6/7=2,8=2,9=2,10=2,22=-1/1;
 7/12=6,13=5,14=1/1,2,3,16;
 1/18=20,19=15,26=3/3(2);
 2/9=110/2;
 99//99;
 2/9=110/2;
 3/5=1,6=6,7=11,11=9,25=1,30=1,71=1,74=-65/1,2,3,8;
 4/5=5,16=3,69=1/1;
 5/5=2,38=5/2;
 8/6=1,10=2,107=1,108=6/1;
 9/8=1,15=2,41=6,42=1,49=4,70=2/14;
 10/5=4,28=1/2;
 7/12=6,13=5,14=1/1,2,3,16;
 1/18=20,19=15,26=3/3(-8);
 2/9=110/2;
 6/7=2,8=2,9=2,10=2,22=-1/1;
 99/9=10/99;
 -------------------
 FuncsSOGGA11X-V-1st
 -------------------
 Symbolic Z-matrix:
 Charge =  0 Multiplicity = 1
 C                    -2.15106   0.68921   0.00009 
 C                    -2.12793  -0.71582   0.00008 
 C                    -0.9323   -1.4131   -0.00001 
 C                     0.24691  -0.6702   -0.00004 
 C                     0.24819   0.7483    0. 
 C                    -0.97947   1.42353   0.00003 
 N                     1.56177  -1.07759  -0.00029 
 C                     1.62013   1.1629   -0.00016 
 C                     2.38201   0.03081   0.00025 
 H                     1.87632  -2.03001   0.00044 
 H                     1.99217   2.17301  -0.00035 
 H                     3.45255  -0.08243   0.00041 
 H                    -3.06159  -1.26202   0.00009 
 H                    -0.91725  -2.49534  -0.00007 
 H                    -3.1042    1.20079   0.00009 
 H                    -1.00935   2.50542  -0.00002 
 

 GradGradGradGradGradGradGradGradGradGradGradGradGradGradGradGradGradGrad
 Berny optimization.
 Initialization pass.
                           ----------------------------
                           !    Initial Parameters    !
                           ! (Angstroms and Degrees)  !
 --------------------------                            --------------------------
 ! Name  Definition              Value          Derivative Info.                !
 --------------------------------------------------------------------------------
 ! R1    R(1,2)                  1.4052         estimate D2E/DX2                !
 ! R2    R(1,6)                  1.3827         estimate D2E/DX2                !
 ! R3    R(1,15)                 1.0818         estimate D2E/DX2                !
 ! R4    R(2,3)                  1.3841         estimate D2E/DX2                !
 ! R5    R(2,13)                 1.0817         estimate D2E/DX2                !
 ! R6    R(3,4)                  1.3937         estimate D2E/DX2                !
 ! R7    R(3,14)                 1.0823         estimate D2E/DX2                !
 ! R8    R(4,5)                  1.4185         estimate D2E/DX2                !
 ! R9    R(4,7)                  1.3765         estimate D2E/DX2                !
 ! R10   R(5,6)                  1.4011         estimate D2E/DX2                !
 ! R11   R(5,8)                  1.4332         estimate D2E/DX2                !
 ! R12   R(6,16)                 1.0823         estimate D2E/DX2                !
 ! R13   R(7,9)                  1.3789         estimate D2E/DX2                !
 ! R14   R(7,10)                 1.003          estimate D2E/DX2                !
 ! R15   R(8,9)                  1.3646         estimate D2E/DX2                !
 ! R16   R(8,11)                 1.0764         estimate D2E/DX2                !
 ! R17   R(9,12)                 1.0765         estimate D2E/DX2                !
 ! A1    A(2,1,6)              121.1349         estimate D2E/DX2                !
 ! A2    A(2,1,15)             119.1671         estimate D2E/DX2                !
 ! A3    A(6,1,15)             119.698          estimate D2E/DX2                !
 ! A4    A(1,2,3)              121.1938         estimate D2E/DX2                !
 ! A5    A(1,2,13)             119.3846         estimate D2E/DX2                !
 ! A6    A(3,2,13)             119.4217         estimate D2E/DX2                !
 ! A7    A(2,3,4)              117.5387         estimate D2E/DX2                !
 ! A8    A(2,3,14)             121.0469         estimate D2E/DX2                !
 ! A9    A(4,3,14)             121.4144         estimate D2E/DX2                !
 ! A10   A(3,4,5)              122.2626         estimate D2E/DX2                !
 ! A11   A(3,4,7)              130.5743         estimate D2E/DX2                !
 ! A12   A(5,4,7)              107.163          estimate D2E/DX2                !
 ! A13   A(4,5,6)              118.7594         estimate D2E/DX2                !
 ! A14   A(4,5,8)              106.8666         estimate D2E/DX2                !
 ! A15   A(6,5,8)              134.374          estimate D2E/DX2                !
 ! A16   A(1,6,5)              119.1105         estimate D2E/DX2                !
 ! A17   A(1,6,16)             120.4966         estimate D2E/DX2                !
 ! A18   A(5,6,16)             120.3928         estimate D2E/DX2                !
 ! A19   A(4,7,9)              109.2874         estimate D2E/DX2                !
 ! A20   A(4,7,10)             125.4909         estimate D2E/DX2                !
 ! A21   A(9,7,10)             125.2217         estimate D2E/DX2                !
 ! A22   A(5,8,9)              107.125          estimate D2E/DX2                !
 ! A23   A(5,8,11)             127.0344         estimate D2E/DX2                !
 ! A24   A(9,8,11)             125.8405         estimate D2E/DX2                !
 ! A25   A(7,9,8)              109.5578         estimate D2E/DX2                !
 ! A26   A(7,9,12)             120.4645         estimate D2E/DX2                !
 ! A27   A(8,9,12)             129.9776         estimate D2E/DX2                !
 ! D1    D(6,1,2,3)             -0.0008         estimate D2E/DX2                !
 ! D2    D(6,1,2,13)          -179.9981         estimate D2E/DX2                !
 ! D3    D(15,1,2,3)           179.996          estimate D2E/DX2                !
 ! D4    D(15,1,2,13)           -0.0013         estimate D2E/DX2                !
 ! D5    D(2,1,6,5)             -0.0018         estimate D2E/DX2                !
 ! D6    D(2,1,6,16)           179.9965         estimate D2E/DX2                !
 ! D7    D(15,1,6,5)          -179.9986         estimate D2E/DX2                !
 ! D8    D(15,1,6,16)           -0.0003         estimate D2E/DX2                !
 ! D9    D(1,2,3,4)              0.002          estimate D2E/DX2                !
 ! D10   D(1,2,3,14)          -179.9968         estimate D2E/DX2                !
 ! D11   D(13,2,3,4)           179.9992         estimate D2E/DX2                !
 ! D12   D(13,2,3,14)            0.0005         estimate D2E/DX2                !
 ! D13   D(2,3,4,5)             -0.0005         estimate D2E/DX2                !
 ! D14   D(2,3,4,7)           -179.9911         estimate D2E/DX2                !
 ! D15   D(14,3,4,5)           179.9982         estimate D2E/DX2                !
 ! D16   D(14,3,4,7)             0.0076         estimate D2E/DX2                !
 ! D17   D(3,4,5,6)             -0.002          estimate D2E/DX2                !
 ! D18   D(3,4,5,8)           -179.9955         estimate D2E/DX2                !
 ! D19   D(7,4,5,6)            179.9905         estimate D2E/DX2                !
 ! D20   D(7,4,5,8)             -0.003          estimate D2E/DX2                !
 ! D21   D(3,4,7,9)           -179.98           estimate D2E/DX2                !
 ! D22   D(3,4,7,10)            -0.0649         estimate D2E/DX2                !
 ! D23   D(5,4,7,9)              0.0284         estimate D2E/DX2                !
 ! D24   D(5,4,7,10)           179.9434         estimate D2E/DX2                !
 ! D25   D(4,5,6,1)              0.0031         estimate D2E/DX2                !
 ! D26   D(4,5,6,16)          -179.9951         estimate D2E/DX2                !
 ! D27   D(8,5,6,1)            179.9944         estimate D2E/DX2                !
 ! D28   D(8,5,6,16)            -0.0038         estimate D2E/DX2                !
 ! D29   D(4,5,8,9)             -0.0234         estimate D2E/DX2                !
 ! D30   D(4,5,8,11)           179.9883         estimate D2E/DX2                !
 ! D31   D(6,5,8,9)            179.9846         estimate D2E/DX2                !
 ! D32   D(6,5,8,11)            -0.0037         estimate D2E/DX2                !
 ! D33   D(4,7,9,8)             -0.0444         estimate D2E/DX2                !
 ! D34   D(4,7,9,12)           179.9847         estimate D2E/DX2                !
 ! D35   D(10,7,9,8)          -179.9597         estimate D2E/DX2                !
 ! D36   D(10,7,9,12)            0.0693         estimate D2E/DX2                !
 ! D37   D(5,8,9,7)              0.0414         estimate D2E/DX2                !
 ! D38   D(5,8,9,12)          -179.9913         estimate D2E/DX2                !
 ! D39   D(11,8,9,7)          -179.9702         estimate D2E/DX2                !
 ! D40   D(11,8,9,12)           -0.0029         estimate D2E/DX2                !
 --------------------------------------------------------------------------------
 Trust Radius=3.00D-01 FncErr=1.00D-07 GrdErr=1.00D-06 EigMax=2.50D+02 EigMin=1.00D-04
 Number of steps in this run=     94 maximum allowed number of steps=    100.
 GradGradGradGradGradGradGradGradGradGradGradGradGradGradGradGradGradGrad

                          Input orientation:                          
 ---------------------------------------------------------------------
 Center     Atomic      Atomic             Coordinates (Angstroms)
 Number     Number       Type             X           Y           Z
 ---------------------------------------------------------------------
      1          6           0       -2.151063    0.689208    0.000088
      2          6           0       -2.127927   -0.715818    0.000075
      3          6           0       -0.932297   -1.413100   -0.000011
      4          6           0        0.246911   -0.670201   -0.000042
      5          6           0        0.248193    0.748299    0.000000
      6          6           0       -0.979474    1.423526    0.000032
      7          7           0        1.561774   -1.077592   -0.000285
      8          6           0        1.620133    1.162900   -0.000157
      9          6           0        2.382013    0.030806    0.000248
     10          1           0        1.876315   -2.030011    0.000438
     11          1           0        1.992173    2.173010   -0.000348
     12          1           0        3.452549   -0.082425    0.000408
     13          1           0       -3.061594   -1.262020    0.000088
     14          1           0       -0.917252   -2.495342   -0.000073
     15          1           0       -3.104203    1.200785    0.000090
     16          1           0       -1.009348    2.505421   -0.000015
 ---------------------------------------------------------------------
                    Distance matrix (angstroms):
                    1          2          3          4          5
     1  C    0.000000
     2  C    1.405216   0.000000
     3  C    2.430039   1.384100   0.000000
     4  C    2.756496   2.375276   1.393711   0.000000
     5  C    2.399984   2.790983   2.462763   1.418501   0.000000
     6  C    1.382694   2.428114   2.837018   2.426461   1.401106
     7  N    4.111781   3.707395   2.516536   1.376529   2.249305
     8  C    3.800829   4.192557   3.626386   2.290414   1.433218
     9  C    4.580641   4.571324   3.615178   2.247236   2.251218
    10  H    4.859416   4.214387   2.875566   2.122273   3.220216
    11  H    4.400917   5.031953   4.627387   3.336134   2.251948
    12  H    5.656491   5.616307   4.582311   3.259079   3.310287
    13  H    2.153220   1.081698   2.134650   3.361020   3.872476
    14  H    3.415208   2.152310   1.082347   2.164813   3.446661
    15  H    1.081752   2.150926   3.398466   3.838040   3.382795
    16  H    2.145261   3.409927   3.919278   3.415079   2.160761
                    6          7          8          9         10
     6  C    0.000000
     7  N    3.565604   0.000000
     8  C    2.612639   2.241252   0.000000
     9  C    3.638580   1.378890   1.364587   0.000000
    10  H    4.481345   1.003015   3.203172   2.121956   0.000000
    11  H    3.064704   3.278972   1.076446   2.177387   4.204618
    12  H    4.680888   2.136677   2.215532   1.076508   2.505515
    13  H    3.398144   4.627045   5.272457   5.595021   4.997275
    14  H    3.919362   2.855798   4.452085   4.155307   2.832058
    15  H    2.136372   5.192528   4.724488   5.609583   5.936632
    16  H    1.082307   4.410062   2.952378   4.198220   5.375611
                   11         12         13         14         15
    11  H    0.000000
    12  H    2.686947   0.000000
    13  H    6.110646   6.620083   0.000000
    14  H    5.500751   4.991726   2.473719   0.000000
    15  H    5.188282   6.681139   2.463174   4.294661   0.000000
    16  H    3.019872   5.158049   4.290143   5.001611   2.467892
                   16
    16  H    0.000000
 Stoichiometry    C8H7N
 Framework group  C1[X(C8H7N)]
 Deg. of freedom    42
 Full point group                 C1      NOp   1
 Largest Abelian subgroup         C1      NOp   1
 Largest concise Abelian subgroup C1      NOp   1
                         Standard orientation:                         
 ---------------------------------------------------------------------
 Center     Atomic      Atomic             Coordinates (Angstroms)
 Number     Number       Type             X           Y           Z
 ---------------------------------------------------------------------
      1          6           0       -2.151063    0.689208    0.000088
      2          6           0       -2.127927   -0.715818    0.000075
      3          6           0       -0.932297   -1.413100   -0.000011
      4          6           0        0.246911   -0.670201   -0.000042
      5          6           0        0.248193    0.748299    0.000000
      6          6           0       -0.979474    1.423526    0.000032
      7          7           0        1.561774   -1.077592   -0.000285
      8          6           0        1.620133    1.162900   -0.000157
      9          6           0        2.382013    0.030806    0.000248
     10          1           0        1.876315   -2.030011    0.000438
     11          1           0        1.992173    2.173010   -0.000348
     12          1           0        3.452549   -0.082425    0.000408
     13          1           0       -3.061594   -1.262020    0.000088
     14          1           0       -0.917252   -2.495342   -0.000073
     15          1           0       -3.104203    1.200785    0.000090
     16          1           0       -1.009348    2.505421   -0.000015
 ---------------------------------------------------------------------
 Rotational constants (GHZ):           3.9080822           1.6429452           1.1566805
 Standard basis: 6-31+G(d) (6D, 7F)
 There are   185 symmetry adapted cartesian basis functions of A   symmetry.
 There are   185 symmetry adapted basis functions of A   symmetry.
   185 basis functions,   316 primitive gaussians,   185 cartesian basis functions
    31 alpha electrons       31 beta electrons
       nuclear repulsion energy       401.3368668897 Hartrees.
 NAtoms=   16 NActive=   16 NUniq=   16 SFac= 1.00D+00 NAtFMM=   60 NAOKFM=F Big=F
 Integral buffers will be    131072 words long.
 Regular integral format.
 Two-electron integral symmetry is turned on.
 One-electron integrals computed using PRISM.
 NBasis=   185 RedAO= T EigKep=  1.26D-06  NBF=   185
 NBsUse=   185 1.00D-06 EigRej= -1.00D+00 NBFU=   185
 ExpMin= 4.38D-02 ExpMax= 4.17D+03 ExpMxC= 6.27D+02 IAcc=3 IRadAn=         5 AccDes= 0.00D+00
 Harris functional with IExCor= 5143 and IRadAn=       5 diagonalized for initial guess.
 HarFok:  IExCor= 5143 AccDes= 0.00D+00 IRadAn=         5 IDoV= 1 UseB2=F ITyADJ=14
 ICtDFT=  3500011 ScaDFX=  1.000000  1.000000  1.000000  1.000000
 FoFCou: FMM=F IPFlag=           0 FMFlag=      100000 FMFlg1=           0
         NFxFlg=           0 DoJE=T BraDBF=F KetDBF=T FulRan=T
         wScrn=  0.000000 ICntrl=       500 IOpCl=  0 I1Cent=   200000004 NGrid=           0
         NMat0=    1 NMatS0=      1 NMatT0=    0 NMatD0=    1 NMtDS0=    0 NMtDT0=    0
 Petite list used in FoFCou.
 Keep R1 ints in memory in canonical form, NReq=152071459.
 Requested convergence on RMS density matrix=1.00D-08 within 128 cycles.
 Requested convergence on MAX density matrix=1.00D-06.
 Requested convergence on             energy=1.00D-06.
 No special actions if energy rises.
 SCF Done:  E(RSOGGA11X) =  -363.729258520     A.U. after   15 cycles
            NFock= 15  Conv=0.99D-08     -V/T= 2.0078
 DoSCS=F DFT=T ScalE2(SS,OS)=  1.000000  1.000000
 ExpMin= 4.38D-02 ExpMax= 4.17D+03 ExpMxC= 6.27D+02 IAcc=3 IRadAn=         5 AccDes= 0.00D+00
 HarFok:  IExCor=  205 AccDes= 0.00D+00 IRadAn=         5 IDoV=-2 UseB2=F ITyADJ=14
 ICtDFT= 12500011 ScaDFX=  1.000000  1.000000  1.000000  1.000000
 Range of M.O.s used for correlation:    10   185
 NBasis=   185 NAE=    31 NBE=    31 NFC=     9 NFV=     0
 NROrb=    176 NOA=    22 NOB=    22 NVA=   154 NVB=   154

 **** Warning!!: The largest alpha MO coefficient is  0.17764810D+03

 Orbital symmetries:
       Occupied  (A) (A) (A) (A) (A) (A) (A) (A) (A) (A) (A) (A)
                 (A) (A) (A) (A) (A) (A) (A) (A) (A) (A) (A) (A)
                 (A) (A) (A) (A) (A) (A) (A)
       Virtual   (A) (A) (A) (A) (A) (A) (A) (A) (A) (A) (A) (A)
                 (A) (A) (A) (A) (A) (A) (A) (A) (A) (A) (A) (A)
                 (A) (A) (A) (A) (A) (A) (A) (A) (A) (A) (A) (A)
                 (A) (A) (A) (A) (A) (A) (A) (A) (A) (A) (A) (A)
                 (A) (A) (A) (A) (A) (A) (A) (A) (A) (A) (A) (A)
                 (A) (A) (A) (A) (A) (A) (A) (A) (A) (A) (A) (A)
                 (A) (A) (A) (A) (A) (A) (A) (A) (A) (A) (A) (A)
                 (A) (A) (A) (A) (A) (A) (A) (A) (A) (A) (A) (A)
                 (A) (A) (A) (A) (A) (A) (A) (A) (A) (A) (A) (A)
                 (A) (A) (A) (A) (A) (A) (A) (A) (A) (A) (A) (A)
                 (A) (A) (A) (A) (A) (A) (A) (A) (A) (A) (A) (A)
                 (A) (A) (A) (A) (A) (A) (A) (A) (A) (A) (A) (A)
                 (A) (A) (A) (A) (A) (A) (A) (A) (A) (A)
    24 initial guesses have been made.
 Convergence on wavefunction:    0.000001000000000
 Iteration     1 Dimension    24 NMult     0 NNew     24
 CISAX will form    24 AO SS matrices at one time.
 New state      1 was old state      2
 New state      2 was old state      3
 New state      3 was old state      1
 Iteration     2 Dimension    36 NMult    24 NNew     12
 New state      1 was old state      3
 New state      2 was old state      1
 New state      3 was old state      2
 Iteration     3 Dimension    48 NMult    36 NNew     12
 Iteration     4 Dimension    60 NMult    48 NNew     12
 Iteration     5 Dimension    72 NMult    60 NNew     12
 Iteration     6 Dimension    84 NMult    72 NNew     12
 Iteration     7 Dimension    96 NMult    84 NNew     12
 Iteration     8 Dimension   108 NMult    96 NNew     12
 Iteration     9 Dimension   118 NMult   108 NNew     10
 Iteration    10 Dimension   122 NMult   118 NNew      4
 ***********************************************************************
 Excited states from <AA,BB:AA,BB> singles matrix:
 ***********************************************************************
 
 Ground to excited state transition densities written to RWF  633
 Ground to excited state transition electric dipole moments (Au):
       state          X           Y           Z        Dip. S.      Osc.
         1        -0.6197      0.6650     -0.0005      0.8263      0.1028
         2        -0.0059     -0.0033     -0.1356      0.0184      0.0023
         3        -0.6422     -0.1115      0.0015      0.4248      0.0537
         4        -0.0003      0.0001     -0.1385      0.0192      0.0026
         5         0.0003     -0.0000     -0.0229      0.0005      0.0001
         6         0.0006      0.0001      0.1102      0.0121      0.0017
 Ground to excited state transition velocity dipole moments (Au):
       state          X           Y           Z        Dip. S.      Osc.
         1         0.1065     -0.1338      0.0001      0.0292      0.1045
         2         0.0011      0.0007      0.0167      0.0003      0.0010
         3         0.1155      0.0220     -0.0002      0.0138      0.0486
         4         0.0001     -0.0000      0.0305      0.0009      0.0030
         5        -0.0001      0.0000      0.0051      0.0000      0.0001
         6        -0.0001     -0.0000     -0.0225      0.0005      0.0016
 Ground to excited state transition magnetic dipole moments (Au):
       state          X           Y           Z
         1         0.0006     -0.0003      0.1759
         2         0.1355     -0.0860     -0.0012
         3        -0.0017      0.0008     -0.0686
         4         0.0496     -0.2661     -0.0000
         5         0.2482     -0.2396      0.0001
         6         0.2239      0.2768      0.0006
 Ground to excited state transition velocity quadrupole moments (Au):
       state          XX          YY          ZZ          XY          XZ          YZ
         1         0.2387     -0.1310      0.0180      0.0379      0.0003      0.0002
         2         0.0003     -0.0012      0.0004     -0.0003      0.0714      0.0564
         3         0.0868     -0.1279      0.0277     -0.0150     -0.0007     -0.0007
         4        -0.0000      0.0000     -0.0000     -0.0000      0.1901     -0.0046
         5        -0.0002      0.0000      0.0000      0.0001      0.2752      0.2505
         6         0.0001     -0.0001      0.0001      0.0003     -0.2284      0.1130
 <0|del|b> * <b|rxdel|0> + <0|del|b> * <b|delr+rdel|0>
 Rotatory Strengths (R) in cgs (10**-40 erg-esu-cm/Gauss)
       state          XX          YY          ZZ    R(velocity)    E-M Angle
         1         0.1576      0.1766      0.0778      0.1373       89.79
         2        -0.2426      0.3553      0.1400      0.0842       90.00
         3         0.0920     -0.5047     -0.2077     -0.2068       91.18
         4         0.0192      0.0047      0.0101      0.0113       90.00
         5         0.0003     -0.0494      0.0003     -0.0163       90.00
         6        -0.0446     -0.0691     -0.0210     -0.0449       90.00
 1/2[<0|r|b>*<b|rxdel|0> + (<0|rxdel|b>*<b|r|0>)*]
 Rotatory Strengths (R) in cgs (10**-40 erg-esu-cm/Gauss)
       state          XX          YY          ZZ     R(length)
         1         0.2621      0.1225      0.0572      0.1473
         2         0.5618     -0.2013     -0.1152      0.0818
         3        -0.7726      0.0636      0.0744     -0.2116
         4         0.0110      0.0205     -0.0019      0.0099
         5        -0.0487     -0.0058      0.0011     -0.0178
         6        -0.0875     -0.0283     -0.0430     -0.0529
  1/2[<0|del|b>*<b|r|0> + (<0|r|b>*<b|del|0>)*] (Au)
       state          X           Y           Z        Dip. S.   Osc.(frdel)
         1        -0.0660     -0.0890     -0.0000      0.1550      0.1033
         2        -0.0000     -0.0000     -0.0023      0.0023      0.0015
         3        -0.0742     -0.0025     -0.0000      0.0766      0.0511
         4        -0.0000     -0.0000     -0.0042      0.0042      0.0028
         5        -0.0000     -0.0000     -0.0001      0.0001      0.0001
         6        -0.0000     -0.0000     -0.0025      0.0025      0.0017

 Excitation energies and oscillator strengths:
 
 Excited State   1:      Singlet-A      5.0758 eV  244.26 nm  f=0.1028  <S**2>=0.000
      30 -> 32        -0.15832
      30 -> 36         0.18041
      31 -> 32         0.65644
 This state for optimization and/or second-order correction.
 Total Energy, E(TD-HF/TD-DFT) =  -363.542725968    
 Copying the excited state density for this state as the 1-particle RhoCI density.
 
 Excited State   2:      Singlet-A      5.1542 eV  240.55 nm  f=0.0023  <S**2>=0.000
      31 -> 33         0.69699
 
 Excited State   3:      Singlet-A      5.1604 eV  240.26 nm  f=0.0537  <S**2>=0.000
      30 -> 32         0.57001
      31 -> 32         0.15017
      31 -> 36        -0.36783
 
 Excited State   4:      Singlet-A      5.6352 eV  220.02 nm  f=0.0026  <S**2>=0.000
      30 -> 33         0.67472
      31 -> 34         0.15341
 
 Excited State   5:      Singlet-A      5.7994 eV  213.79 nm  f=0.0001  <S**2>=0.000
      30 -> 33        -0.15756
      31 -> 34         0.66675
      31 -> 35        -0.11454
 
 Excited State   6:      Singlet-A      5.8828 eV  210.76 nm  f=0.0017  <S**2>=0.000
      31 -> 34         0.11687
      31 -> 35         0.67603
 SavETr:  write IOETrn=   770 NScale= 10 NData=  16 NLR=1 NState=    6 LETran=     118.
          IDoAtm=1111111111111111
          Differentiating once with respect to electric field.
                with respect to dipole field.
          Differentiating once with respect to nuclear coordinates.
 Keep R1 ints in memory in canonical form, NReq=152083851.
          There are     1 degrees of freedom in the 1st order CPHF.  IDoFFX=0 NUNeed=     1.
 LinEq1:  Iter=  0 NonCon=     1 RMS=7.07D-03 Max=1.71D-01 NDo=     1
 AX will form     1 AO Fock derivatives at one time.
 LinEq1:  Iter=  1 NonCon=     1 RMS=2.74D-03 Max=4.93D-02 NDo=     1
 LinEq1:  Iter=  2 NonCon=     1 RMS=1.65D-03 Max=4.83D-02 NDo=     1
 LinEq1:  Iter=  3 NonCon=     1 RMS=6.92D-04 Max=1.31D-02 NDo=     1
 LinEq1:  Iter=  4 NonCon=     1 RMS=3.45D-04 Max=1.24D-02 NDo=     1
 LinEq1:  Iter=  5 NonCon=     1 RMS=1.85D-04 Max=6.32D-03 NDo=     1
 LinEq1:  Iter=  6 NonCon=     1 RMS=1.06D-04 Max=2.70D-03 NDo=     1
 LinEq1:  Iter=  7 NonCon=     1 RMS=4.48D-05 Max=1.05D-03 NDo=     1
 LinEq1:  Iter=  8 NonCon=     1 RMS=2.56D-05 Max=5.68D-04 NDo=     1
 LinEq1:  Iter=  9 NonCon=     1 RMS=1.12D-05 Max=1.80D-04 NDo=     1
 LinEq1:  Iter= 10 NonCon=     1 RMS=5.32D-06 Max=1.26D-04 NDo=     1
 LinEq1:  Iter= 11 NonCon=     1 RMS=1.86D-06 Max=2.36D-05 NDo=     1
 LinEq1:  Iter= 12 NonCon=     1 RMS=7.65D-07 Max=1.37D-05 NDo=     1
 LinEq1:  Iter= 13 NonCon=     1 RMS=3.61D-07 Max=7.46D-06 NDo=     1
 LinEq1:  Iter= 14 NonCon=     1 RMS=9.84D-08 Max=1.83D-06 NDo=     1
 LinEq1:  Iter= 15 NonCon=     1 RMS=5.74D-08 Max=1.90D-06 NDo=     1
 LinEq1:  Iter= 16 NonCon=     1 RMS=1.44D-08 Max=2.75D-07 NDo=     1
 LinEq1:  Iter= 17 NonCon=     1 RMS=3.07D-09 Max=3.36D-08 NDo=     1
 LinEq1:  Iter= 18 NonCon=     1 RMS=1.76D-09 Max=4.40D-08 NDo=     1
 LinEq1:  Iter= 19 NonCon=     1 RMS=5.73D-10 Max=7.07D-09 NDo=     1
 LinEq1:  Iter= 20 NonCon=     1 RMS=1.02D-10 Max=1.30D-09 NDo=     1
 LinEq1:  Iter= 21 NonCon=     0 RMS=2.20D-11 Max=2.08D-10 NDo=     1
 Linear equations converged to 1.000D-10 1.000D-09 after    21 iterations.
 End of Minotr F.D. properties file   721 does not exist.
 End of Minotr F.D. properties file   722 does not exist.
 End of Minotr F.D. properties file   788 does not exist.

 **********************************************************************

            Population analysis using the CI Density.

 **********************************************************************

 Orbital symmetries:
       Occupied  (A) (A) (A) (A) (A) (A) (A) (A) (A) (A) (A) (A)
                 (A) (A) (A) (A) (A) (A) (A) (A) (A) (A) (A) (A)
                 (A) (A) (A) (A) (A) (A) (A)
       Virtual   (A) (A) (A) (A) (A) (A) (A) (A) (A) (A) (A) (A)
                 (A) (A) (A) (A) (A) (A) (A) (A) (A) (A) (A) (A)
                 (A) (A) (A) (A) (A) (A) (A) (A) (A) (A) (A) (A)
                 (A) (A) (A) (A) (A) (A) (A) (A) (A) (A) (A) (A)
                 (A) (A) (A) (A) (A) (A) (A) (A) (A) (A) (A) (A)
                 (A) (A) (A) (A) (A) (A) (A) (A) (A) (A) (A) (A)
                 (A) (A) (A) (A) (A) (A) (A) (A) (A) (A) (A) (A)
                 (A) (A) (A) (A) (A) (A) (A) (A) (A) (A) (A) (A)
                 (A) (A) (A) (A) (A) (A) (A) (A) (A) (A) (A) (A)
                 (A) (A) (A) (A) (A) (A) (A) (A) (A) (A) (A) (A)
                 (A) (A) (A) (A) (A) (A) (A) (A) (A) (A) (A) (A)
                 (A) (A) (A) (A) (A) (A) (A) (A) (A) (A) (A) (A)
                 (A) (A) (A) (A) (A) (A) (A) (A) (A) (A)
 The electronic state is 1-A.
 Alpha  occ. eigenvalues --  -14.70918 -10.49326 -10.48990 -10.45947 -10.45499
 Alpha  occ. eigenvalues --  -10.45432 -10.45424 -10.44860 -10.44630  -1.08859
 Alpha  occ. eigenvalues --   -0.93673  -0.87512  -0.82397  -0.80454  -0.69855
 Alpha  occ. eigenvalues --   -0.66723  -0.65249  -0.60450  -0.54364  -0.53058
 Alpha  occ. eigenvalues --   -0.49277  -0.48491  -0.47807  -0.46529  -0.44424
 Alpha  occ. eigenvalues --   -0.40501  -0.38287  -0.38229  -0.32051  -0.25692
 Alpha  occ. eigenvalues --   -0.23980
 Alpha virt. eigenvalues --    0.00441   0.00542   0.02536   0.03010   0.04265
 Alpha virt. eigenvalues --    0.04406   0.04585   0.06242   0.06737   0.07171
 Alpha virt. eigenvalues --    0.07256   0.07604   0.09600   0.10192   0.11241
 Alpha virt. eigenvalues --    0.11403   0.12385   0.13649   0.14869   0.15194
 Alpha virt. eigenvalues --    0.16487   0.16633   0.17761   0.17950   0.18682
 Alpha virt. eigenvalues --    0.19783   0.20045   0.20156   0.21088   0.21792
 Alpha virt. eigenvalues --    0.22126   0.23160   0.23443   0.24133   0.24813
 Alpha virt. eigenvalues --    0.25457   0.25611   0.26146   0.27103   0.27648
 Alpha virt. eigenvalues --    0.28712   0.28972   0.30368   0.31703   0.32771
 Alpha virt. eigenvalues --    0.33889   0.34063   0.35478   0.37587   0.39875
 Alpha virt. eigenvalues --    0.40914   0.43476   0.48037   0.48861   0.55742
 Alpha virt. eigenvalues --    0.62934   0.67882   0.72088   0.72581   0.75033
 Alpha virt. eigenvalues --    0.76878   0.77214   0.78679   0.78867   0.79879
 Alpha virt. eigenvalues --    0.80574   0.81661   0.83228   0.84684   0.85907
 Alpha virt. eigenvalues --    0.87052   0.90957   0.95613   0.96943   0.97788
 Alpha virt. eigenvalues --    1.00018   1.01072   1.01695   1.02377   1.04551
 Alpha virt. eigenvalues --    1.06548   1.09156   1.10740   1.12695   1.14376
 Alpha virt. eigenvalues --    1.16660   1.17048   1.22197   1.22876   1.25299
 Alpha virt. eigenvalues --    1.27654   1.27794   1.30629   1.36602   1.37381
 Alpha virt. eigenvalues --    1.38610   1.41864   1.46291   1.46943   1.50780
 Alpha virt. eigenvalues --    1.50989   1.51629   1.54823   1.55418   1.59943
 Alpha virt. eigenvalues --    1.64653   1.70641   1.84353   1.90558   1.94733
 Alpha virt. eigenvalues --    1.94786   1.98588   2.00513   2.06035   2.06370
 Alpha virt. eigenvalues --    2.06427   2.12899   2.16764   2.20921   2.23449
 Alpha virt. eigenvalues --    2.24066   2.26593   2.31196   2.32327   2.32904
 Alpha virt. eigenvalues --    2.35126   2.38191   2.44644   2.47427   2.51473
 Alpha virt. eigenvalues --    2.61881   2.62758   2.70756   2.72947   2.73973
 Alpha virt. eigenvalues --    2.77660   2.81367   2.88677   2.92240   2.93797
 Alpha virt. eigenvalues --    3.03115   3.05605   3.19443   3.32855   3.53204
 Alpha virt. eigenvalues --    4.25688   4.37212   4.40164   4.43672   4.47276
 Alpha virt. eigenvalues --    4.50809   4.59175   4.63133   4.90097
          Condensed to atoms (all electrons):
               1          2          3          4          5          6
     1  C    6.283024   0.033083   0.676901  -0.987585   0.444764  -0.803299
     2  C    0.033083   6.680843  -0.915513   0.685040  -1.055927   0.993870
     3  C    0.676901  -0.915513  13.119399  -1.507143  -3.214026  -3.375601
     4  C   -0.987585   0.685040  -1.507143  12.248509  -4.034137  -0.823511
     5  C    0.444764  -1.055927  -3.214026  -4.034137  14.500882  -0.308836
     6  C   -0.803299   0.993870  -3.375601  -0.823511  -0.308836  13.912871
     7  N   -0.040207   0.029503  -0.650468  -0.235024   0.970355   0.166904
     8  C    0.165492  -0.324374   2.998834   2.509239  -4.363392  -4.336055
     9  C   -0.115468   0.031284  -1.159184  -0.924251   1.647468   1.205623
    10  H   -0.001591  -0.007968  -0.117760  -0.034184   0.138477   0.018790
    11  H    0.004519   0.001264  -0.002969  -0.050749   0.087286   0.061226
    12  H    0.001896  -0.000452   0.039670   0.100963  -0.137338  -0.015885
    13  H    0.054277   0.233060   0.037471  -0.005893   0.026744  -0.026814
    14  H   -0.008927   0.098064   0.085902   0.160382  -0.018635  -0.004639
    15  H    0.250563   0.039638   0.018688  -0.025422   0.035437  -0.011688
    16  H    0.074498  -0.013837   0.001448  -0.002036   0.156623   0.080889
               7          8          9         10         11         12
     1  C   -0.040207   0.165492  -0.115468  -0.001591   0.004519   0.001896
     2  C    0.029503  -0.324374   0.031284  -0.007968   0.001264  -0.000452
     3  C   -0.650468   2.998834  -1.159184  -0.117760  -0.002969   0.039670
     4  C   -0.235024   2.509239  -0.924251  -0.034184  -0.050749   0.100963
     5  C    0.970355  -4.363392   1.647468   0.138477   0.087286  -0.137338
     6  C    0.166904  -4.336055   1.205623   0.018790   0.061226  -0.015885
     7  N    7.204982  -0.875304   0.657174   0.273308   0.005185  -0.048595
     8  C   -0.875304  11.628397  -1.888606  -0.013732   0.182961   0.143628
     9  C    0.657174  -1.888606   6.593422  -0.006842   0.026430   0.243584
    10  H    0.273308  -0.013732  -0.006842   0.280111  -0.000050  -0.001244
    11  H    0.005185   0.182961   0.026430  -0.000050   0.421058  -0.000300
    12  H   -0.048595   0.143628   0.243584  -0.001244  -0.000300   0.420396
    13  H   -0.000311   0.002383   0.000832  -0.000002  -0.000000  -0.000000
    14  H   -0.006379  -0.005455   0.009035   0.001725   0.000002   0.000002
    15  H    0.000339   0.013625  -0.000340  -0.000000  -0.000001  -0.000000
    16  H   -0.000984   0.011267   0.001843   0.000003   0.001015  -0.000000
              13         14         15         16
     1  C    0.054277  -0.008927   0.250563   0.074498
     2  C    0.233060   0.098064   0.039638  -0.013837
     3  C    0.037471   0.085902   0.018688   0.001448
     4  C   -0.005893   0.160382  -0.025422  -0.002036
     5  C    0.026744  -0.018635   0.035437   0.156623
     6  C   -0.026814  -0.004639  -0.011688   0.080889
     7  N   -0.000311  -0.006379   0.000339  -0.000984
     8  C    0.002383  -0.005455   0.013625   0.011267
     9  C    0.000832   0.009035  -0.000340   0.001843
    10  H   -0.000002   0.001725  -0.000000   0.000003
    11  H   -0.000000   0.000002  -0.000001   0.001015
    12  H   -0.000000   0.000002  -0.000000  -0.000000
    13  H    0.463388  -0.002722  -0.002624  -0.000119
    14  H   -0.002722   0.467458  -0.000122   0.000014
    15  H   -0.002624  -0.000122   0.463681  -0.002544
    16  H   -0.000119   0.000014  -0.002544   0.464729
 Mulliken charges:
               1
     1  C   -0.031939
     2  C   -0.507578
     3  C   -0.035648
     4  C   -1.074199
     5  C    1.124255
     6  C   -0.733844
     7  N   -0.450478
     8  C    0.151091
     9  C   -0.322003
    10  H    0.470958
    11  H    0.263123
    12  H    0.253674
    13  H    0.220331
    14  H    0.224295
    15  H    0.220771
    16  H    0.227192
 Sum of Mulliken charges =  -0.00000
 Mulliken charges with hydrogens summed into heavy atoms:
               1
     1  C    0.188832
     2  C   -0.287247
     3  C    0.188647
     4  C   -1.074199
     5  C    1.124255
     6  C   -0.506653
     7  N    0.020480
     8  C    0.414214
     9  C   -0.068329
 Electronic spatial extent (au):  <R**2>=           1009.0492
 Charge=             -0.0000 electrons
 Dipole moment (field-independent basis, Debye):
    X=              3.6296    Y=             -1.1210    Z=             -0.0079  Tot=              3.7988
 Quadrupole moment (field-independent basis, Debye-Ang):
   XX=            -46.5463   YY=            -45.7774   ZZ=            -61.4944
   XY=             -2.5517   XZ=             -0.0158   YZ=              0.0103
 Traceless Quadrupole moment (field-independent basis, Debye-Ang):
   XX=              4.7264   YY=              5.4953   ZZ=            -10.2217
   XY=             -2.5517   XZ=             -0.0158   YZ=              0.0103
 Octapole moment (field-independent basis, Debye-Ang**2):
  XXX=             22.0567  YYY=             -8.8816  ZZZ=             -0.0630  XYY=             14.8533
  XXY=             -5.3090  XXZ=             -0.0529  XZZ=              3.8176  YZZ=             -0.6400
  YYZ=             -0.0491  XYZ=              0.0147
 Hexadecapole moment (field-independent basis, Debye-Ang**3):
 XXXX=           -857.9188 YYYY=           -388.4627 ZZZZ=            -91.7709 XXXY=            -19.2576
 XXXZ=             -0.2461 YYYX=            -14.8132 YYYZ=              0.1015 ZZZX=             -0.1087
 ZZZY=              0.0820 XXYY=           -193.5330 XXZZ=           -205.7387 YYZZ=           -104.6891
 XXYZ=              0.0467 YYXZ=             -0.0338 ZZXY=             -1.7076
 N-N= 4.013368668897D+02 E-N=-1.644676207980D+03  KE= 3.610110002034D+02
 Calling FoFJK, ICntrl=  10005127 FMM=F ISym2X=0 I1Cent= 0 IOpClX= 0 NMat=1 NMatS=1 NMatT=0.
 ***** Axes restored to original set *****
 -------------------------------------------------------------------
 Center     Atomic                   Forces (Hartrees/Bohr)
 Number     Number              X              Y              Z
 -------------------------------------------------------------------
      1        6          -0.027825462   -0.037044647   -0.000004518
      2        6          -0.045979816    0.042139745   -0.000002930
      3        6           0.043089451   -0.032980985    0.000029561
      4        6          -0.009985065    0.009729038   -0.000021439
      5        6           0.021351945   -0.012256040   -0.000031824
      6        6           0.011467186    0.035302287    0.000015858
      7        7           0.009797602    0.026918516    0.000024507
      8        6          -0.040347058    0.021744790    0.000012003
      9        6           0.035813642   -0.051096803   -0.000013234
     10        1           0.002655898   -0.005494033    0.000010872
     11        1           0.002089278    0.003724526    0.000003147
     12        1           0.003248665   -0.001028538   -0.000005652
     13        1          -0.003122432   -0.001089338   -0.000000167
     14        1           0.000678353   -0.003538936   -0.000014211
     15        1          -0.003086920    0.001418068    0.000000285
     16        1           0.000154734    0.003552350   -0.000002257
 -------------------------------------------------------------------
 Cartesian Forces:  Max     0.051096803 RMS     0.019412810

 GradGradGradGradGradGradGradGradGradGradGradGradGradGradGradGradGradGrad
 Berny optimization.
 FormGI is forming the generalized inverse of G from B-inverse, IUseBI=4.
 Internal  Forces:  Max     0.055732772 RMS     0.010287320
 Search for a local minimum.
 Step number   1 out of a maximum of   94
 All quantities printed in internal units (Hartrees-Bohrs-Radians)
 Mixed Optimization -- RFO/linear search
 Second derivative matrix not updated -- first step.
 ITU=  0
     Eigenvalues ---    0.01853   0.01931   0.01986   0.02012   0.02070
     Eigenvalues ---    0.02113   0.02148   0.02153   0.02172   0.02209
     Eigenvalues ---    0.02233   0.02248   0.02338   0.16000   0.16000
     Eigenvalues ---    0.16000   0.16000   0.16000   0.16000   0.16000
     Eigenvalues ---    0.22000   0.22188   0.22662   0.24011   0.24651
     Eigenvalues ---    0.35712   0.35717   0.35783   0.35790   0.36420
     Eigenvalues ---    0.36427   0.37009   0.38432   0.42633   0.43465
     Eigenvalues ---    0.45769   0.46692   0.47162   0.47468   0.47567
     Eigenvalues ---    0.48125   0.50955
 RFO step:  Lambda=-1.89819562D-02 EMin= 1.85287394D-02
 Linear search not attempted -- first point.
 Iteration  1 RMS(Cart)=  0.03121509 RMS(Int)=  0.00028167
 Iteration  2 RMS(Cart)=  0.00033459 RMS(Int)=  0.00012608
 Iteration  3 RMS(Cart)=  0.00000007 RMS(Int)=  0.00012608
 Variable       Old X    -DE/DX   Delta X   Delta X   Delta X     New X
                                 (Linear)    (Quad)   (Total)
    R1        2.65547  -0.01264   0.00000  -0.02502  -0.02498   2.63050
    R2        2.61291   0.03940   0.00000   0.07914   0.07917   2.69208
    R3        2.04421   0.00339   0.00000   0.00900   0.00900   2.05321
    R4        2.61557   0.05573   0.00000   0.11173   0.11174   2.72731
    R5        2.04411   0.00325   0.00000   0.00861   0.00861   2.05272
    R6        2.63373   0.00784   0.00000   0.01495   0.01492   2.64865
    R7        2.04534   0.00355   0.00000   0.00943   0.00943   2.05477
    R8        2.68058  -0.00069   0.00000  -0.00733  -0.00758   2.67300
    R9        2.60126   0.01515   0.00000   0.02660   0.02681   2.62807
   R10        2.64771   0.02556   0.00000   0.05316   0.05314   2.70085
   R11        2.70839  -0.00345   0.00000  -0.00702  -0.00735   2.70104
   R12        2.04526   0.00355   0.00000   0.00943   0.00943   2.05469
   R13        2.60573  -0.01613   0.00000  -0.03011  -0.02977   2.57595
   R14        1.89542   0.00605   0.00000   0.01233   0.01233   1.90775
   R15        2.57870   0.04475   0.00000   0.08648   0.08649   2.66519
   R16        2.03419   0.00422   0.00000   0.01100   0.01100   2.04519
   R17        2.03430   0.00334   0.00000   0.00871   0.00871   2.04302
    A1        2.11420   0.00031   0.00000   0.00652   0.00655   2.12075
    A2        2.07986  -0.00037   0.00000  -0.00447  -0.00448   2.07538
    A3        2.08912   0.00006   0.00000  -0.00206  -0.00207   2.08705
    A4        2.11523  -0.00167   0.00000  -0.00245  -0.00244   2.11279
    A5        2.08365   0.00019   0.00000  -0.00240  -0.00241   2.08124
    A6        2.08430   0.00149   0.00000   0.00486   0.00485   2.08915
    A7        2.05144  -0.00239   0.00000  -0.01180  -0.01187   2.03957
    A8        2.11267   0.00184   0.00000   0.00950   0.00953   2.12220
    A9        2.11908   0.00055   0.00000   0.00230   0.00234   2.12142
   A10        2.13389   0.00392   0.00000   0.01400   0.01390   2.14778
   A11        2.27895  -0.00532   0.00000  -0.01034  -0.01027   2.26869
   A12        1.87035   0.00140   0.00000  -0.00365  -0.00363   1.86672
   A13        2.07274   0.00377   0.00000   0.01068   0.01084   2.08359
   A14        1.86517  -0.00254   0.00000  -0.01202  -0.01250   1.85267
   A15        2.34527  -0.00123   0.00000   0.00134   0.00166   2.34693
   A16        2.07887  -0.00395   0.00000  -0.01695  -0.01698   2.06189
   A17        2.10306   0.00223   0.00000   0.00991   0.00993   2.11299
   A18        2.10125   0.00171   0.00000   0.00703   0.00705   2.10830
   A19        1.90743   0.01140   0.00000   0.04307   0.04353   1.95095
   A20        2.19023  -0.00494   0.00000  -0.01730  -0.01753   2.17270
   A21        2.18553  -0.00646   0.00000  -0.02577  -0.02600   2.15953
   A22        1.86968   0.00577   0.00000   0.03160   0.03128   1.90097
   A23        2.21717  -0.00220   0.00000  -0.01198  -0.01182   2.20535
   A24        2.19633  -0.00357   0.00000  -0.01962  -0.01947   2.17687
   A25        1.91215  -0.01603   0.00000  -0.05899  -0.05868   1.85347
   A26        2.10250   0.00732   0.00000   0.02563   0.02547   2.12797
   A27        2.26854   0.00871   0.00000   0.03336   0.03321   2.30174
    D1       -0.00001   0.00000   0.00000   0.00003   0.00003   0.00002
    D2       -3.14156   0.00000   0.00000   0.00001   0.00000  -3.14155
    D3        3.14152   0.00000   0.00000   0.00005   0.00005   3.14158
    D4       -0.00002   0.00000   0.00000   0.00003   0.00003   0.00001
    D5       -0.00003   0.00000   0.00000   0.00011   0.00011   0.00008
    D6        3.14153  -0.00000   0.00000   0.00000   0.00000   3.14153
    D7       -3.14157   0.00000   0.00000   0.00009   0.00008  -3.14148
    D8       -0.00001  -0.00000   0.00000  -0.00002  -0.00002  -0.00003
    D9        0.00003  -0.00001   0.00000  -0.00013  -0.00013  -0.00010
   D10       -3.14154   0.00000   0.00000   0.00010   0.00010  -3.14143
   D11        3.14158  -0.00000   0.00000  -0.00011  -0.00011   3.14147
   D12        0.00001   0.00001   0.00000   0.00013   0.00013   0.00014
   D13       -0.00001   0.00000   0.00000   0.00010   0.00010   0.00009
   D14       -3.14144  -0.00000   0.00000   0.00001   0.00001  -3.14142
   D15        3.14156  -0.00001   0.00000  -0.00014  -0.00014   3.14143
   D16        0.00013  -0.00001   0.00000  -0.00022  -0.00022  -0.00009
   D17       -0.00004   0.00000   0.00000   0.00003   0.00003  -0.00000
   D18       -3.14151   0.00000   0.00000  -0.00007  -0.00007  -3.14159
   D19        3.14143   0.00001   0.00000   0.00010   0.00010   3.14153
   D20       -0.00005   0.00000   0.00000  -0.00000  -0.00000  -0.00005
   D21       -3.14124   0.00000   0.00000  -0.00011  -0.00012  -3.14136
   D22       -0.00113   0.00001   0.00000   0.00007   0.00006  -0.00107
   D23        0.00049  -0.00000   0.00000  -0.00019  -0.00020   0.00030
   D24        3.14060   0.00000   0.00000  -0.00001  -0.00002   3.14059
   D25        0.00005  -0.00001   0.00000  -0.00014  -0.00014  -0.00008
   D26       -3.14151  -0.00000   0.00000  -0.00003  -0.00003  -3.14154
   D27        3.14150  -0.00000   0.00000  -0.00000   0.00000   3.14150
   D28       -0.00007   0.00000   0.00000   0.00011   0.00011   0.00004
   D29       -0.00041   0.00001   0.00000   0.00022   0.00022  -0.00019
   D30        3.14139   0.00000   0.00000   0.00004   0.00004   3.14143
   D31        3.14132   0.00001   0.00000   0.00009   0.00009   3.14141
   D32       -0.00006  -0.00000   0.00000  -0.00009  -0.00009  -0.00015
   D33       -0.00077   0.00002   0.00000   0.00037   0.00037  -0.00041
   D34        3.14133   0.00001   0.00000   0.00018   0.00018   3.14151
   D35       -3.14089   0.00001   0.00000   0.00018   0.00017  -3.14072
   D36        0.00121   0.00000   0.00000  -0.00001  -0.00001   0.00120
   D37        0.00072  -0.00002   0.00000  -0.00036  -0.00036   0.00036
   D38       -3.14144  -0.00001   0.00000  -0.00016  -0.00016   3.14159
   D39       -3.14107  -0.00001   0.00000  -0.00019  -0.00018  -3.14126
   D40       -0.00005   0.00000   0.00000   0.00002   0.00002  -0.00003
         Item               Value     Threshold  Converged?
 Maximum Force            0.055733     0.000450     NO 
 RMS     Force            0.010287     0.000300     NO 
 Maximum Displacement     0.108981     0.001800     NO 
 RMS     Displacement     0.031195     0.001200     NO 
 Predicted change in Energy=-9.900345D-03
 GradGradGradGradGradGradGradGradGradGradGradGradGradGradGradGradGradGrad

                          Input orientation:                          
 ---------------------------------------------------------------------
 Center     Atomic      Atomic             Coordinates (Angstroms)
 Number     Number       Type             X           Y           Z
 ---------------------------------------------------------------------
      1          6           0       -2.195508    0.685482    0.000054
      2          6           0       -2.168708   -0.706259    0.000038
      3          6           0       -0.918212   -1.426798    0.000074
      4          6           0        0.254727   -0.659523    0.000001
      5          6           0        0.251473    0.754962    0.000007
      6          6           0       -0.995537    1.453288    0.000088
      7          7           0        1.585923   -1.062026   -0.000167
      8          6           0        1.623479    1.155695   -0.000088
      9          6           0        2.436442    0.003222    0.000104
     10          1           0        1.892239   -2.023973    0.000625
     11          1           0        1.994972    2.172208   -0.000251
     12          1           0        3.510219   -0.122552    0.000104
     13          1           0       -3.106100   -1.255118   -0.000024
     14          1           0       -0.887050   -2.513691   -0.000087
     15          1           0       -3.156552    1.192339    0.000011
     16          1           0       -1.024905    2.540188    0.000046
 ---------------------------------------------------------------------
                    Distance matrix (angstroms):
                    1          2          3          4          5
     1  C    0.000000
     2  C    1.392000   0.000000
     3  C    2.468443   1.443231   0.000000
     4  C    2.795119   2.423886   1.401606   0.000000
     5  C    2.447967   2.827091   2.475529   1.414489   0.000000
     6  C    1.424590   2.457636   2.881125   2.455022   1.429229
     7  N    4.165694   3.771449   2.530564   1.390716   2.254374
     8  C    3.847825   4.224636   3.623461   2.273433   1.429330
     9  C    4.681926   4.659481   3.646733   2.280156   2.310671
    10  H    4.904163   4.269386   2.873195   2.131471   3.227165
    11  H    4.446400   5.061799   4.630280   3.323726   2.246859
    12  H    5.762659   5.708846   4.616500   3.299480   3.374827
    13  H    2.143620   1.086255   2.194613   3.413194   3.913275
    14  H    3.456410   2.215729   1.087339   2.177520   3.461261
    15  H    1.086513   2.140214   3.445294   3.881523   3.435977
    16  H    2.193227   3.442050   3.968421   3.446101   2.194579
                    6          7          8          9         10
     6  C    0.000000
     7  N    3.604268   0.000000
     8  C    2.635869   2.218040   0.000000
     9  C    3.725744   1.363135   1.410356   0.000000
    10  H    4.520021   1.009540   3.191007   2.098971   0.000000
    11  H    3.075710   3.259999   1.082269   2.213458   4.197439
    12  H    4.773375   2.141385   2.278970   1.081119   2.496651
    13  H    3.433648   4.695994   5.308572   5.683589   5.057126
    14  H    3.968462   2.867564   4.446026   4.168986   2.822103
    15  H    2.176713   5.251023   4.780171   5.718005   5.986230
    16  H    1.087297   4.448863   2.988438   4.291517   5.416761
                   11         12         13         14         15
    11  H    0.000000
    12  H    2.749890   0.000000
    13  H    6.145527   6.712554   0.000000
    14  H    5.501245   5.005349   2.551115   0.000000
    15  H    5.243887   6.795203   2.447977   4.345722   0.000000
    16  H    3.042215   5.259044   4.328478   5.055759   2.522026
                   16
    16  H    0.000000
 Stoichiometry    C8H7N
 Framework group  C1[X(C8H7N)]
 Deg. of freedom    42
 Full point group                 C1      NOp   1
 Largest Abelian subgroup         C1      NOp   1
 Largest concise Abelian subgroup C1      NOp   1
                         Standard orientation:                         
 ---------------------------------------------------------------------
 Center     Atomic      Atomic             Coordinates (Angstroms)
 Number     Number       Type             X           Y           Z
 ---------------------------------------------------------------------
      1          6           0       -2.204122    0.658183    0.000039
      2          6           0       -2.161236   -0.733156    0.000023
      3          6           0       -0.902495   -1.439192    0.000059
      4          6           0        0.261497   -0.658410   -0.000014
      5          6           0        0.241893    0.755944   -0.000008
      6          6           0       -1.013107    1.439809    0.000073
      7          7           0        1.597257   -1.045498   -0.000182
      8          6           0        1.609174    1.172510   -0.000103
      9          6           0        2.435405    0.029511    0.000089
     10          1           0        1.914671   -2.003839    0.000610
     11          1           0        1.968893    2.193249   -0.000266
     12          1           0        3.510565   -0.083842    0.000089
     13          1           0       -3.092220   -1.292814   -0.000039
     14          1           0       -0.858770   -2.525651   -0.000102
     15          1           0       -3.170961    1.153897   -0.000004
     16          1           0       -1.055037    2.526296    0.000031
 ---------------------------------------------------------------------
 Rotational constants (GHZ):           3.8862391           1.5913072           1.1290092
 Standard basis: 6-31+G(d) (6D, 7F)
 There are   185 symmetry adapted cartesian basis functions of A   symmetry.
 There are   185 symmetry adapted basis functions of A   symmetry.
   185 basis functions,   316 primitive gaussians,   185 cartesian basis functions
    31 alpha electrons       31 beta electrons
       nuclear repulsion energy       397.2149976425 Hartrees.
 NAtoms=   16 NActive=   16 NUniq=   16 SFac= 1.00D+00 NAtFMM=   60 NAOKFM=F Big=F
 Integral buffers will be    131072 words long.
 Regular integral format.
 Two-electron integral symmetry is turned on.
 One-electron integrals computed using PRISM.
 NBasis=   185 RedAO= T EigKep=  1.33D-06  NBF=   185
 NBsUse=   185 1.00D-06 EigRej= -1.00D+00 NBFU=   185
 Initial guess from the checkpoint file:  "FuncsSOGGA11X-V-1st.chk"
 B after Tr=     0.000000   -0.000000   -0.000000
         Rot=    0.999983    0.000004    0.000000   -0.005780 Ang=   0.66 deg.
 ExpMin= 4.38D-02 ExpMax= 4.17D+03 ExpMxC= 6.27D+02 IAcc=3 IRadAn=         5 AccDes= 0.00D+00
 Harris functional with IExCor= 5143 and IRadAn=       5 diagonalized for initial guess.
 HarFok:  IExCor= 5143 AccDes= 0.00D+00 IRadAn=         5 IDoV= 1 UseB2=F ITyADJ=14
 ICtDFT=  3500011 ScaDFX=  1.000000  1.000000  1.000000  1.000000
 FoFCou: FMM=F IPFlag=           0 FMFlag=      100000 FMFlg1=           0
         NFxFlg=           0 DoJE=T BraDBF=F KetDBF=T FulRan=T
         wScrn=  0.000000 ICntrl=       500 IOpCl=  0 I1Cent=   200000004 NGrid=           0
         NMat0=    1 NMatS0=      1 NMatT0=    0 NMatD0=    1 NMtDS0=    0 NMtDT0=    0
 Petite list used in FoFCou.
 Keep R1 ints in memory in canonical form, NReq=152071459.
 Requested convergence on RMS density matrix=1.00D-08 within 128 cycles.
 Requested convergence on MAX density matrix=1.00D-06.
 Requested convergence on             energy=1.00D-06.
 No special actions if energy rises.
 SCF Done:  E(RSOGGA11X) =  -363.722516731     A.U. after   14 cycles
            NFock= 14  Conv=0.24D-08     -V/T= 2.0091
 DoSCS=F DFT=T ScalE2(SS,OS)=  1.000000  1.000000
 ExpMin= 4.38D-02 ExpMax= 4.17D+03 ExpMxC= 6.27D+02 IAcc=3 IRadAn=         5 AccDes= 0.00D+00
 HarFok:  IExCor=  205 AccDes= 0.00D+00 IRadAn=         5 IDoV=-2 UseB2=F ITyADJ=14
 ICtDFT= 12500011 ScaDFX=  1.000000  1.000000  1.000000  1.000000
 Range of M.O.s used for correlation:    10   185
 NBasis=   185 NAE=    31 NBE=    31 NFC=     9 NFV=     0
 NROrb=    176 NOA=    22 NOB=    22 NVA=   154 NVB=   154

 **** Warning!!: The largest alpha MO coefficient is  0.18733163D+03

 Orbital symmetries:
       Occupied  (A) (A) (A) (A) (A) (A) (A) (A) (A) (A) (A) (A)
                 (A) (A) (A) (A) (A) (A) (A) (A) (A) (A) (A) (A)
                 (A) (A) (A) (A) (A) (A) (A)
       Virtual   (A) (A) (A) (A) (A) (A) (A) (A) (A) (A) (A) (A)
                 (A) (A) (A) (A) (A) (A) (A) (A) (A) (A) (A) (A)
                 (A) (A) (A) (A) (A) (A) (A) (A) (A) (A) (A) (A)
                 (A) (A) (A) (A) (A) (A) (A) (A) (A) (A) (A) (A)
                 (A) (A) (A) (A) (A) (A) (A) (A) (A) (A) (A) (A)
                 (A) (A) (A) (A) (A) (A) (A) (A) (A) (A) (A) (A)
                 (A) (A) (A) (A) (A) (A) (A) (A) (A) (A) (A) (A)
                 (A) (A) (A) (A) (A) (A) (A) (A) (A) (A) (A) (A)
                 (A) (A) (A) (A) (A) (A) (A) (A) (A) (A) (A) (A)
                 (A) (A) (A) (A) (A) (A) (A) (A) (A) (A) (A) (A)
                 (A) (A) (A) (A) (A) (A) (A) (A) (A) (A) (A) (A)
                 (A) (A) (A) (A) (A) (A) (A) (A) (A) (A) (A) (A)
                 (A) (A) (A) (A) (A) (A) (A) (A) (A) (A)
 Generating guess from densities on rwf.
 Convergence on wavefunction:    0.000001000000000
 Iteration     1 Dimension    12 NMult     0 NNew     12
 CISAX will form    12 AO SS matrices at one time.
 New state      2 was old state      3
 New state      3 was old state      2
 New state      4 was old state      5
 New state      5 was old state      6
 New state      6 was old state      4
 Iteration     2 Dimension    24 NMult    12 NNew     12
 New state      2 was old state      3
 New state      3 was old state      2
 Iteration     3 Dimension    36 NMult    24 NNew     12
 Iteration     4 Dimension    48 NMult    36 NNew     12
 Iteration     5 Dimension    60 NMult    48 NNew     12
 Iteration     6 Dimension    72 NMult    60 NNew     12
 Iteration     7 Dimension    84 NMult    72 NNew     12
 Iteration     8 Dimension    96 NMult    84 NNew     12
 Iteration     9 Dimension   108 NMult    96 NNew     12
 Iteration    10 Dimension   116 NMult   108 NNew      8
 Iteration    11 Dimension   120 NMult   116 NNew      4
 ***********************************************************************
 Excited states from <AA,BB:AA,BB> singles matrix:
 ***********************************************************************
 
 Ground to excited state transition densities written to RWF  633
 Ground to excited state transition electric dipole moments (Au):
       state          X           Y           Z        Dip. S.      Osc.
         1        -0.8219      0.7457     -0.0002      1.2314      0.1389
         2         0.0005     -0.0006     -0.1403      0.0197      0.0024
         3        -0.3897     -0.1929      0.0000      0.1891      0.0232
         4         0.0001     -0.0000     -0.0668      0.0045      0.0006
         5         0.0003      0.0001      0.1207      0.0146      0.0020
         6        -0.0008     -0.0002     -0.1039      0.0108      0.0015
 Ground to excited state transition velocity dipole moments (Au):
       state          X           Y           Z        Dip. S.      Osc.
         1         0.1288     -0.1365      0.0000      0.0352      0.1388
         2        -0.0001      0.0001      0.0164      0.0003      0.0010
         3         0.0674      0.0377      0.0000      0.0060      0.0216
         4        -0.0000      0.0000      0.0148      0.0002      0.0007
         5        -0.0001     -0.0000     -0.0232      0.0005      0.0017
         6         0.0002      0.0000      0.0245      0.0006      0.0019
 Ground to excited state transition magnetic dipole moments (Au):
       state          X           Y           Z
         1         0.0001     -0.0001      0.1327
         2         0.1408     -0.0875      0.0001
         3        -0.0001     -0.0001      0.0120
         4         0.2605     -0.2756      0.0000
         5         0.2019      0.3008      0.0003
         6        -0.0254     -0.1461     -0.0003
 Ground to excited state transition velocity quadrupole moments (Au):
       state          XX          YY          ZZ          XY          XZ          YZ
         1         0.2196     -0.1455      0.0166      0.0659      0.0001     -0.0000
         2        -0.0002      0.0001      0.0001     -0.0000      0.0743      0.0486
         3         0.0469     -0.0958      0.0279     -0.0035     -0.0000     -0.0000
         4        -0.0001     -0.0001     -0.0000      0.0000      0.2911      0.2326
         5         0.0001     -0.0001      0.0001      0.0001     -0.2480      0.0868
         6         0.0002     -0.0001     -0.0000     -0.0001      0.0601     -0.0878
 <0|del|b> * <b|rxdel|0> + <0|del|b> * <b|delr+rdel|0>
 Rotatory Strengths (R) in cgs (10**-40 erg-esu-cm/Gauss)
       state          XX          YY          ZZ    R(velocity)    E-M Angle
         1         0.0466      0.0384      0.0341      0.0397       90.00
         2        -0.0344     -0.0249     -0.0165     -0.0253       90.00
         3        -0.0046     -0.0177     -0.0160     -0.0127       90.00
         4        -0.0051     -0.0082     -0.0003     -0.0045       90.00
         5        -0.0268     -0.0379     -0.0135     -0.0260       90.00
         6        -0.0273     -0.0386      0.0129     -0.0177       90.00
 1/2[<0|r|b>*<b|rxdel|0> + (<0|rxdel|b>*<b|r|0>)*]
 Rotatory Strengths (R) in cgs (10**-40 erg-esu-cm/Gauss)
       state          XX          YY          ZZ     R(length)
         1         0.0865      0.0269      0.0142      0.0426
         2        -0.0491     -0.0357      0.0071     -0.0259
         3        -0.0307     -0.0088     -0.0002     -0.0132
         4        -0.0123     -0.0069      0.0012     -0.0060
         5        -0.0487     -0.0203     -0.0249     -0.0313
         6        -0.0144     -0.0161     -0.0196     -0.0167
  1/2[<0|del|b>*<b|r|0> + (<0|r|b>*<b|del|0>)*] (Au)
       state          X           Y           Z        Dip. S.   Osc.(frdel)
         1        -0.1059     -0.1018     -0.0000      0.2076      0.1384
         2        -0.0000     -0.0000     -0.0023      0.0023      0.0015
         3        -0.0263     -0.0073      0.0000      0.0335      0.0223
         4        -0.0000     -0.0000     -0.0010      0.0010      0.0007
         5        -0.0000     -0.0000     -0.0028      0.0028      0.0019
         6        -0.0000     -0.0000     -0.0025      0.0025      0.0017

 Excitation energies and oscillator strengths:
 
 Excited State   1:      Singlet-A      4.6040 eV  269.30 nm  f=0.1389  <S**2>=0.000
      30 -> 36         0.12732
      31 -> 32         0.68649
 This state for optimization and/or second-order correction.
 Total Energy, E(TD-HF/TD-DFT) =  -363.553322863    
 Copying the excited state density for this state as the 1-particle RhoCI density.
 
 Excited State   2:      Singlet-A      4.8981 eV  253.13 nm  f=0.0024  <S**2>=0.000
      31 -> 33         0.69808
 
 Excited State   3:      Singlet-A      4.9985 eV  248.04 nm  f=0.0232  <S**2>=0.000
      30 -> 32         0.56822
      31 -> 36        -0.39869
 
 Excited State   4:      Singlet-A      5.5480 eV  223.47 nm  f=0.0006  <S**2>=0.000
      30 -> 33         0.11579
      31 -> 34         0.67833
 
 Excited State   5:      Singlet-A      5.6433 eV  219.70 nm  f=0.0020  <S**2>=0.000
      31 -> 35         0.67983
      31 -> 37         0.10584
 
 Excited State   6:      Singlet-A      5.8149 eV  213.22 nm  f=0.0015  <S**2>=0.000
      30 -> 33         0.67852
      31 -> 34        -0.11607
 SavETr:  write IOETrn=   770 NScale= 10 NData=  16 NLR=1 NState=    6 LETran=     118.
          IDoAtm=1111111111111111
          Differentiating once with respect to electric field.
                with respect to dipole field.
          Differentiating once with respect to nuclear coordinates.
 Keep R1 ints in memory in canonical form, NReq=152083851.
          There are     1 degrees of freedom in the 1st order CPHF.  IDoFFX=0 NUNeed=     1.
 LinEq1:  Iter=  0 NonCon=     1 RMS=8.53D-03 Max=2.30D-01 NDo=     1
 AX will form     1 AO Fock derivatives at one time.
 LinEq1:  Iter=  1 NonCon=     1 RMS=3.21D-03 Max=6.94D-02 NDo=     1
 LinEq1:  Iter=  2 NonCon=     1 RMS=1.92D-03 Max=5.22D-02 NDo=     1
 LinEq1:  Iter=  3 NonCon=     1 RMS=8.35D-04 Max=1.42D-02 NDo=     1
 LinEq1:  Iter=  4 NonCon=     1 RMS=3.91D-04 Max=1.28D-02 NDo=     1
 LinEq1:  Iter=  5 NonCon=     1 RMS=2.07D-04 Max=5.14D-03 NDo=     1
 LinEq1:  Iter=  6 NonCon=     1 RMS=1.25D-04 Max=3.33D-03 NDo=     1
 LinEq1:  Iter=  7 NonCon=     1 RMS=5.52D-05 Max=1.29D-03 NDo=     1
 LinEq1:  Iter=  8 NonCon=     1 RMS=2.84D-05 Max=6.74D-04 NDo=     1
 LinEq1:  Iter=  9 NonCon=     1 RMS=1.42D-05 Max=2.73D-04 NDo=     1
 LinEq1:  Iter= 10 NonCon=     1 RMS=7.66D-06 Max=1.68D-04 NDo=     1
 LinEq1:  Iter= 11 NonCon=     1 RMS=2.41D-06 Max=2.84D-05 NDo=     1
 LinEq1:  Iter= 12 NonCon=     1 RMS=1.30D-06 Max=2.46D-05 NDo=     1
 LinEq1:  Iter= 13 NonCon=     1 RMS=5.11D-07 Max=7.61D-06 NDo=     1
 LinEq1:  Iter= 14 NonCon=     1 RMS=1.67D-07 Max=3.97D-06 NDo=     1
 LinEq1:  Iter= 15 NonCon=     1 RMS=1.05D-07 Max=2.69D-06 NDo=     1
 LinEq1:  Iter= 16 NonCon=     1 RMS=2.07D-08 Max=4.03D-07 NDo=     1
 LinEq1:  Iter= 17 NonCon=     1 RMS=4.64D-09 Max=6.99D-08 NDo=     1
 LinEq1:  Iter= 18 NonCon=     1 RMS=3.05D-09 Max=7.25D-08 NDo=     1
 LinEq1:  Iter= 19 NonCon=     1 RMS=8.44D-10 Max=9.54D-09 NDo=     1
 LinEq1:  Iter= 20 NonCon=     1 RMS=1.56D-10 Max=2.12D-09 NDo=     1
 LinEq1:  Iter= 21 NonCon=     0 RMS=2.60D-11 Max=2.70D-10 NDo=     1
 Linear equations converged to 1.000D-10 1.000D-09 after    21 iterations.
 End of Minotr F.D. properties file   721 does not exist.
 End of Minotr F.D. properties file   722 does not exist.
 End of Minotr F.D. properties file   788 does not exist.
 Calling FoFJK, ICntrl=  10005127 FMM=F ISym2X=0 I1Cent= 0 IOpClX= 0 NMat=1 NMatS=1 NMatT=0.
 ***** Axes restored to original set *****
 -------------------------------------------------------------------
 Center     Atomic                   Forces (Hartrees/Bohr)
 Number     Number              X              Y              Z
 -------------------------------------------------------------------
      1        6           0.000271711   -0.011347610   -0.000003357
      2        6          -0.003547539    0.014833834    0.000000837
      3        6           0.010789523   -0.009595769    0.000002131
      4        6          -0.010768046    0.005750732   -0.000007974
      5        6           0.009134800   -0.005480519   -0.000008012
      6        6           0.000749663    0.008149768   -0.000001822
      7        7           0.011381210    0.006149677    0.000037083
      8        6          -0.016233109    0.012252234    0.000005155
      9        6          -0.001288132   -0.020184294   -0.000019277
     10        1          -0.000654826   -0.000895187   -0.000011135
     11        1           0.000851616    0.000346918    0.000002697
     12        1          -0.001144068    0.000657077    0.000000162
     13        1           0.001072456   -0.001382945    0.000000876
     14        1          -0.001130397    0.000906368   -0.000000938
     15        1           0.000576808    0.000989250    0.000000683
     16        1          -0.000061667   -0.001149534    0.000002892
 -------------------------------------------------------------------
 Cartesian Forces:  Max     0.020184294 RMS     0.006293364

 GradGradGradGradGradGradGradGradGradGradGradGradGradGradGradGradGradGrad
 Berny optimization.
 Using GEDIIS/GDIIS optimizer.
 FormGI is forming the generalized inverse of G from B-inverse, IUseBI=4.
 Internal  Forces:  Max     0.012730798 RMS     0.002733131
 Search for a local minimum.
 Step number   2 out of a maximum of   94
 All quantities printed in internal units (Hartrees-Bohrs-Radians)
 Mixed Optimization -- RFO/linear search
 Update second derivatives using D2CorX and points    1    2
 DE= -1.06D-02 DEPred=-9.90D-03 R= 1.07D+00
 TightC=F SS=  1.41D+00  RLast= 2.08D-01 DXNew= 5.0454D-01 6.2382D-01
 Trust test= 1.07D+00 RLast= 2.08D-01 DXMaxT set to 5.05D-01
 ITU=  1  0
 Use linear search instead of GDIIS.
     Eigenvalues ---    0.01852   0.01931   0.01986   0.02011   0.02069
     Eigenvalues ---    0.02113   0.02146   0.02151   0.02172   0.02210
     Eigenvalues ---    0.02234   0.02248   0.02341   0.15952   0.16000
     Eigenvalues ---    0.16000   0.16000   0.16000   0.16000   0.16029
     Eigenvalues ---    0.21043   0.22008   0.23890   0.24139   0.24661
     Eigenvalues ---    0.35485   0.35715   0.35786   0.35838   0.35866
     Eigenvalues ---    0.36472   0.36498   0.38173   0.40186   0.42887
     Eigenvalues ---    0.43833   0.46124   0.47136   0.47167   0.47656
     Eigenvalues ---    0.49258   0.54442
 RFO step:  Lambda=-1.76846905D-03 EMin= 1.85230096D-02
 Quartic linear search produced a step of  0.14317.
 Iteration  1 RMS(Cart)=  0.00985208 RMS(Int)=  0.00005198
 Iteration  2 RMS(Cart)=  0.00008646 RMS(Int)=  0.00001612
 Iteration  3 RMS(Cart)=  0.00000000 RMS(Int)=  0.00001612
 Variable       Old X    -DE/DX   Delta X   Delta X   Delta X     New X
                                 (Linear)    (Quad)   (Total)
    R1        2.63050  -0.00688  -0.00358  -0.01636  -0.01996   2.61054
    R2        2.69208   0.00101   0.01134  -0.00179   0.00953   2.70161
    R3        2.05321  -0.00005   0.00129  -0.00063   0.00066   2.05387
    R4        2.72731   0.00557   0.01600   0.00723   0.02322   2.75054
    R5        2.05272  -0.00023   0.00123  -0.00117   0.00006   2.05278
    R6        2.64865  -0.00471   0.00214  -0.01218  -0.01003   2.63862
    R7        2.05477  -0.00094   0.00135  -0.00349  -0.00213   2.05264
    R8        2.67300  -0.00101  -0.00109  -0.00253  -0.00360   2.66940
    R9        2.62807   0.00336   0.00384   0.00563   0.00950   2.63757
   R10        2.70085   0.00023   0.00761  -0.00207   0.00554   2.70639
   R11        2.70104  -0.00915  -0.00105  -0.02471  -0.02580   2.67525
   R12        2.05469  -0.00115   0.00135  -0.00415  -0.00280   2.05189
   R13        2.57595  -0.01115  -0.00426  -0.02429  -0.02853   2.54742
   R14        1.90775   0.00065   0.00177   0.00094   0.00270   1.91046
   R15        2.66519   0.01273   0.01238   0.02403   0.03640   2.70158
   R16        2.04519   0.00062   0.00158   0.00135   0.00293   2.04812
   R17        2.04302  -0.00121   0.00125  -0.00425  -0.00300   2.04002
    A1        2.12075   0.00170   0.00094   0.00826   0.00916   2.12991
    A2        2.07538   0.00033  -0.00064   0.00423   0.00361   2.07899
    A3        2.08705  -0.00202  -0.00030  -0.01249  -0.01277   2.07429
    A4        2.11279   0.00264  -0.00035   0.01352   0.01314   2.12593
    A5        2.08124   0.00046  -0.00034   0.00604   0.00571   2.08695
    A6        2.08915  -0.00310   0.00069  -0.01956  -0.01885   2.07030
    A7        2.03957  -0.00487  -0.00170  -0.02412  -0.02580   2.01377
    A8        2.12220   0.00130   0.00136   0.00385   0.00520   2.12740
    A9        2.12142   0.00357   0.00033   0.02027   0.02060   2.14202
   A10        2.14778   0.00293   0.00199   0.01413   0.01615   2.16393
   A11        2.26869  -0.00350  -0.00147  -0.01496  -0.01646   2.25223
   A12        1.86672   0.00057  -0.00052   0.00082   0.00031   1.86703
   A13        2.08359   0.00144   0.00155   0.00651   0.00811   2.09169
   A14        1.85267   0.00183  -0.00179   0.00921   0.00737   1.86004
   A15        2.34693  -0.00327   0.00024  -0.01572  -0.01548   2.33145
   A16        2.06189  -0.00383  -0.00243  -0.01831  -0.02075   2.04114
   A17        2.11299   0.00182   0.00142   0.00839   0.00982   2.12281
   A18        2.10830   0.00201   0.00101   0.00992   0.01093   2.11923
   A19        1.95095  -0.00088   0.00623  -0.00809  -0.00180   1.94915
   A20        2.17270  -0.00042  -0.00251  -0.00223  -0.00477   2.16793
   A21        2.15953   0.00129  -0.00372   0.01032   0.00657   2.16610
   A22        1.90097  -0.00273   0.00448  -0.01297  -0.00852   1.89244
   A23        2.20535   0.00206  -0.00169   0.01118   0.00950   2.21485
   A24        2.17687   0.00067  -0.00279   0.00179  -0.00098   2.17589
   A25        1.85347   0.00121  -0.00840   0.01103   0.00264   1.85611
   A26        2.12797  -0.00007   0.00365  -0.00153   0.00210   2.13008
   A27        2.30174  -0.00114   0.00475  -0.00949  -0.00475   2.29700
    D1        0.00002  -0.00000   0.00000  -0.00002  -0.00002  -0.00000
    D2       -3.14155  -0.00000   0.00000  -0.00004  -0.00004   3.14159
    D3        3.14158   0.00000   0.00001   0.00004   0.00005  -3.14156
    D4        0.00001   0.00000   0.00000   0.00002   0.00002   0.00003
    D5        0.00008   0.00000   0.00002   0.00003   0.00005   0.00012
    D6        3.14153   0.00000   0.00000   0.00009   0.00009  -3.14156
    D7       -3.14148  -0.00000   0.00001  -0.00003  -0.00002  -3.14150
    D8       -0.00003   0.00000  -0.00000   0.00003   0.00003  -0.00000
    D9       -0.00010  -0.00000  -0.00002   0.00001  -0.00001  -0.00011
   D10       -3.14143  -0.00000   0.00002  -0.00001   0.00001  -3.14142
   D11        3.14147   0.00000  -0.00002   0.00004   0.00002   3.14149
   D12        0.00014   0.00000   0.00002   0.00001   0.00003   0.00017
   D13        0.00009  -0.00000   0.00001  -0.00002   0.00000   0.00009
   D14       -3.14142  -0.00000   0.00000  -0.00007  -0.00007  -3.14149
   D15        3.14143  -0.00000  -0.00002   0.00000  -0.00002   3.14141
   D16       -0.00009  -0.00000  -0.00003  -0.00005  -0.00008  -0.00017
   D17       -0.00000   0.00000   0.00000   0.00003   0.00003   0.00003
   D18       -3.14159   0.00000  -0.00001  -0.00002  -0.00003   3.14157
   D19        3.14153   0.00000   0.00001   0.00007   0.00008  -3.14157
   D20       -0.00005   0.00000  -0.00000   0.00003   0.00002  -0.00003
   D21       -3.14136  -0.00000  -0.00002  -0.00017  -0.00019  -3.14156
   D22       -0.00107   0.00001   0.00001   0.00029   0.00029  -0.00078
   D23        0.00030  -0.00000  -0.00003  -0.00022  -0.00025   0.00004
   D24        3.14059   0.00001  -0.00000   0.00024   0.00023   3.14082
   D25       -0.00008  -0.00000  -0.00002  -0.00003  -0.00005  -0.00013
   D26       -3.14154  -0.00000  -0.00000  -0.00009  -0.00009   3.14155
   D27        3.14150   0.00000   0.00000   0.00002   0.00003   3.14152
   D28        0.00004  -0.00000   0.00002  -0.00004  -0.00002   0.00002
   D29       -0.00019   0.00000   0.00003   0.00017   0.00020   0.00001
   D30        3.14143   0.00000   0.00001   0.00005   0.00005   3.14148
   D31        3.14141   0.00000   0.00001   0.00012   0.00013   3.14154
   D32       -0.00015   0.00000  -0.00001  -0.00000  -0.00001  -0.00017
   D33       -0.00041   0.00001   0.00005   0.00032   0.00037  -0.00004
   D34        3.14151   0.00000   0.00003   0.00014   0.00017  -3.14151
   D35       -3.14072  -0.00000   0.00002  -0.00012  -0.00010  -3.14082
   D36        0.00120  -0.00000  -0.00000  -0.00030  -0.00031   0.00089
   D37        0.00036  -0.00001  -0.00005  -0.00029  -0.00035   0.00002
   D38        3.14159  -0.00000  -0.00002  -0.00009  -0.00011   3.14147
   D39       -3.14126  -0.00000  -0.00003  -0.00018  -0.00020  -3.14146
   D40       -0.00003   0.00000   0.00000   0.00003   0.00003  -0.00001
         Item               Value     Threshold  Converged?
 Maximum Force            0.012731     0.000450     NO 
 RMS     Force            0.002733     0.000300     NO 
 Maximum Displacement     0.032583     0.001800     NO 
 RMS     Displacement     0.009901     0.001200     NO 
 Predicted change in Energy=-1.048776D-03
 GradGradGradGradGradGradGradGradGradGradGradGradGradGradGradGradGradGrad

                          Input orientation:                          
 ---------------------------------------------------------------------
 Center     Atomic      Atomic             Coordinates (Angstroms)
 Number     Number       Type             X           Y           Z
 ---------------------------------------------------------------------
      1          6           0       -2.188567    0.683361   -0.000009
      2          6           0       -2.158973   -0.697759    0.000007
      3          6           0       -0.905876   -1.438224    0.000102
      4          6           0        0.251154   -0.656606    0.000043
      5          6           0        0.249764    0.755976    0.000012
      6          6           0       -0.993156    1.467480    0.000072
      7          7           0        1.586503   -1.062735   -0.000005
      8          6           0        1.606236    1.161106   -0.000014
      9          6           0        2.427416   -0.009135   -0.000009
     10          1           0        1.887089   -2.027986    0.000647
     11          1           0        1.981768    2.177785   -0.000135
     12          1           0        3.499901   -0.132280   -0.000119
     13          1           0       -3.092038   -1.254002   -0.000052
     14          1           0       -0.881008   -2.524149   -0.000041
     15          1           0       -3.149190    1.191761   -0.000052
[...]
 ! D9    D(1,2,3,4)             -0.0008         -DE/DX =    0.0                 !
 ! D10   D(1,2,3,14)          -179.9929         -DE/DX =    0.0                 !
 ! D11   D(13,2,3,4)           179.9992         -DE/DX =    0.0                 !
 ! D12   D(13,2,3,14)            0.007          -DE/DX =    0.0                 !
 ! D13   D(2,3,4,5)             -0.0001         -DE/DX =    0.0                 !
 ! D14   D(2,3,4,7)           -179.9985         -DE/DX =    0.0                 !
 ! D15   D(14,3,4,5)           179.992          -DE/DX =    0.0                 !
 ! D16   D(14,3,4,7)            -0.0065         -DE/DX =    0.0                 !
 ! D17   D(3,4,5,6)              0.0014         -DE/DX =    0.0                 !
 ! D18   D(3,4,5,8)            180.0019         -DE/DX =    0.0                 !
 ! D19   D(7,4,5,6)           -179.9999         -DE/DX =    0.0                 !
 ! D20   D(7,4,5,8)              0.0007         -DE/DX =    0.0                 !
 ! D21   D(3,4,7,9)            180.006          -DE/DX =    0.0                 !
 ! D22   D(3,4,7,10)            -0.0115         -DE/DX =    0.0                 !
 ! D23   D(5,4,7,9)              0.0073         -DE/DX =    0.0                 !
 ! D24   D(5,4,7,10)           179.9899         -DE/DX =    0.0                 !
 ! D25   D(4,5,6,1)             -0.0018         -DE/DX =    0.0                 !
 ! D26   D(4,5,6,16)           179.9984         -DE/DX =    0.0                 !
 ! D27   D(8,5,6,1)            179.9975         -DE/DX =    0.0                 !
 ! D28   D(8,5,6,16)            -0.0023         -DE/DX =    0.0                 !
 ! D29   D(4,5,8,9)             -0.0078         -DE/DX =    0.0                 !
 ! D30   D(4,5,8,11)           179.9984         -DE/DX =    0.0                 !
 ! D31   D(6,5,8,9)           -180.0072         -DE/DX =    0.0                 !
 ! D32   D(6,5,8,11)            -0.0009         -DE/DX =    0.0                 !
 ! D33   D(4,7,9,8)             -0.0121         -DE/DX =    0.0                 !
 ! D34   D(4,7,9,12)          -180.0031         -DE/DX =    0.0                 !
 ! D35   D(10,7,9,8)          -179.9945         -DE/DX =    0.0                 !
 ! D36   D(10,7,9,12)            0.0145         -DE/DX =    0.0                 !
 ! D37   D(5,8,9,7)              0.0122         -DE/DX =    0.0                 !
 ! D38   D(5,8,9,12)           180.0022         -DE/DX =    0.0                 !
 ! D39   D(11,8,9,7)          -179.9938         -DE/DX =    0.0                 !
 ! D40   D(11,8,9,12)           -0.0038         -DE/DX =    0.0                 !
 --------------------------------------------------------------------------------
 GradGradGradGradGradGradGradGradGradGradGradGradGradGradGradGradGradGrad

                          Input orientation:                          
 ---------------------------------------------------------------------
 Center     Atomic      Atomic             Coordinates (Angstroms)
 Number     Number       Type             X           Y           Z
 ---------------------------------------------------------------------
      1          6           0       -2.184515    0.686762    0.000014
      2          6           0       -2.153680   -0.697036    0.000057
      3          6           0       -0.908022   -1.443732    0.000085
      4          6           0        0.247730   -0.659268    0.000049
      5          6           0        0.247520    0.751784   -0.000012
      6          6           0       -0.993061    1.468481   -0.000011
      7          7           0        1.590422   -1.063217    0.000034
      8          6           0        1.601730    1.162154   -0.000078
      9          6           0        2.424998   -0.010186    0.000128
     10          1           0        1.888353   -2.028343    0.000217
     11          1           0        1.981947    2.175901   -0.000159
     12          1           0        3.499377   -0.119983    0.000182
     13          1           0       -3.087193   -1.253362    0.000069
     14          1           0       -0.892491   -2.528288    0.000005
     15          1           0       -3.146383    1.192779   -0.000011
     16          1           0       -1.019828    2.553000   -0.000031
 ---------------------------------------------------------------------
                    Distance matrix (angstroms):
                    1          2          3          4          5
     1  C    0.000000
     2  C    1.384141   0.000000
     3  C    2.483634   1.452315   0.000000
     4  C    2.779858   2.401707   1.396834   0.000000
     5  C    2.432904   2.804432   2.481041   1.411052   0.000000
     6  C    1.425008   2.456929   2.913454   2.463102   1.432722
     7  N    4.160838   3.761966   2.527254   1.402140   2.257789
     8  C    3.815974   4.190429   3.617941   2.269559   1.415023
     9  C    4.661904   4.629909   3.628232   2.271960   2.306948
    10  H    4.894900   4.255632   2.856830   2.136823   3.228225
    11  H    4.424584   5.035591   4.631809   3.323506   2.244181
    12  H    5.740860   5.682433   4.601899   3.296064   3.366683
    13  H    2.139838   1.086713   2.187471   3.387426   3.891133
    14  H    3.464949   2.223530   1.084668   2.189370   3.472535
    15  H    1.086850   2.134680   3.458533   3.866533   3.422434
    16  H    2.199851   3.442144   3.998295   3.453313   2.202397
                    6          7          8          9         10
     6  C    0.000000
     7  N    3.617164   0.000000
     8  C    2.612810   2.225399   0.000000
     9  C    3.724188   1.343648   1.432533   0.000000
    10  H    4.531039   1.010065   3.203346   2.088288   0.000000
    11  H    3.057959   3.262695   1.082704   2.230532   4.205286
    12  H    4.764999   2.129272   2.290183   1.079975   2.497446
    13  H    3.434213   4.681478   5.274535   5.650640   5.035539
    14  H    3.998034   2.882931   4.454268   4.164921   2.825427
    15  H    2.170901   5.246603   4.748212   5.699773   5.976972
    16  H    1.084850   4.459869   2.967663   4.293803   5.426437
                   11         12         13         14         15
    11  H    0.000000
    12  H    2.752032   0.000000
    13  H    6.120133   6.683371   0.000000
    14  H    5.512875   5.008836   2.538140   0.000000
    15  H    5.221714   6.774177   2.446857   4.350445   0.000000
    16  H    3.025368   5.250529   4.331558   5.082884   2.524369
                   16
    16  H    0.000000
 Stoichiometry    C8H7N
 Framework group  C1[X(C8H7N)]
 Deg. of freedom    42
 Full point group                 C1      NOp   1
 Largest Abelian subgroup         C1      NOp   1
 Largest concise Abelian subgroup C1      NOp   1
                         Standard orientation:                         
 ---------------------------------------------------------------------
 Center     Atomic      Atomic             Coordinates (Angstroms)
 Number     Number       Type             X           Y           Z
 ---------------------------------------------------------------------
      1          6           0       -2.196924    0.647090   -0.000017
      2          6           0       -2.142090   -0.735965    0.000026
      3          6           0       -0.883666   -1.460940    0.000054
      4          6           0        0.258303   -0.656546    0.000018
      5          6           0        0.233617    0.754289   -0.000043
      6          6           0       -1.019209    1.449359   -0.000041
      7          7           0        1.607801   -1.037143    0.000003
      8          6           0        1.580505    1.188089   -0.000109
      9          6           0        2.423985    0.030206    0.000098
     10          1           0        1.922428   -1.996956    0.000186
     11          1           0        1.943079    2.208279   -0.000190
     12          1           0        3.500107   -0.060938    0.000152
     13          1           0       -3.065812   -1.308400    0.000038
     14          1           0       -0.849324   -2.545065   -0.000026
     15          1           0       -3.167425    1.136345   -0.000041
     16          1           0       -1.064785    2.533251   -0.000062
 ---------------------------------------------------------------------
 Rotational constants (GHZ):           3.8485645           1.6080580           1.1341659

 **********************************************************************

            Population analysis using the CI Density.

 **********************************************************************

 Orbital symmetries:
       Occupied  (A) (A) (A) (A) (A) (A) (A) (A) (A) (A) (A) (A)
                 (A) (A) (A) (A) (A) (A) (A) (A) (A) (A) (A) (A)
                 (A) (A) (A) (A) (A) (A) (A)
       Virtual   (A) (A) (A) (A) (A) (A) (A) (A) (A) (A) (A) (A)
                 (A) (A) (A) (A) (A) (A) (A) (A) (A) (A) (A) (A)
                 (A) (A) (A) (A) (A) (A) (A) (A) (A) (A) (A) (A)
                 (A) (A) (A) (A) (A) (A) (A) (A) (A) (A) (A) (A)
                 (A) (A) (A) (A) (A) (A) (A) (A) (A) (A) (A) (A)
                 (A) (A) (A) (A) (A) (A) (A) (A) (A) (A) (A) (A)
                 (A) (A) (A) (A) (A) (A) (A) (A) (A) (A) (A) (A)
                 (A) (A) (A) (A) (A) (A) (A) (A) (A) (A) (A) (A)
                 (A) (A) (A) (A) (A) (A) (A) (A) (A) (A) (A) (A)
                 (A) (A) (A) (A) (A) (A) (A) (A) (A) (A) (A) (A)
                 (A) (A) (A) (A) (A) (A) (A) (A) (A) (A) (A) (A)
                 (A) (A) (A) (A) (A) (A) (A) (A) (A) (A) (A) (A)
                 (A) (A) (A) (A) (A) (A) (A) (A) (A) (A)
 The electronic state is 1-A.
 Alpha  occ. eigenvalues --  -14.71341 -10.50106 -10.49416 -10.47079 -10.46441
 Alpha  occ. eigenvalues --  -10.46087 -10.45939 -10.45579 -10.44847  -1.09104
 Alpha  occ. eigenvalues --   -0.93066  -0.86624  -0.82762  -0.79147  -0.70211
 Alpha  occ. eigenvalues --   -0.66689  -0.64633  -0.60324  -0.54459  -0.53028
 Alpha  occ. eigenvalues --   -0.49238  -0.48630  -0.47768  -0.45539  -0.44416
 Alpha  occ. eigenvalues --   -0.39759  -0.39323  -0.37975  -0.31335  -0.26618
 Alpha  occ. eigenvalues --   -0.22599
 Alpha virt. eigenvalues --   -0.00820   0.00425   0.02477   0.03042   0.04206
 Alpha virt. eigenvalues --    0.04326   0.04544   0.06139   0.06659   0.07068
 Alpha virt. eigenvalues --    0.07154   0.07575   0.09660   0.09969   0.11168
 Alpha virt. eigenvalues --    0.11301   0.12350   0.13740   0.14646   0.15052
 Alpha virt. eigenvalues --    0.16255   0.16383   0.17579   0.17896   0.18774
 Alpha virt. eigenvalues --    0.19431   0.20094   0.20206   0.20973   0.21370
 Alpha virt. eigenvalues --    0.22229   0.22715   0.23235   0.23646   0.24839
 Alpha virt. eigenvalues --    0.24979   0.25262   0.25936   0.26678   0.27554
 Alpha virt. eigenvalues --    0.28507   0.28737   0.30078   0.31232   0.32016
 Alpha virt. eigenvalues --    0.33045   0.33884   0.35404   0.37240   0.38515
 Alpha virt. eigenvalues --    0.40113   0.42065   0.46242   0.48733   0.55122
 Alpha virt. eigenvalues --    0.61974   0.65405   0.71478   0.72618   0.74925
 Alpha virt. eigenvalues --    0.76767   0.77542   0.77878   0.78553   0.79077
 Alpha virt. eigenvalues --    0.80827   0.81860   0.82831   0.84466   0.84547
 Alpha virt. eigenvalues --    0.86185   0.90671   0.94853   0.95821   0.97058
 Alpha virt. eigenvalues --    1.00229   1.00971   1.01745   1.02114   1.04782
 Alpha virt. eigenvalues --    1.05763   1.08629   1.10636   1.12104   1.13718
 Alpha virt. eigenvalues --    1.16141   1.17548   1.21886   1.22336   1.25340
 Alpha virt. eigenvalues --    1.27230   1.27904   1.29492   1.36230   1.37014
 Alpha virt. eigenvalues --    1.39026   1.40752   1.44948   1.45329   1.49054
 Alpha virt. eigenvalues --    1.51690   1.51977   1.53774   1.54714   1.60002
 Alpha virt. eigenvalues --    1.63404   1.68356   1.83802   1.87136   1.93937
 Alpha virt. eigenvalues --    1.94879   1.96056   1.99371   2.05041   2.05593
 Alpha virt. eigenvalues --    2.05692   2.09095   2.12322   2.18137   2.21196
 Alpha virt. eigenvalues --    2.21928   2.25857   2.27415   2.29721   2.33228
 Alpha virt. eigenvalues --    2.33353   2.36758   2.42408   2.45611   2.51769
 Alpha virt. eigenvalues --    2.58627   2.61149   2.67949   2.70086   2.71394
 Alpha virt. eigenvalues --    2.73359   2.79603   2.86040   2.89838   2.91427
 Alpha virt. eigenvalues --    3.01254   3.04219   3.15222   3.30819   3.47012
 Alpha virt. eigenvalues --    4.25151   4.35021   4.38822   4.42142   4.46436
 Alpha virt. eigenvalues --    4.50902   4.58258   4.62398   4.87903
          Condensed to atoms (all electrons):
               1          2          3          4          5          6
     1  C    6.123926   0.045360   0.741305  -0.701715   0.142606  -0.676021
     2  C    0.045360   6.302838  -0.848092   0.463777  -0.643757   1.034940
     3  C    0.741305  -0.848092  12.980406  -0.569966  -4.161033  -3.277262
     4  C   -0.701715   0.463777  -0.569966  12.510845  -4.987658  -1.713443
     5  C    0.142606  -0.643757  -4.161033  -4.987658  15.498569   0.929855
     6  C   -0.676021   1.034940  -3.277262  -1.713443   0.929855  13.191870
     7  N   -0.035359   0.027896  -0.615242  -0.235114   0.978282   0.156256
     8  C    0.206402  -0.408158   2.878824   3.237410  -4.832940  -4.164987
     9  C   -0.114825   0.055612  -0.989490  -1.030862   1.624698   1.018485
    10  H   -0.002683  -0.003559  -0.125026  -0.039821   0.151152   0.016479
    11  H    0.003624   0.001676  -0.001700  -0.057484   0.077385   0.066630
    12  H    0.001597  -0.000669   0.035714   0.096591  -0.134542  -0.012537
    13  H    0.058835   0.241157   0.017850  -0.004571   0.023492  -0.020191
    14  H   -0.009193   0.078760   0.126852   0.139375  -0.018193  -0.000385
    15  H    0.248310   0.045867   0.016692  -0.022397   0.036362  -0.018677
    16  H    0.065484  -0.013582   0.004903  -0.006047   0.134215   0.111609
               7          8          9         10         11         12
     1  C   -0.035359   0.206402  -0.114825  -0.002683   0.003624   0.001597
     2  C    0.027896  -0.408158   0.055612  -0.003559   0.001676  -0.000669
     3  C   -0.615242   2.878824  -0.989490  -0.125026  -0.001700   0.035714
     4  C   -0.235114   3.237410  -1.030862  -0.039821  -0.057484   0.096591
     5  C    0.978282  -4.832940   1.624698   0.151152   0.077385  -0.134542
     6  C    0.156256  -4.164987   1.018485   0.016479   0.066630  -0.012537
     7  N    7.148434  -0.846003   0.631936   0.273862   0.006351  -0.046591
     8  C   -0.846003  11.027908  -1.483348  -0.021899   0.210532   0.129445
     9  C    0.631936  -1.483348   6.255479  -0.001251   0.010250   0.260693
    10  H    0.273862  -0.021899  -0.001251   0.282546  -0.000053  -0.001316
    11  H    0.006351   0.210532   0.010250  -0.000053   0.419749  -0.000145
    12  H   -0.046591   0.129445   0.260693  -0.001316  -0.000145   0.411402
    13  H   -0.000269   0.002552   0.000774  -0.000001  -0.000000  -0.000000
    14  H   -0.004774  -0.005423   0.007992   0.001644   0.000002   0.000001
    15  H    0.000297   0.013935  -0.000365  -0.000000  -0.000001  -0.000000
    16  H   -0.000758   0.016904   0.000823   0.000003   0.000999  -0.000000
              13         14         15         16
     1  C    0.058835  -0.009193   0.248310   0.065484
     2  C    0.241157   0.078760   0.045867  -0.013582
     3  C    0.017850   0.126852   0.016692   0.004903
     4  C   -0.004571   0.139375  -0.022397  -0.006047
     5  C    0.023492  -0.018193   0.036362   0.134215
     6  C   -0.020191  -0.000385  -0.018677   0.111609
     7  N   -0.000269  -0.004774   0.000297  -0.000758
     8  C    0.002552  -0.005423   0.013935   0.016904
     9  C    0.000774   0.007992  -0.000365   0.000823
    10  H   -0.000001   0.001644  -0.000000   0.000003
    11  H   -0.000000   0.000002  -0.000001   0.000999
    12  H   -0.000000   0.000001  -0.000000  -0.000000
    13  H    0.467222  -0.001965  -0.002857  -0.000105
    14  H   -0.001965   0.460039  -0.000099   0.000010
    15  H   -0.002857  -0.000099   0.468414  -0.001877
    16  H   -0.000105   0.000010  -0.001877   0.460276
 Mulliken charges:
               1
     1  C   -0.097653
     2  C   -0.380066
     3  C   -0.214736
     4  C   -1.078920
     5  C    1.181507
     6  C   -0.642623
     7  N   -0.439204
     8  C    0.038849
     9  C   -0.246602
    10  H    0.469924
    11  H    0.262187
    12  H    0.260359
    13  H    0.218078
    14  H    0.225359
    15  H    0.216397
    16  H    0.227145
 Sum of Mulliken charges =  -0.00000
 Mulliken charges with hydrogens summed into heavy atoms:
               1
     1  C    0.118744
     2  C   -0.161988
     3  C    0.010623
     4  C   -1.078920
     5  C    1.181507
     6  C   -0.415478
     7  N    0.030720
     8  C    0.301035
     9  C    0.013757
 Electronic spatial extent (au):  <R**2>=           1025.7692
 Charge=             -0.0000 electrons
 Dipole moment (field-independent basis, Debye):
    X=              4.1916    Y=             -1.2886    Z=             -0.0005  Tot=              4.3852
 Quadrupole moment (field-independent basis, Debye-Ang):
   XX=            -44.5779   YY=            -46.5974   ZZ=            -61.6621
   XY=             -2.1975   XZ=             -0.0003   YZ=              0.0001
 Traceless Quadrupole moment (field-independent basis, Debye-Ang):
   XX=              6.3679   YY=              4.3484   ZZ=            -10.7163
   XY=             -2.1975   XZ=             -0.0003   YZ=              0.0001
 Octapole moment (field-independent basis, Debye-Ang**2):
  XXX=             27.2779  YYY=             -9.1104  ZZZ=             -0.0051  XYY=             15.1664
  XXY=             -7.0039  XXZ=             -0.0018  XZZ=              4.8617  YZZ=             -1.3681
  YYZ=             -0.0043  XYZ=             -0.0008
 Hexadecapole moment (field-independent basis, Debye-Ang**3):
 XXXX=           -844.3023 YYYY=           -398.5239 ZZZZ=            -90.1152 XXXY=            -17.3737
 XXXZ=             -0.0114 YYYX=            -14.2725 YYYZ=              0.0118 ZZZX=             -0.0102
 ZZZY=              0.0148 XXYY=           -198.2912 XXZZ=           -205.4598 YYZZ=           -107.4416
 XXYZ=              0.0020 YYXZ=             -0.0008 ZZXY=             -1.5056
 N-N= 3.976201658749D+02 E-N=-1.636949346597D+03  KE= 3.605789284397D+02
 Unable to Open any file for archive entry.
 1\1\GINC-EXP-1-26\FOpt\RSOGGA11X TD-FC\6-31+G(d)\C8H7N1\SCAPARAS\16-Ju
 n-2021\0\\# td= (nstates=6, root=1) SOGGA11X/6-31+G* Opt density=curre
 nt\\FuncsSOGGA11X-V-1st\\0,1\C,-2.1845154241,0.6867616727,0.000013823\
 C,-2.1536801825,-0.6970360531,0.0000566085\C,-0.9080215417,-1.44373171
 73,0.0000848888\C,0.2477295856,-0.6592678252,0.0000486971\C,0.24751966
 21,0.7517837377,-0.0000122853\C,-0.9930606221,1.4684805062,-0.00001070
 98\N,1.5904219934,-1.0632165894,0.0000336911\C,1.6017304171,1.16215406
 69,-0.0000784256\C,2.4249975964,-0.0101858973,0.0001281657\H,1.8883527
 255,-2.0283427658,0.0002167191\H,1.9819466072,2.1759012316,-0.00015909
 71\H,3.4993771619,-0.1199827955,0.0001824018\H,-3.0871929891,-1.253361
 9108,0.0000688459\H,-0.892490812,-2.5282884703,0.0000047121\H,-3.14638
 3228,1.1927786211,-0.0000106861\H,-1.0198279496,2.5530001884,-0.000031
 349\\Version=AS64L-G16RevC.01\State=1-A\HF=-363.7186421\RMSD=6.470e-09
 \RMSF=4.364e-05\Dipole=1.6491169,-0.5069576,-0.000207\Quadrupole=4.734
 3939,3.2329138,-7.9673077,-1.6337707,-0.0002284,0.0001017\PG=C01 [X(C8
 H7N1)]\\@
 The archive entry for this job was punched.


 EDUCATION WITHOUT COMMON SENSE IS A LOAD OF BOOKS ON THE BACK OF AN ASS.
 Job cpu time:       0 days  2 hours  3 minutes 34.3 seconds.
 Elapsed time:       0 days  0 hours 32 minutes 12.1 seconds.
 File lengths (MBytes):  RWF=    238 Int=      0 D2E=      0 Chk=     11 Scr=      1
 Normal termination of Gaussian 16 at Wed Jun 16 10:43:05 2021.
