 Entering Gaussian System, Link 0=/cm/shared/apps/spack/cpu/opt/spack/linux-centos8-zen/gcc-8.3.1/gaussian-16.C.01-po5bqktfeugvmjyga3v7eigbecnokxng/g16/g16
 Initial command:
 /cm/shared/apps/spack/cpu/opt/spack/linux-centos8-zen/gcc-8.3.1/gaussian-16.C.01-po5bqktfeugvmjyga3v7eigbecnokxng/g16/l1.exe "/scratch/scaparas/job_3445989/Gau-89485.inp" -scrdir="/scratch/scaparas/job_3445989/"
 Entering Link 1 = /cm/shared/apps/spack/cpu/opt/spack/linux-centos8-zen/gcc-8.3.1/gaussian-16.C.01-po5bqktfeugvmjyga3v7eigbecnokxng/g16/l1.exe PID=     89486.
  
 Copyright (c) 1988-2019, Gaussian, Inc.  All Rights Reserved.
  
 This is part of the Gaussian(R) 16 program.  It is based on
 the Gaussian(R) 09 system (copyright 2009, Gaussian, Inc.),
 the Gaussian(R) 03 system (copyright 2003, Gaussian, Inc.),
 the Gaussian(R) 98 system (copyright 1998, Gaussian, Inc.),
 the Gaussian(R) 94 system (copyright 1995, Gaussian, Inc.),
 the Gaussian 92(TM) system (copyright 1992, Gaussian, Inc.),
 the Gaussian 90(TM) system (copyright 1990, Gaussian, Inc.),
 the Gaussian 88(TM) system (copyright 1988, Gaussian, Inc.),
 the Gaussian 86(TM) system (copyright 1986, Carnegie Mellon
 University), and the Gaussian 82(TM) system (copyright 1983,
 Carnegie Mellon University). Gaussian is a federally registered
 trademark of Gaussian, Inc.
  
 This software contains proprietary and confidential information,
 including trade secrets, belonging to Gaussian, Inc.
  
 This software is provided under written license and may be
 used, copied, transmitted, or stored only in accord with that
 written license.
  
 The following legend is applicable only to US Government
 contracts under FAR:
  
                    RESTRICTED RIGHTS LEGEND
  
 Use, reproduction and disclosure by the US Government is
 subject to restrictions as set forth in subparagraphs (a)
 and (c) of the Commercial Computer Software - Restricted
 Rights clause in FAR 52.227-19.
  
 Gaussian, Inc.
 340 Quinnipiac St., Bldg. 40, Wallingford CT 06492
  
  
 ---------------------------------------------------------------
 Warning -- This program may not be used in any manner that
 competes with the business of Gaussian, Inc. or will provide
 assistance to any competitor of Gaussian, Inc.  The licensee
 of this program is prohibited from giving any competitor of
 Gaussian, Inc. access to this program.  By using this program,
 the user acknowledges that Gaussian, Inc. is engaged in the
 business of creating and licensing software in the field of
 computational chemistry and represents and warrants to the
 licensee that it is not a competitor of Gaussian, Inc. and that
 it will not use this program in any manner prohibited above.
 ---------------------------------------------------------------
  

 Cite this work as:
 Gaussian 16, Revision C.01,
 M. J. Frisch, G. W. Trucks, H. B. Schlegel, G. E. Scuseria, 
 M. A. Robb, J. R. Cheeseman, G. Scalmani, V. Barone, 
 G. A. Petersson, H. Nakatsuji, X. Li, M. Caricato, A. V. Marenich, 
 J. Bloino, B. G. Janesko, R. Gomperts, B. Mennucci, H. P. Hratchian, 
 J. V. Ortiz, A. F. Izmaylov, J. L. Sonnenberg, D. Williams-Young, 
 F. Ding, F. Lipparini, F. Egidi, J. Goings, B. Peng, A. Petrone, 
 T. Henderson, D. Ranasinghe, V. G. Zakrzewski, J. Gao, N. Rega, 
 G. Zheng, W. Liang, M. Hada, M. Ehara, K. Toyota, R. Fukuda, 
 J. Hasegawa, M. Ishida, T. Nakajima, Y. Honda, O. Kitao, H. Nakai, 
 T. Vreven, K. Throssell, J. A. Montgomery, Jr., J. E. Peralta, 
 F. Ogliaro, M. J. Bearpark, J. J. Heyd, E. N. Brothers, K. N. Kudin, 
 V. N. Staroverov, T. A. Keith, R. Kobayashi, J. Normand, 
 K. Raghavachari, A. P. Rendell, J. C. Burant, S. S. Iyengar, 
 J. Tomasi, M. Cossi, J. M. Millam, M. Klene, C. Adamo, R. Cammi, 
 J. W. Ochterski, R. L. Martin, K. Morokuma, O. Farkas, 
 J. B. Foresman, and D. J. Fox, Gaussian, Inc., Wallingford CT, 2019.
 
 ******************************************
 Gaussian 16:  AS64L-G16RevC.01  3-Jul-2019
                16-Jun-2021 
 ******************************************
 %nprocshared=4
 Will use up to    4 processors via shared memory.
 %chk=FuncsLC-BLYP-V-3rd.chk
 %Mem=3GB
 -------------------------------------------------------------
 # td= (nstates=6, root=3) LC-BLYP/6-31+G* Opt density=current
 -------------------------------------------------------------
 1/18=20,19=15,26=3,38=1/1,3;
 2/9=110,12=2,17=6,18=5,40=1/2;
 3/5=1,6=6,7=11,11=9,25=1,30=1,71=1,74=1000402/1,2,3,8;
 4//1;
 5/5=2,38=5/2;
 8/6=1,10=2,107=3,108=6/1;
 9/8=3,15=2,41=6,42=1,70=2/14;
 10/5=4,28=3/2;
 6/7=2,8=2,9=2,10=2,22=-1/1;
 7/12=6,13=5,14=3/1,2,3,16;
 1/18=20,19=15,26=3/3(2);
 2/9=110/2;
 99//99;
 2/9=110/2;
 3/5=1,6=6,7=11,11=9,25=1,30=1,71=1,74=1000402/1,2,3,8;
 4/5=5,16=3,69=1/1;
 5/5=2,38=5/2;
 8/6=1,10=2,107=3,108=6/1;
 9/8=3,15=2,41=6,42=1,49=4,70=2/14;
 10/5=4,28=3/2;
 7/12=6,13=5,14=3/1,2,3,16;
 1/18=20,19=15,26=3/3(-8);
 2/9=110/2;
 6/7=2,8=2,9=2,10=2,22=-1/1;
 99/9=10/99;
 ------------------
 FuncsLC-BLYP-V-3rd
 ------------------
 Symbolic Z-matrix:
 Charge =  0 Multiplicity = 1
 C                    -2.15106   0.68921   0.00009 
 C                    -2.12793  -0.71582   0.00008 
 C                    -0.9323   -1.4131   -0.00001 
 C                     0.24691  -0.6702   -0.00004 
 C                     0.24819   0.7483    0. 
 C                    -0.97947   1.42353   0.00003 
 N                     1.56177  -1.07759  -0.00029 
 C                     1.62013   1.1629   -0.00016 
 C                     2.38201   0.03081   0.00025 
 H                     1.87632  -2.03001   0.00044 
 H                     1.99217   2.17301  -0.00035 
 H                     3.45255  -0.08243   0.00041 
 H                    -3.06159  -1.26202   0.00009 
 H                    -0.91725  -2.49534  -0.00007 
 H                    -3.1042    1.20079   0.00009 
 H                    -1.00935   2.50542  -0.00002 
 

 GradGradGradGradGradGradGradGradGradGradGradGradGradGradGradGradGradGrad
 Berny optimization.
 Initialization pass.
                           ----------------------------
                           !    Initial Parameters    !
                           ! (Angstroms and Degrees)  !
 --------------------------                            --------------------------
 ! Name  Definition              Value          Derivative Info.                !
 --------------------------------------------------------------------------------
 ! R1    R(1,2)                  1.4052         estimate D2E/DX2                !
 ! R2    R(1,6)                  1.3827         estimate D2E/DX2                !
 ! R3    R(1,15)                 1.0818         estimate D2E/DX2                !
 ! R4    R(2,3)                  1.3841         estimate D2E/DX2                !
 ! R5    R(2,13)                 1.0817         estimate D2E/DX2                !
 ! R6    R(3,4)                  1.3937         estimate D2E/DX2                !
 ! R7    R(3,14)                 1.0823         estimate D2E/DX2                !
 ! R8    R(4,5)                  1.4185         estimate D2E/DX2                !
 ! R9    R(4,7)                  1.3765         estimate D2E/DX2                !
 ! R10   R(5,6)                  1.4011         estimate D2E/DX2                !
 ! R11   R(5,8)                  1.4332         estimate D2E/DX2                !
 ! R12   R(6,16)                 1.0823         estimate D2E/DX2                !
 ! R13   R(7,9)                  1.3789         estimate D2E/DX2                !
 ! R14   R(7,10)                 1.003          estimate D2E/DX2                !
 ! R15   R(8,9)                  1.3646         estimate D2E/DX2                !
 ! R16   R(8,11)                 1.0764         estimate D2E/DX2                !
 ! R17   R(9,12)                 1.0765         estimate D2E/DX2                !
 ! A1    A(2,1,6)              121.1349         estimate D2E/DX2                !
 ! A2    A(2,1,15)             119.1671         estimate D2E/DX2                !
 ! A3    A(6,1,15)             119.698          estimate D2E/DX2                !
 ! A4    A(1,2,3)              121.1938         estimate D2E/DX2                !
 ! A5    A(1,2,13)             119.3846         estimate D2E/DX2                !
 ! A6    A(3,2,13)             119.4217         estimate D2E/DX2                !
 ! A7    A(2,3,4)              117.5387         estimate D2E/DX2                !
 ! A8    A(2,3,14)             121.0469         estimate D2E/DX2                !
 ! A9    A(4,3,14)             121.4144         estimate D2E/DX2                !
 ! A10   A(3,4,5)              122.2626         estimate D2E/DX2                !
 ! A11   A(3,4,7)              130.5743         estimate D2E/DX2                !
 ! A12   A(5,4,7)              107.163          estimate D2E/DX2                !
 ! A13   A(4,5,6)              118.7594         estimate D2E/DX2                !
 ! A14   A(4,5,8)              106.8666         estimate D2E/DX2                !
 ! A15   A(6,5,8)              134.374          estimate D2E/DX2                !
 ! A16   A(1,6,5)              119.1105         estimate D2E/DX2                !
 ! A17   A(1,6,16)             120.4966         estimate D2E/DX2                !
 ! A18   A(5,6,16)             120.3928         estimate D2E/DX2                !
 ! A19   A(4,7,9)              109.2874         estimate D2E/DX2                !
 ! A20   A(4,7,10)             125.4909         estimate D2E/DX2                !
 ! A21   A(9,7,10)             125.2217         estimate D2E/DX2                !
 ! A22   A(5,8,9)              107.125          estimate D2E/DX2                !
 ! A23   A(5,8,11)             127.0344         estimate D2E/DX2                !
 ! A24   A(9,8,11)             125.8405         estimate D2E/DX2                !
 ! A25   A(7,9,8)              109.5578         estimate D2E/DX2                !
 ! A26   A(7,9,12)             120.4645         estimate D2E/DX2                !
 ! A27   A(8,9,12)             129.9776         estimate D2E/DX2                !
 ! D1    D(6,1,2,3)             -0.0008         estimate D2E/DX2                !
 ! D2    D(6,1,2,13)          -179.9981         estimate D2E/DX2                !
 ! D3    D(15,1,2,3)           179.996          estimate D2E/DX2                !
 ! D4    D(15,1,2,13)           -0.0013         estimate D2E/DX2                !
 ! D5    D(2,1,6,5)             -0.0018         estimate D2E/DX2                !
 ! D6    D(2,1,6,16)           179.9965         estimate D2E/DX2                !
 ! D7    D(15,1,6,5)          -179.9986         estimate D2E/DX2                !
 ! D8    D(15,1,6,16)           -0.0003         estimate D2E/DX2                !
 ! D9    D(1,2,3,4)              0.002          estimate D2E/DX2                !
 ! D10   D(1,2,3,14)          -179.9968         estimate D2E/DX2                !
 ! D11   D(13,2,3,4)           179.9992         estimate D2E/DX2                !
 ! D12   D(13,2,3,14)            0.0005         estimate D2E/DX2                !
 ! D13   D(2,3,4,5)             -0.0005         estimate D2E/DX2                !
 ! D14   D(2,3,4,7)           -179.9911         estimate D2E/DX2                !
 ! D15   D(14,3,4,5)           179.9982         estimate D2E/DX2                !
 ! D16   D(14,3,4,7)             0.0076         estimate D2E/DX2                !
 ! D17   D(3,4,5,6)             -0.002          estimate D2E/DX2                !
 ! D18   D(3,4,5,8)           -179.9955         estimate D2E/DX2                !
 ! D19   D(7,4,5,6)            179.9905         estimate D2E/DX2                !
 ! D20   D(7,4,5,8)             -0.003          estimate D2E/DX2                !
 ! D21   D(3,4,7,9)           -179.98           estimate D2E/DX2                !
 ! D22   D(3,4,7,10)            -0.0649         estimate D2E/DX2                !
 ! D23   D(5,4,7,9)              0.0284         estimate D2E/DX2                !
 ! D24   D(5,4,7,10)           179.9434         estimate D2E/DX2                !
 ! D25   D(4,5,6,1)              0.0031         estimate D2E/DX2                !
 ! D26   D(4,5,6,16)          -179.9951         estimate D2E/DX2                !
 ! D27   D(8,5,6,1)            179.9944         estimate D2E/DX2                !
 ! D28   D(8,5,6,16)            -0.0038         estimate D2E/DX2                !
 ! D29   D(4,5,8,9)             -0.0234         estimate D2E/DX2                !
 ! D30   D(4,5,8,11)           179.9883         estimate D2E/DX2                !
 ! D31   D(6,5,8,9)            179.9846         estimate D2E/DX2                !
 ! D32   D(6,5,8,11)            -0.0037         estimate D2E/DX2                !
 ! D33   D(4,7,9,8)             -0.0444         estimate D2E/DX2                !
 ! D34   D(4,7,9,12)           179.9847         estimate D2E/DX2                !
 ! D35   D(10,7,9,8)          -179.9597         estimate D2E/DX2                !
 ! D36   D(10,7,9,12)            0.0693         estimate D2E/DX2                !
 ! D37   D(5,8,9,7)              0.0414         estimate D2E/DX2                !
 ! D38   D(5,8,9,12)          -179.9913         estimate D2E/DX2                !
 ! D39   D(11,8,9,7)          -179.9702         estimate D2E/DX2                !
 ! D40   D(11,8,9,12)           -0.0029         estimate D2E/DX2                !
 --------------------------------------------------------------------------------
 Trust Radius=3.00D-01 FncErr=1.00D-07 GrdErr=1.00D-06 EigMax=2.50D+02 EigMin=1.00D-04
 Number of steps in this run=     94 maximum allowed number of steps=    100.
 GradGradGradGradGradGradGradGradGradGradGradGradGradGradGradGradGradGrad

                          Input orientation:                          
 ---------------------------------------------------------------------
 Center     Atomic      Atomic             Coordinates (Angstroms)
 Number     Number       Type             X           Y           Z
 ---------------------------------------------------------------------
      1          6           0       -2.151063    0.689208    0.000088
      2          6           0       -2.127927   -0.715818    0.000075
      3          6           0       -0.932297   -1.413100   -0.000011
      4          6           0        0.246911   -0.670201   -0.000042
      5          6           0        0.248193    0.748299    0.000000
      6          6           0       -0.979474    1.423526    0.000032
      7          7           0        1.561774   -1.077592   -0.000285
      8          6           0        1.620133    1.162900   -0.000157
      9          6           0        2.382013    0.030806    0.000248
     10          1           0        1.876315   -2.030011    0.000438
     11          1           0        1.992173    2.173010   -0.000348
     12          1           0        3.452549   -0.082425    0.000408
     13          1           0       -3.061594   -1.262020    0.000088
     14          1           0       -0.917252   -2.495342   -0.000073
     15          1           0       -3.104203    1.200785    0.000090
     16          1           0       -1.009348    2.505421   -0.000015
 ---------------------------------------------------------------------
                    Distance matrix (angstroms):
                    1          2          3          4          5
     1  C    0.000000
     2  C    1.405216   0.000000
     3  C    2.430039   1.384100   0.000000
     4  C    2.756496   2.375276   1.393711   0.000000
     5  C    2.399984   2.790983   2.462763   1.418501   0.000000
     6  C    1.382694   2.428114   2.837018   2.426461   1.401106
     7  N    4.111781   3.707395   2.516536   1.376529   2.249305
     8  C    3.800829   4.192557   3.626386   2.290414   1.433218
     9  C    4.580641   4.571324   3.615178   2.247236   2.251218
    10  H    4.859416   4.214387   2.875566   2.122273   3.220216
    11  H    4.400917   5.031953   4.627387   3.336134   2.251948
    12  H    5.656491   5.616307   4.582311   3.259079   3.310287
    13  H    2.153220   1.081698   2.134650   3.361020   3.872476
    14  H    3.415208   2.152310   1.082347   2.164813   3.446661
    15  H    1.081752   2.150926   3.398466   3.838040   3.382795
    16  H    2.145261   3.409927   3.919278   3.415079   2.160761
                    6          7          8          9         10
     6  C    0.000000
     7  N    3.565604   0.000000
     8  C    2.612639   2.241252   0.000000
     9  C    3.638580   1.378890   1.364587   0.000000
    10  H    4.481345   1.003015   3.203172   2.121956   0.000000
    11  H    3.064704   3.278972   1.076446   2.177387   4.204618
    12  H    4.680888   2.136677   2.215532   1.076508   2.505515
    13  H    3.398144   4.627045   5.272457   5.595021   4.997275
    14  H    3.919362   2.855798   4.452085   4.155307   2.832058
    15  H    2.136372   5.192528   4.724488   5.609583   5.936632
    16  H    1.082307   4.410062   2.952378   4.198220   5.375611
                   11         12         13         14         15
    11  H    0.000000
    12  H    2.686947   0.000000
    13  H    6.110646   6.620083   0.000000
    14  H    5.500751   4.991726   2.473719   0.000000
    15  H    5.188282   6.681139   2.463174   4.294661   0.000000
    16  H    3.019872   5.158049   4.290143   5.001611   2.467892
                   16
    16  H    0.000000
 Stoichiometry    C8H7N
 Framework group  C1[X(C8H7N)]
 Deg. of freedom    42
 Full point group                 C1      NOp   1
 Largest Abelian subgroup         C1      NOp   1
 Largest concise Abelian subgroup C1      NOp   1
                         Standard orientation:                         
 ---------------------------------------------------------------------
 Center     Atomic      Atomic             Coordinates (Angstroms)
 Number     Number       Type             X           Y           Z
 ---------------------------------------------------------------------
      1          6           0       -2.151063    0.689208    0.000088
      2          6           0       -2.127927   -0.715818    0.000075
      3          6           0       -0.932297   -1.413100   -0.000011
      4          6           0        0.246911   -0.670201   -0.000042
      5          6           0        0.248193    0.748299    0.000000
      6          6           0       -0.979474    1.423526    0.000032
      7          7           0        1.561774   -1.077592   -0.000285
      8          6           0        1.620133    1.162900   -0.000157
      9          6           0        2.382013    0.030806    0.000248
     10          1           0        1.876315   -2.030011    0.000438
     11          1           0        1.992173    2.173010   -0.000348
     12          1           0        3.452549   -0.082425    0.000408
     13          1           0       -3.061594   -1.262020    0.000088
     14          1           0       -0.917252   -2.495342   -0.000073
     15          1           0       -3.104203    1.200785    0.000090
     16          1           0       -1.009348    2.505421   -0.000015
 ---------------------------------------------------------------------
 Rotational constants (GHZ):           3.9080822           1.6429452           1.1566805
 Standard basis: 6-31+G(d) (6D, 7F)
 There are   185 symmetry adapted cartesian basis functions of A   symmetry.
 There are   185 symmetry adapted basis functions of A   symmetry.
   185 basis functions,   316 primitive gaussians,   185 cartesian basis functions
    31 alpha electrons       31 beta electrons
       nuclear repulsion energy       401.3368668897 Hartrees.
 NAtoms=   16 NActive=   16 NUniq=   16 SFac= 1.00D+00 NAtFMM=   60 NAOKFM=F Big=F
 Integral buffers will be    131072 words long.
 Raffenetti 1 integral format.
 Two-electron integral symmetry is turned on.
 One-electron integrals computed using PRISM.
 NBasis=   185 RedAO= T EigKep=  1.26D-06  NBF=   185
 NBsUse=   185 1.00D-06 EigRej= -1.00D+00 NBFU=   185
 ExpMin= 4.38D-02 ExpMax= 4.17D+03 ExpMxC= 6.27D+02 IAcc=3 IRadAn=         5 AccDes= 0.00D+00
 Harris functional with IExCor=10402 and IRadAn=       5 diagonalized for initial guess.
 HarFok:  IExCor=10402 AccDes= 0.00D+00 IRadAn=         5 IDoV= 1 UseB2=F ITyADJ=14
 ICtDFT=  3500011 ScaDFX=  1.000000  1.000000  1.000000  1.000000
 FoFCou: FMM=F IPFlag=           0 FMFlag=      100000 FMFlg1=           0
         NFxFlg=           0 DoJE=T BraDBF=F KetDBF=T FulRan=T
         wScrn=  0.000000 ICntrl=       500 IOpCl=  0 I1Cent=   200000004 NGrid=           0
         NMat0=    1 NMatS0=      1 NMatT0=    0 NMatD0=    1 NMtDS0=    0 NMtDT0=    0
 Petite list used in FoFCou.
 Keep R1 ints in memory in canonical form, NReq=303303409.
 Requested convergence on RMS density matrix=1.00D-08 within 128 cycles.
 Requested convergence on MAX density matrix=1.00D-06.
 Requested convergence on             energy=1.00D-06.
 No special actions if energy rises.
 SCF Done:  E(RLC-B+HF-LYP) =  -362.735201154     A.U. after   16 cycles
            NFock= 16  Conv=0.49D-08     -V/T= 2.0089
 DoSCS=F DFT=T ScalE2(SS,OS)=  1.000000  1.000000
 ExpMin= 4.38D-02 ExpMax= 4.17D+03 ExpMxC= 6.27D+02 IAcc=3 IRadAn=         5 AccDes= 0.00D+00
 HarFok:  IExCor=  205 AccDes= 0.00D+00 IRadAn=         5 IDoV=-2 UseB2=F ITyADJ=14
 ICtDFT= 12500011 ScaDFX=  1.000000  1.000000  1.000000  1.000000
 Range of M.O.s used for correlation:    10   185
 NBasis=   185 NAE=    31 NBE=    31 NFC=     9 NFV=     0
 NROrb=    176 NOA=    22 NOB=    22 NVA=   154 NVB=   154

 **** Warning!!: The largest alpha MO coefficient is  0.21393289D+03

 Orbital symmetries:
       Occupied  (A) (A) (A) (A) (A) (A) (A) (A) (A) (A) (A) (A)
                 (A) (A) (A) (A) (A) (A) (A) (A) (A) (A) (A) (A)
                 (A) (A) (A) (A) (A) (A) (A)
       Virtual   (A) (A) (A) (A) (A) (A) (A) (A) (A) (A) (A) (A)
                 (A) (A) (A) (A) (A) (A) (A) (A) (A) (A) (A) (A)
                 (A) (A) (A) (A) (A) (A) (A) (A) (A) (A) (A) (A)
                 (A) (A) (A) (A) (A) (A) (A) (A) (A) (A) (A) (A)
                 (A) (A) (A) (A) (A) (A) (A) (A) (A) (A) (A) (A)
                 (A) (A) (A) (A) (A) (A) (A) (A) (A) (A) (A) (A)
                 (A) (A) (A) (A) (A) (A) (A) (A) (A) (A) (A) (A)
                 (A) (A) (A) (A) (A) (A) (A) (A) (A) (A) (A) (A)
                 (A) (A) (A) (A) (A) (A) (A) (A) (A) (A) (A) (A)
                 (A) (A) (A) (A) (A) (A) (A) (A) (A) (A) (A) (A)
                 (A) (A) (A) (A) (A) (A) (A) (A) (A) (A) (A) (A)
                 (A) (A) (A) (A) (A) (A) (A) (A) (A) (A) (A) (A)
                 (A) (A) (A) (A) (A) (A) (A) (A) (A) (A)
    24 initial guesses have been made.
 Convergence on wavefunction:    0.000001000000000
 Iteration     1 Dimension    24 NMult     0 NNew     24
 CISAX will form    24 AO SS matrices at one time.
 New state      1 was old state      6
 New state      3 was old state      1
 New state      4 was old state      3
 New state      6 was old state      4
 Iteration     2 Dimension    36 NMult    24 NNew     12
 Iteration     3 Dimension    48 NMult    36 NNew     12
 Iteration     4 Dimension    60 NMult    48 NNew     12
 Iteration     5 Dimension    72 NMult    60 NNew     12
 Iteration     6 Dimension    84 NMult    72 NNew     12
 Iteration     7 Dimension    96 NMult    84 NNew     12
 Iteration     8 Dimension   108 NMult    96 NNew     12
 Iteration     9 Dimension   120 NMult   108 NNew     12
 Iteration    10 Dimension   132 NMult   120 NNew     12
 Iteration    11 Dimension   140 NMult   132 NNew      8
 Iteration    12 Dimension   144 NMult   140 NNew      4
 Iteration    13 Dimension   148 NMult   144 NNew      4
 Iteration    14 Dimension   150 NMult   148 NNew      2
 Iteration    15 Dimension   152 NMult   150 NNew      2
 ***********************************************************************
 Excited states from <AA,BB:AA,BB> singles matrix:
 ***********************************************************************
 
 Ground to excited state transition densities written to RWF  633
 Ground to excited state transition electric dipole moments (Au):
       state          X           Y           Z        Dip. S.      Osc.
         1        -0.4569     -0.3396     -0.0001      0.3241      0.0415
         2        -0.8170      0.6486     -0.0002      1.0882      0.1431
         3         0.0004     -0.0003     -0.1765      0.0312      0.0045
         4        -0.0011     -0.0004     -0.2031      0.0413      0.0064
         5         0.0018      0.0005     -0.0227      0.0005      0.0001
         6         0.0147      0.0053      0.1032      0.0109      0.0017
 Ground to excited state transition velocity dipole moments (Au):
       state          X           Y           Z        Dip. S.      Osc.
         1         0.0840      0.0685      0.0000      0.0118      0.0408
         2         0.1483     -0.1350      0.0000      0.0402      0.1360
         3        -0.0001      0.0001      0.0276      0.0008      0.0024
         4         0.0002      0.0001      0.0485      0.0024      0.0068
         5        -0.0004     -0.0001      0.0059      0.0000      0.0001
         6        -0.0034     -0.0013     -0.0260      0.0007      0.0019
 Ground to excited state transition magnetic dipole moments (Au):
       state          X           Y           Z
         1        -0.0001     -0.0002     -0.1476
         2         0.0003     -0.0002      0.0879
         3         0.1493     -0.1259     -0.0002
         4         0.1294     -0.4096     -0.0005
         5         0.1697     -0.4031      0.0007
         6         0.4253      0.2659      0.0084
 Ground to excited state transition velocity quadrupole moments (Au):
       state          XX          YY          ZZ          XY          XZ          YZ
         1        -0.0011     -0.0919      0.0175     -0.0200      0.0001     -0.0001
         2         0.2922     -0.1896      0.0177     -0.0433      0.0002      0.0001
         3        -0.0002      0.0001      0.0001     -0.0001      0.1103      0.0778
         4         0.0001     -0.0000      0.0000     -0.0003      0.3164      0.0814
         5        -0.0005      0.0003     -0.0000      0.0005      0.4412      0.2381
         6        -0.0010      0.0011      0.0005      0.0057     -0.1687      0.3087
 <0|del|b> * <b|rxdel|0> + <0|del|b> * <b|delr+rdel|0>
 Rotatory Strengths (R) in cgs (10**-40 erg-esu-cm/Gauss)
       state          XX          YY          ZZ    R(velocity)    E-M Angle
         1        -0.0390     -0.0354     -0.0259     -0.0334       90.00
         2         0.1077      0.1106      0.0565      0.0916       90.00
         3        -0.0415     -0.0283     -0.0099     -0.0266       90.00
         4        -0.1639      0.0593      0.0049     -0.0333       90.00
         5         0.1661     -0.2531      0.0358     -0.0171       90.00
         6        -1.3450     -3.7783     -0.7644     -1.9625       98.75
 1/2[<0|r|b>*<b|rxdel|0> + (<0|rxdel|b>*<b|r|0>)*]
 Rotatory Strengths (R) in cgs (10**-40 erg-esu-cm/Gauss)
       state          XX          YY          ZZ     R(length)
         1        -0.0467     -0.0457     -0.0071     -0.0331
         2         0.1668      0.1038      0.0141      0.0949
         3        -0.0398     -0.0309     -0.0204     -0.0304
         4         0.0998     -0.1241     -0.0782     -0.0341
         5        -0.2177      0.1393      0.0118     -0.0222
         6        -4.4078     -1.0049     -0.6133     -2.0087
  1/2[<0|del|b>*<b|r|0> + (<0|r|b>*<b|del|0>)*] (Au)
       state          X           Y           Z        Dip. S.   Osc.(frdel)
         1        -0.0384     -0.0233     -0.0000      0.0617      0.0411
         2        -0.1212     -0.0876     -0.0000      0.2088      0.1392
         3        -0.0000     -0.0000     -0.0049      0.0049      0.0032
         4        -0.0000     -0.0000     -0.0099      0.0099      0.0066
         5        -0.0000     -0.0000     -0.0001      0.0001      0.0001
         6        -0.0000     -0.0000     -0.0027      0.0027      0.0018

 Excitation energies and oscillator strengths:
 
 Excited State   1:      Singlet-A      5.2259 eV  237.25 nm  f=0.0415  <S**2>=0.000
      30 -> 33         0.57563
      31 -> 38        -0.32510
 
 Excited State   2:      Singlet-A      5.3657 eV  231.07 nm  f=0.1431  <S**2>=0.000
      30 -> 38         0.23097
      31 -> 33         0.64149
 
 Excited State   3:      Singlet-A      5.8337 eV  212.53 nm  f=0.0045  <S**2>=0.000
      29 -> 32         0.11352
      31 -> 32         0.65359
      31 -> 40         0.12280
 This state for optimization and/or second-order correction.
 Total Energy, E(TD-HF/TD-DFT) =  -362.520816139    
 Copying the excited state density for this state as the 1-particle RhoCI density.
 
 Excited State   4:      Singlet-A      6.3198 eV  196.18 nm  f=0.0064  <S**2>=0.000
      27 -> 32        -0.10773
      30 -> 32         0.56991
      30 -> 34        -0.11017
      30 -> 40         0.13613
      31 -> 34         0.26682
      31 -> 35        -0.13367
 
 Excited State   5:      Singlet-A      6.5186 eV  190.20 nm  f=0.0001  <S**2>=0.000
      30 -> 32        -0.27469
      30 -> 34         0.12127
      31 -> 34         0.50260
      31 -> 35        -0.29665
 
 Excited State   6:      Singlet-A      6.5528 eV  189.21 nm  f=0.0017  <S**2>=0.000
      31 -> 34         0.31229
      31 -> 35         0.52837
      31 -> 36         0.11897
      31 -> 42         0.17116
 SavETr:  write IOETrn=   770 NScale= 10 NData=  16 NLR=1 NState=    6 LETran=     118.
          IDoAtm=1111111111111111
          Differentiating once with respect to electric field.
                with respect to dipole field.
          Differentiating once with respect to nuclear coordinates.
 Keep R1 ints in memory in canonical form, NReq=303315801.
          There are     1 degrees of freedom in the 1st order CPHF.  IDoFFX=0 NUNeed=     1.
 LinEq1:  Iter=  0 NonCon=     1 RMS=7.72D-03 Max=1.07D-01 NDo=     1
 AX will form     1 AO Fock derivatives at one time.
 LinEq1:  Iter=  1 NonCon=     1 RMS=2.50D-03 Max=5.70D-02 NDo=     1
 LinEq1:  Iter=  2 NonCon=     1 RMS=1.22D-03 Max=3.90D-02 NDo=     1
 LinEq1:  Iter=  3 NonCon=     1 RMS=4.83D-04 Max=1.35D-02 NDo=     1
 LinEq1:  Iter=  4 NonCon=     1 RMS=1.76D-04 Max=3.77D-03 NDo=     1
 LinEq1:  Iter=  5 NonCon=     1 RMS=8.85D-05 Max=2.36D-03 NDo=     1
 LinEq1:  Iter=  6 NonCon=     1 RMS=3.12D-05 Max=6.17D-04 NDo=     1
 LinEq1:  Iter=  7 NonCon=     1 RMS=1.75D-05 Max=4.11D-04 NDo=     1
 LinEq1:  Iter=  8 NonCon=     1 RMS=6.20D-06 Max=8.71D-05 NDo=     1
 LinEq1:  Iter=  9 NonCon=     1 RMS=1.56D-06 Max=4.42D-05 NDo=     1
 LinEq1:  Iter= 10 NonCon=     1 RMS=6.44D-07 Max=8.22D-06 NDo=     1
 LinEq1:  Iter= 11 NonCon=     1 RMS=2.13D-07 Max=6.60D-06 NDo=     1
 LinEq1:  Iter= 12 NonCon=     1 RMS=1.01D-07 Max=3.28D-06 NDo=     1
 LinEq1:  Iter= 13 NonCon=     1 RMS=4.37D-08 Max=7.77D-07 NDo=     1
 LinEq1:  Iter= 14 NonCon=     1 RMS=1.31D-08 Max=2.77D-07 NDo=     1
 LinEq1:  Iter= 15 NonCon=     1 RMS=3.31D-09 Max=6.23D-08 NDo=     1
 LinEq1:  Iter= 16 NonCon=     1 RMS=1.45D-09 Max=2.03D-08 NDo=     1
 LinEq1:  Iter= 17 NonCon=     1 RMS=3.19D-10 Max=5.11D-09 NDo=     1
 LinEq1:  Iter= 18 NonCon=     0 RMS=7.69D-11 Max=7.78D-10 NDo=     1
 Linear equations converged to 1.000D-10 1.000D-09 after    18 iterations.
 End of Minotr F.D. properties file   721 does not exist.
 End of Minotr F.D. properties file   722 does not exist.
 End of Minotr F.D. properties file   788 does not exist.

 **********************************************************************

            Population analysis using the CI Density.

 **********************************************************************

 Orbital symmetries:
       Occupied  (A) (A) (A) (A) (A) (A) (A) (A) (A) (A) (A) (A)
                 (A) (A) (A) (A) (A) (A) (A) (A) (A) (A) (A) (A)
                 (A) (A) (A) (A) (A) (A) (A)
       Virtual   (A) (A) (A) (A) (A) (A) (A) (A) (A) (A) (A) (A)
                 (A) (A) (A) (A) (A) (A) (A) (A) (A) (A) (A) (A)
                 (A) (A) (A) (A) (A) (A) (A) (A) (A) (A) (A) (A)
                 (A) (A) (A) (A) (A) (A) (A) (A) (A) (A) (A) (A)
                 (A) (A) (A) (A) (A) (A) (A) (A) (A) (A) (A) (A)
                 (A) (A) (A) (A) (A) (A) (A) (A) (A) (A) (A) (A)
                 (A) (A) (A) (A) (A) (A) (A) (A) (A) (A) (A) (A)
                 (A) (A) (A) (A) (A) (A) (A) (A) (A) (A) (A) (A)
                 (A) (A) (A) (A) (A) (A) (A) (A) (A) (A) (A) (A)
                 (A) (A) (A) (A) (A) (A) (A) (A) (A) (A) (A) (A)
                 (A) (A) (A) (A) (A) (A) (A) (A) (A) (A) (A) (A)
                 (A) (A) (A) (A) (A) (A) (A) (A) (A) (A) (A) (A)
                 (A) (A) (A) (A) (A) (A) (A) (A) (A) (A)
 The electronic state is 1-A.
 Alpha  occ. eigenvalues --  -14.30559 -10.19620 -10.19317 -10.16258 -10.15821
 Alpha  occ. eigenvalues --  -10.15796 -10.15679 -10.15155 -10.14758  -1.15497
 Alpha  occ. eigenvalues --   -1.01601  -0.95286  -0.90185  -0.88282  -0.78068
 Alpha  occ. eigenvalues --   -0.74690  -0.73457  -0.68893  -0.62382  -0.61379
 Alpha  occ. eigenvalues --   -0.57417  -0.57273  -0.56714  -0.54676  -0.52401
 Alpha  occ. eigenvalues --   -0.48377  -0.47186  -0.46087  -0.40131  -0.32614
 Alpha  occ. eigenvalues --   -0.30858
 Alpha virt. eigenvalues --    0.04614   0.06012   0.06381   0.06813   0.08113
 Alpha virt. eigenvalues --    0.08441   0.10018   0.10584   0.10709   0.10954
 Alpha virt. eigenvalues --    0.11688   0.11721   0.13564   0.14797   0.14864
 Alpha virt. eigenvalues --    0.15055   0.16608   0.17859   0.19370   0.19452
 Alpha virt. eigenvalues --    0.20546   0.21344   0.21777   0.22766   0.22959
 Alpha virt. eigenvalues --    0.24333   0.24359   0.24761   0.26105   0.26498
 Alpha virt. eigenvalues --    0.27345   0.27714   0.28345   0.29043   0.29787
 Alpha virt. eigenvalues --    0.30680   0.30984   0.32128   0.32689   0.32885
 Alpha virt. eigenvalues --    0.34492   0.34997   0.37158   0.37900   0.39934
 Alpha virt. eigenvalues --    0.40717   0.41314   0.42281   0.44735   0.47159
 Alpha virt. eigenvalues --    0.47984   0.51017   0.55672   0.56537   0.62997
 Alpha virt. eigenvalues --    0.70456   0.75269   0.78300   0.78674   0.81092
 Alpha virt. eigenvalues --    0.83096   0.83244   0.84913   0.84983   0.86209
 Alpha virt. eigenvalues --    0.86664   0.87691   0.89192   0.90778   0.91856
 Alpha virt. eigenvalues --    0.93578   0.97026   1.01009   1.01879   1.03087
 Alpha virt. eigenvalues --    1.05615   1.06394   1.07386   1.08085   1.10419
 Alpha virt. eigenvalues --    1.12464   1.14946   1.16631   1.18596   1.21701
 Alpha virt. eigenvalues --    1.23753   1.24575   1.29458   1.31008   1.33565
 Alpha virt. eigenvalues --    1.34855   1.38334   1.38485   1.45038   1.47164
 Alpha virt. eigenvalues --    1.49187   1.50103   1.55011   1.56740   1.58539
 Alpha virt. eigenvalues --    1.61433   1.61788   1.65136   1.65833   1.66757
 Alpha virt. eigenvalues --    1.72443   1.78971   1.93585   1.99293   2.03438
 Alpha virt. eigenvalues --    2.04672   2.06676   2.08878   2.14753   2.14993
 Alpha virt. eigenvalues --    2.16207   2.21565   2.25191   2.29192   2.32461
 Alpha virt. eigenvalues --    2.33132   2.34921   2.40730   2.41868   2.42374
 Alpha virt. eigenvalues --    2.43487   2.46325   2.53998   2.56795   2.59624
 Alpha virt. eigenvalues --    2.69807   2.71983   2.78527   2.80633   2.83000
 Alpha virt. eigenvalues --    2.85060   2.88490   2.95938   2.99486   3.00867
 Alpha virt. eigenvalues --    3.10463   3.12659   3.26891   3.39225   3.60135
 Alpha virt. eigenvalues --    4.27429   4.38182   4.41129   4.44608   4.48296
 Alpha virt. eigenvalues --    4.52060   4.60310   4.64313   4.91492
          Condensed to atoms (all electrons):
               1          2          3          4          5          6
     1  C   17.340299   5.098527   1.165530 -12.405216  -5.208543 -10.587890
     2  C    5.098527  18.028728   5.899924 -18.571218   7.266659 -17.759799
     3  C    1.165530   5.899924  27.546467 -23.068300   5.392942 -13.692750
     4  C  -12.405216 -18.571218 -23.068300  73.415502 -19.109153  28.603398
     5  C   -5.208543   7.266659   5.392942 -19.109153  59.601730 -18.617205
     6  C  -10.587890 -17.759799 -13.692750  28.603398 -18.617205  45.443266
     7  N   -0.748712  -1.041167  -2.718742   4.826594  -1.618745   1.389685
     8  C   18.295080  12.563011  12.235177 -50.120563 -41.894819 -12.389781
     9  C   -6.948041  -4.931747  -6.292772  22.214043  18.577449   3.306243
    10  H    0.006306  -0.005713  -0.058120   0.011515   0.429444   0.011498
    11  H   -0.007049  -0.002879   0.007864   0.070526   0.022804  -0.057345
    12  H    0.002764  -0.000896   0.031661   0.079867  -0.104971  -0.019153
    13  H    0.011790   0.237165  -0.106238   0.144874  -0.080396   0.110000
    14  H    0.025495  -0.027646   0.243205   0.093685  -0.042744   0.002402
    15  H    0.336203   0.016082   0.014405  -0.029032   0.030405  -0.055836
    16  H   -0.111465  -0.036665  -0.053979   0.150098   0.135924   0.361678
               7          8          9         10         11         12
     1  C   -0.748712  18.295080  -6.948041   0.006306  -0.007049   0.002764
     2  C   -1.041167  12.563011  -4.931747  -0.005713  -0.002879  -0.000896
     3  C   -2.718742  12.235177  -6.292772  -0.058120   0.007864   0.031661
     4  C    4.826594 -50.120563  22.214043   0.011515   0.070526   0.079867
     5  C   -1.618745 -41.894819  18.577449   0.429444   0.022804  -0.104971
     6  C    1.389685 -12.389781   3.306243   0.011498  -0.057345  -0.019153
     7  N   14.109038 -20.218763  12.756614  -0.471556   0.007925  -0.051258
     8  C  -20.218763 178.180847 -87.373202   1.072624   0.242802   0.130498
     9  C   12.756614 -87.373202  52.596855  -0.756935   0.022468   0.258820
    10  H   -0.471556   1.072624  -0.756935   0.343157  -0.000075  -0.000962
    11  H    0.007925   0.242802   0.022468  -0.000075   0.429957  -0.000466
    12  H   -0.051258   0.130498   0.258820  -0.000962  -0.000466   0.386467
    13  H    0.003036  -0.021524   0.009714  -0.000014   0.000000  -0.000000
    14  H    0.016154  -0.031017   0.024508  -0.000055   0.000001   0.000002
    15  H   -0.000104   0.003657  -0.001162   0.000000  -0.000001  -0.000000
    16  H    0.002320  -0.205261   0.051104  -0.000001   0.001166  -0.000001
              13         14         15         16
     1  C    0.011790   0.025495   0.336203  -0.111465
     2  C    0.237165  -0.027646   0.016082  -0.036665
     3  C   -0.106238   0.243205   0.014405  -0.053979
     4  C    0.144874   0.093685  -0.029032   0.150098
     5  C   -0.080396  -0.042744   0.030405   0.135924
     6  C    0.110000   0.002402  -0.055836   0.361678
     7  N    0.003036   0.016154  -0.000104   0.002320
     8  C   -0.021524  -0.031017   0.003657  -0.205261
     9  C    0.009714   0.024508  -0.001162   0.051104
    10  H   -0.000014  -0.000055   0.000000  -0.000001
    11  H    0.000000   0.000001  -0.000001   0.001166
    12  H   -0.000000   0.000002  -0.000000  -0.000001
    13  H    0.471515  -0.002574  -0.003601  -0.000108
    14  H   -0.002574   0.432650  -0.000110   0.000014
    15  H   -0.003601  -0.000110   0.479563  -0.003373
    16  H   -0.000108   0.000014  -0.003373   0.478077
 Mulliken charges:
               1
     1  C   -0.265079
     2  C   -0.732367
     3  C   -0.546274
     4  C   -0.306620
     5  C    1.219218
     6  C   -0.048412
     7  N    0.757680
     8  C   -4.468768
     9  C    2.486042
    10  H    0.418886
    11  H    0.262301
    12  H    0.287631
    13  H    0.226358
    14  H    0.266029
    15  H    0.212904
    16  H    0.230470
 Sum of Mulliken charges =  -0.00000
 Mulliken charges with hydrogens summed into heavy atoms:
               1
     1  C   -0.052175
     2  C   -0.506009
     3  C   -0.280245
     4  C   -0.306620
     5  C    1.219218
     6  C    0.182058
     7  N    1.176566
     8  C   -4.206466
     9  C    2.773672
 Electronic spatial extent (au):  <R**2>=           1036.9355
 Charge=             -0.0000 electrons
 Dipole moment (field-independent basis, Debye):
    X=             -5.1444    Y=              5.2247    Z=              0.0001  Tot=              7.3323
 Quadrupole moment (field-independent basis, Debye-Ang):
   XX=            -60.9280   YY=            -62.4753   ZZ=            -67.9229
   XY=             12.0217   XZ=             -0.0020   YZ=              0.0008
 Traceless Quadrupole moment (field-independent basis, Debye-Ang):
   XX=              2.8474   YY=              1.3001   ZZ=             -4.1475
   XY=             12.0217   XZ=             -0.0020   YZ=              0.0008
 Octapole moment (field-independent basis, Debye-Ang**2):
  XXX=            -97.3711  YYY=             63.2256  ZZZ=             -0.0033  XYY=            -39.4729
  XXY=             37.5193  XXZ=             -0.0097  XZZ=            -19.8941  YZZ=             17.3972
  YYZ=              0.0022  XYZ=              0.0053
 Hexadecapole moment (field-independent basis, Debye-Ang**3):
 XXXX=          -1256.9717 YYYY=           -672.9026 ZZZZ=           -158.4713 XXXY=            150.7967
 XXXZ=             -0.0402 YYYX=            105.1243 YYYZ=              0.0076 ZZZX=             -0.0145
 ZZZY=              0.0131 XXYY=           -328.6719 XXZZ=           -253.6328 YYZZ=           -152.6912
 XXYZ=              0.0233 YYXZ=             -0.0169 ZZXY=             31.2586
 N-N= 4.013368668897D+02 E-N=-1.640591781876D+03  KE= 3.594752577323D+02
 Calling FoFJK, ICntrl=  10005127 FMM=F ISym2X=0 I1Cent= 0 IOpClX= 0 NMat=1 NMatS=1 NMatT=0.
 ***** Axes restored to original set *****
 -------------------------------------------------------------------
 Center     Atomic                   Forces (Hartrees/Bohr)
 Number     Number              X              Y              Z
 -------------------------------------------------------------------
      1        6          -0.004253575   -0.020220297    0.000000187
      2        6          -0.006756106    0.030721835    0.000003668
      3        6           0.031597765    0.001177398   -0.000014304
      4        6          -0.022511588    0.009052284   -0.000008995
      5        6          -0.004806263   -0.009362694   -0.000026529
      6        6           0.012331302   -0.002157731   -0.000012981
      7        7           0.027202904    0.063910134    0.000099006
      8        6          -0.032067801    0.008930823    0.000046645
      9        6          -0.014671856   -0.063368940   -0.000102885
     10        1           0.010475463   -0.023133598   -0.000003953
     11        1           0.002061977    0.004144207    0.000004172
     12        1           0.003351630   -0.001885638    0.000005994
     13        1          -0.001581339   -0.000891326    0.000000955
     14        1           0.001334778    0.000350866    0.000002422
     15        1          -0.001420727    0.000932185    0.000002544
     16        1          -0.000286563    0.001800491    0.000004055
 -------------------------------------------------------------------
 Cartesian Forces:  Max     0.063910134 RMS     0.017156430

 GradGradGradGradGradGradGradGradGradGradGradGradGradGradGradGradGradGrad
 Berny optimization.
 FormGI is forming the generalized inverse of G from B-inverse, IUseBI=4.
 Internal  Forces:  Max     0.053144741 RMS     0.008668755
 Search for a local minimum.
 Step number   1 out of a maximum of   94
 All quantities printed in internal units (Hartrees-Bohrs-Radians)
 Mixed Optimization -- RFO/linear search
 Second derivative matrix not updated -- first step.
 ITU=  0
     Eigenvalues ---    0.01853   0.01931   0.01986   0.02012   0.02070
     Eigenvalues ---    0.02113   0.02148   0.02153   0.02172   0.02209
     Eigenvalues ---    0.02233   0.02248   0.02338   0.16000   0.16000
     Eigenvalues ---    0.16000   0.16000   0.16000   0.16000   0.16000
     Eigenvalues ---    0.22000   0.22188   0.22662   0.24011   0.24651
     Eigenvalues ---    0.35712   0.35717   0.35783   0.35790   0.36420
     Eigenvalues ---    0.36427   0.37009   0.38432   0.42633   0.43465
     Eigenvalues ---    0.45769   0.46692   0.47162   0.47468   0.47567
     Eigenvalues ---    0.48125   0.50955
 RFO step:  Lambda=-1.32905785D-02 EMin= 1.85287394D-02
 Linear search not attempted -- first point.
 Iteration  1 RMS(Cart)=  0.02432254 RMS(Int)=  0.00013117
 Iteration  2 RMS(Cart)=  0.00015415 RMS(Int)=  0.00005197
 Iteration  3 RMS(Cart)=  0.00000002 RMS(Int)=  0.00005197
 Variable       Old X    -DE/DX   Delta X   Delta X   Delta X     New X
                                 (Linear)    (Quad)   (Total)
    R1        2.65547  -0.01961   0.00000  -0.04111  -0.04116   2.61431
    R2        2.61291   0.00136   0.00000   0.00375   0.00373   2.61664
    R3        2.04421   0.00169   0.00000   0.00456   0.00456   2.04878
    R4        2.61557   0.01562   0.00000   0.03178   0.03175   2.64732
    R5        2.04411   0.00182   0.00000   0.00489   0.00489   2.04900
    R6        2.63373  -0.02380   0.00000  -0.05065  -0.05062   2.58311
    R7        2.04534  -0.00033   0.00000  -0.00090  -0.00090   2.04444
    R8        2.68058  -0.01628   0.00000  -0.03815  -0.03805   2.64253
    R9        2.60126   0.01037   0.00000   0.01796   0.01809   2.61936
   R10        2.64771  -0.00891   0.00000  -0.01939  -0.01937   2.62834
   R11        2.70839  -0.01456   0.00000  -0.03172  -0.03183   2.67656
   R12        2.04526   0.00181   0.00000   0.00488   0.00488   2.05014
   R13        2.60573  -0.05314   0.00000  -0.10672  -0.10668   2.49904
   R14        1.89542   0.02525   0.00000   0.05207   0.05207   1.94750
   R15        2.57870   0.02603   0.00000   0.04992   0.04980   2.62850
   R16        2.03419   0.00460   0.00000   0.01219   0.01219   2.04638
   R17        2.03430   0.00353   0.00000   0.00935   0.00935   2.04366
    A1        2.11420  -0.00498   0.00000  -0.01596  -0.01601   2.09819
    A2        2.07986   0.00264   0.00000   0.00886   0.00889   2.08875
    A3        2.08912   0.00234   0.00000   0.00710   0.00713   2.09625
    A4        2.11523   0.00224   0.00000   0.01347   0.01341   2.12864
    A5        2.08365  -0.00115   0.00000  -0.00691  -0.00688   2.07678
    A6        2.08430  -0.00109   0.00000  -0.00656  -0.00653   2.07777
    A7        2.05144  -0.00148   0.00000  -0.00747  -0.00745   2.04399
    A8        2.11267   0.00211   0.00000   0.01164   0.01163   2.12430
    A9        2.11908  -0.00063   0.00000  -0.00417  -0.00418   2.11490
   A10        2.13389  -0.00103   0.00000  -0.00570  -0.00571   2.12818
   A11        2.27895  -0.00332   0.00000  -0.00826  -0.00839   2.27056
   A12        1.87035   0.00435   0.00000   0.01395   0.01410   1.88445
   A13        2.07274   0.00801   0.00000   0.02550   0.02560   2.09835
   A14        1.86517  -0.00730   0.00000  -0.02211  -0.02219   1.84299
   A15        2.34527  -0.00071   0.00000  -0.00339  -0.00342   2.34185
   A16        2.07887  -0.00275   0.00000  -0.00986  -0.00984   2.06903
   A17        2.10306   0.00113   0.00000   0.00353   0.00353   2.10659
   A18        2.10125   0.00162   0.00000   0.00633   0.00632   2.10757
   A19        1.90743   0.00428   0.00000   0.00924   0.00941   1.91684
   A20        2.19023   0.00041   0.00000   0.01010   0.01002   2.20025
   A21        2.18553  -0.00469   0.00000  -0.01935  -0.01943   2.16610
   A22        1.86968   0.00109   0.00000   0.01123   0.01105   1.88073
   A23        2.21717  -0.00003   0.00000  -0.00267  -0.00257   2.21460
   A24        2.19633  -0.00106   0.00000  -0.00857  -0.00847   2.18786
   A25        1.91215  -0.00241   0.00000  -0.01232  -0.01237   1.89977
   A26        2.10250  -0.00034   0.00000  -0.00278  -0.00275   2.09975
   A27        2.26854   0.00276   0.00000   0.01510   0.01512   2.28366
    D1       -0.00001   0.00000   0.00000   0.00001   0.00001  -0.00000
    D2       -3.14156  -0.00000   0.00000  -0.00002  -0.00002  -3.14158
    D3        3.14152   0.00000   0.00000   0.00006   0.00006   3.14158
    D4       -0.00002   0.00000   0.00000   0.00003   0.00003   0.00000
    D5       -0.00003  -0.00000   0.00000  -0.00004  -0.00004  -0.00007
    D6        3.14153   0.00000   0.00000   0.00008   0.00008  -3.14158
    D7       -3.14157  -0.00000   0.00000  -0.00008  -0.00008   3.14153
    D8       -0.00001   0.00000   0.00000   0.00003   0.00004   0.00003
    D9        0.00003   0.00000   0.00000   0.00005   0.00005   0.00009
   D10       -3.14154  -0.00000   0.00000  -0.00006  -0.00006   3.14159
   D11        3.14158   0.00000   0.00000   0.00008   0.00008  -3.14152
   D12        0.00001  -0.00000   0.00000  -0.00003  -0.00003  -0.00002
   D13       -0.00001  -0.00001   0.00000  -0.00010  -0.00009  -0.00010
   D14       -3.14144  -0.00001   0.00000  -0.00010  -0.00009  -3.14153
   D15        3.14156   0.00000   0.00000   0.00002   0.00002   3.14158
   D16        0.00013  -0.00000   0.00000   0.00002   0.00002   0.00015
   D17       -0.00004   0.00001   0.00000   0.00007   0.00007   0.00003
   D18       -3.14151   0.00000   0.00000  -0.00003  -0.00004  -3.14155
   D19        3.14143   0.00001   0.00000   0.00007   0.00007   3.14149
   D20       -0.00005   0.00000   0.00000  -0.00003  -0.00004  -0.00009
   D21       -3.14124  -0.00001   0.00000  -0.00050  -0.00051   3.14143
   D22       -0.00113   0.00001   0.00000   0.00031   0.00031  -0.00083
   D23        0.00049  -0.00001   0.00000  -0.00050  -0.00051  -0.00001
   D24        3.14060   0.00001   0.00000   0.00031   0.00031   3.14091
   D25        0.00005  -0.00000   0.00000  -0.00000   0.00000   0.00006
   D26       -3.14151  -0.00000   0.00000  -0.00012  -0.00012   3.14156
   D27        3.14150   0.00000   0.00000   0.00014   0.00014  -3.14155
   D28       -0.00007  -0.00000   0.00000   0.00002   0.00002  -0.00004
   D29       -0.00041   0.00002   0.00000   0.00058   0.00057   0.00016
   D30        3.14139   0.00001   0.00000   0.00009   0.00009   3.14148
   D31        3.14132   0.00002   0.00000   0.00045   0.00044  -3.14142
   D32       -0.00006   0.00000   0.00000  -0.00003  -0.00004  -0.00010
   D33       -0.00077   0.00003   0.00000   0.00090   0.00089   0.00012
   D34        3.14133   0.00001   0.00000   0.00030   0.00029  -3.14157
   D35       -3.14089   0.00000   0.00000   0.00007   0.00006  -3.14083
   D36        0.00121  -0.00002   0.00000  -0.00053  -0.00053   0.00068
   D37        0.00072  -0.00003   0.00000  -0.00089  -0.00089  -0.00017
   D38       -3.14144  -0.00001   0.00000  -0.00022  -0.00022   3.14152
   D39       -3.14107  -0.00001   0.00000  -0.00041  -0.00042  -3.14149
   D40       -0.00005   0.00001   0.00000   0.00026   0.00025   0.00020
         Item               Value     Threshold  Converged?
 Maximum Force            0.053145     0.000450     NO 
 RMS     Force            0.008669     0.000300     NO 
 Maximum Displacement     0.088673     0.001800     NO 
 RMS     Displacement     0.024341     0.001200     NO 
 Predicted change in Energy=-6.839801D-03
 GradGradGradGradGradGradGradGradGradGradGradGradGradGradGradGradGradGrad

                          Input orientation:                          
 ---------------------------------------------------------------------
 Center     Atomic      Atomic             Coordinates (Angstroms)
 Number     Number       Type             X           Y           Z
 ---------------------------------------------------------------------
      1          6           0       -2.159189    0.691568   -0.000004
      2          6           0       -2.114174   -0.691135    0.000011
      3          6           0       -0.902151   -1.393653   -0.000003
      4          6           0        0.246960   -0.653371    0.000074
      5          6           0        0.226096    0.744839    0.000043
      6          6           0       -0.985976    1.427011   -0.000032
      7          7           0        1.571673   -1.061314    0.000016
      8          6           0        1.584491    1.145933    0.000088
      9          6           0        2.366482   -0.004376   -0.000067
     10          1           0        1.906324   -2.036038    0.000588
     11          1           0        1.962608    2.160669   -0.000021
     12          1           0        3.440695   -0.129349   -0.000147
     13          1           0       -3.044998   -1.247232    0.000016
     14          1           0       -0.871649   -2.475095    0.000010
     15          1           0       -3.118118    1.197404   -0.000006
     16          1           0       -1.012170    2.511585   -0.000028
 ---------------------------------------------------------------------
                    Distance matrix (angstroms):
                    1          2          3          4          5
     1  C    0.000000
     2  C    1.383436   0.000000
     3  C    2.434809   1.400904   0.000000
     4  C    2.756522   2.361436   1.366922   0.000000
     5  C    2.385880   2.745703   2.417869   1.398365   0.000000
     6  C    1.384668   2.399870   2.821910   2.418289   1.390855
     7  N    4.122127   3.704390   2.496049   1.386104   2.252280
     8  C    3.771152   4.129763   3.554277   2.241982   1.416373
     9  C    4.578869   4.532981   3.551627   2.216657   2.267725
    10  H    4.895736   4.239477   2.881005   2.159921   3.249068
    11  H    4.375782   4.975233   4.565091   3.295795   2.240546
    12  H    5.659736   5.583205   4.523138   3.236440   3.331344
    13  H    2.131572   1.084286   2.147843   3.345094   3.829934
    14  H    3.418408   2.174024   1.081872   2.137748   3.401914
    15  H    1.084165   2.138804   3.409412   3.840458   3.374697
    16  H    2.151305   3.387009   3.906787   3.406222   2.157473
                    6          7          8          9         10
     6  C    0.000000
     7  N    3.568380   0.000000
     8  C    2.585790   2.207284   0.000000
     9  C    3.645250   1.322437   1.390942   0.000000
    10  H    4.511996   1.030571   3.198204   2.083122   0.000000
    11  H    3.038487   3.245613   1.082895   2.202392   4.197084
    12  H    4.692299   2.088492   2.252073   1.081458   2.447398
    13  H    3.375077   4.620413   5.211468   5.552369   5.013761
    14  H    3.903781   2.822871   4.375439   4.073076   2.812455
    15  H    2.144469   5.205377   4.702891   5.614723   5.974961
    16  H    1.084890   4.409291   2.933880   4.212522   5.403561
                   11         12         13         14         15
    11  H    0.000000
    12  H    2.725605   0.000000
    13  H    6.057219   6.581327   0.000000
    14  H    5.433537   4.909056   2.496216   0.000000
    15  H    5.171233   6.691659   2.445729   4.305099   0.000000
    16  H    2.995403   5.177116   4.273300   4.988659   2.482356
                   16
    16  H    0.000000
 Stoichiometry    C8H7N
 Framework group  C1[X(C8H7N)]
 Deg. of freedom    42
 Full point group                 C1      NOp   1
 Largest Abelian subgroup         C1      NOp   1
 Largest concise Abelian subgroup C1      NOp   1
                         Standard orientation:                         
 ---------------------------------------------------------------------
 Center     Atomic      Atomic             Coordinates (Angstroms)
 Number     Number       Type             X           Y           Z
 ---------------------------------------------------------------------
      1          6           0       -2.172355    0.637694   -0.000023
      2          6           0       -2.094525   -0.743551   -0.000008
      3          6           0       -0.866164   -1.417095   -0.000022
      4          6           0        0.265047   -0.649739    0.000055
      5          6           0        0.210993    0.747581    0.000024
      6          6           0       -1.016934    1.400784   -0.000051
      7          7           0        1.599073   -1.026116   -0.000003
      8          6           0        1.559482    1.180813    0.000069
      9          6           0        2.368563    0.049395   -0.000086
     10          1           0        1.956771   -1.992620    0.000569
     11          1           0        1.913400    2.204240   -0.000040
     12          1           0        3.445441   -0.050039   -0.000166
     13          1           0       -3.011883   -1.321590   -0.000003
     14          1           0       -0.809995   -2.497508   -0.000009
     15          1           0       -3.143023    1.120620   -0.000025
     16          1           0       -1.068870    2.484430   -0.000047
 ---------------------------------------------------------------------
 Rotational constants (GHZ):           3.9834449           1.6580984           1.1707689
 Standard basis: 6-31+G(d) (6D, 7F)
 There are   185 symmetry adapted cartesian basis functions of A   symmetry.
 There are   185 symmetry adapted basis functions of A   symmetry.
   185 basis functions,   316 primitive gaussians,   185 cartesian basis functions
    31 alpha electrons       31 beta electrons
       nuclear repulsion energy       403.7557997455 Hartrees.
 NAtoms=   16 NActive=   16 NUniq=   16 SFac= 1.00D+00 NAtFMM=   60 NAOKFM=F Big=F
 Integral buffers will be    131072 words long.
 Raffenetti 1 integral format.
 Two-electron integral symmetry is turned on.
 One-electron integrals computed using PRISM.
 NBasis=   185 RedAO= T EigKep=  1.08D-06  NBF=   185
 NBsUse=   185 1.00D-06 EigRej= -1.00D+00 NBFU=   185
 Initial guess from the checkpoint file:  "FuncsLC-BLYP-V-3rd.chk"
 B after Tr=     0.000000   -0.000000    0.000000
         Rot=    0.999932    0.000009    0.000009   -0.011691 Ang=   1.34 deg.
 ExpMin= 4.38D-02 ExpMax= 4.17D+03 ExpMxC= 6.27D+02 IAcc=3 IRadAn=         5 AccDes= 0.00D+00
 Harris functional with IExCor=10402 and IRadAn=       5 diagonalized for initial guess.
 HarFok:  IExCor=10402 AccDes= 0.00D+00 IRadAn=         5 IDoV= 1 UseB2=F ITyADJ=14
 ICtDFT=  3500011 ScaDFX=  1.000000  1.000000  1.000000  1.000000
 FoFCou: FMM=F IPFlag=           0 FMFlag=      100000 FMFlg1=           0
         NFxFlg=           0 DoJE=T BraDBF=F KetDBF=T FulRan=T
         wScrn=  0.000000 ICntrl=       500 IOpCl=  0 I1Cent=   200000004 NGrid=           0
         NMat0=    1 NMatS0=      1 NMatT0=    0 NMatD0=    1 NMtDS0=    0 NMtDT0=    0
 Petite list used in FoFCou.
 Keep R1 ints in memory in canonical form, NReq=303303409.
 Requested convergence on RMS density matrix=1.00D-08 within 128 cycles.
 Requested convergence on MAX density matrix=1.00D-06.
 Requested convergence on             energy=1.00D-06.
 No special actions if energy rises.
 SCF Done:  E(RLC-B+HF-LYP) =  -362.729966921     A.U. after   15 cycles
            NFock= 15  Conv=0.92D-08     -V/T= 2.0083
 DoSCS=F DFT=T ScalE2(SS,OS)=  1.000000  1.000000
 ExpMin= 4.38D-02 ExpMax= 4.17D+03 ExpMxC= 6.27D+02 IAcc=3 IRadAn=         5 AccDes= 0.00D+00
 HarFok:  IExCor=  205 AccDes= 0.00D+00 IRadAn=         5 IDoV=-2 UseB2=F ITyADJ=14
 ICtDFT= 12500011 ScaDFX=  1.000000  1.000000  1.000000  1.000000
 Range of M.O.s used for correlation:    10   185
 NBasis=   185 NAE=    31 NBE=    31 NFC=     9 NFV=     0
 NROrb=    176 NOA=    22 NOB=    22 NVA=   154 NVB=   154

 **** Warning!!: The largest alpha MO coefficient is  0.23839313D+03

 Orbital symmetries:
       Occupied  (A) (A) (A) (A) (A) (A) (A) (A) (A) (A) (A) (A)
                 (A) (A) (A) (A) (A) (A) (A) (A) (A) (A) (A) (A)
                 (A) (A) (A) (A) (A) (A) (A)
       Virtual   (A) (A) (A) (A) (A) (A) (A) (A) (A) (A) (A) (A)
                 (A) (A) (A) (A) (A) (A) (A) (A) (A) (A) (A) (A)
                 (A) (A) (A) (A) (A) (A) (A) (A) (A) (A) (A) (A)
                 (A) (A) (A) (A) (A) (A) (A) (A) (A) (A) (A) (A)
                 (A) (A) (A) (A) (A) (A) (A) (A) (A) (A) (A) (A)
                 (A) (A) (A) (A) (A) (A) (A) (A) (A) (A) (A) (A)
                 (A) (A) (A) (A) (A) (A) (A) (A) (A) (A) (A) (A)
                 (A) (A) (A) (A) (A) (A) (A) (A) (A) (A) (A) (A)
                 (A) (A) (A) (A) (A) (A) (A) (A) (A) (A) (A) (A)
                 (A) (A) (A) (A) (A) (A) (A) (A) (A) (A) (A) (A)
                 (A) (A) (A) (A) (A) (A) (A) (A) (A) (A) (A) (A)
                 (A) (A) (A) (A) (A) (A) (A) (A) (A) (A) (A) (A)
                 (A) (A) (A) (A) (A) (A) (A) (A) (A) (A)
 Generating guess from densities on rwf.
 Convergence on wavefunction:    0.000001000000000
 Iteration     1 Dimension    12 NMult     0 NNew     12
 CISAX will form    12 AO SS matrices at one time.
 New state      1 was old state      2
 New state      2 was old state      1
 New state      4 was old state      6
 New state      6 was old state      4
 Iteration     2 Dimension    24 NMult    12 NNew     12
 New state      4 was old state      5
 New state      5 was old state      4
 Iteration     3 Dimension    36 NMult    24 NNew     12
 Iteration     4 Dimension    48 NMult    36 NNew     12
 Iteration     5 Dimension    60 NMult    48 NNew     12
 Iteration     6 Dimension    72 NMult    60 NNew     12
 No map to state      6
 Iteration     7 Dimension    84 NMult    72 NNew     12
 Iteration     8 Dimension    96 NMult    84 NNew     12
 Iteration     9 Dimension   108 NMult    96 NNew     12
 Iteration    10 Dimension   120 NMult   108 NNew     12
 Iteration    11 Dimension   130 NMult   120 NNew     10
 Iteration    12 Dimension   138 NMult   130 NNew      8
 Iteration    13 Dimension   144 NMult   138 NNew      6
 Iteration    14 Dimension   148 NMult   144 NNew      4
 Iteration    15 Dimension   150 NMult   148 NNew      2
 Iteration    16 Dimension   152 NMult   150 NNew      2
 Iteration    17 Dimension   154 NMult   152 NNew      2
 ***********************************************************************
 Excited states from <AA,BB:AA,BB> singles matrix:
 ***********************************************************************
 
 Ground to excited state transition densities written to RWF  633
 Ground to excited state transition electric dipole moments (Au):
       state          X           Y           Z        Dip. S.      Osc.
         1        -0.9826      0.7063      0.0001      1.4643      0.1834
         2        -0.0834     -0.2788     -0.0000      0.0847      0.0110
         3         0.0000     -0.0000     -0.1817      0.0330      0.0044
         4         0.0001      0.0001     -0.1910      0.0365      0.0055
         5         0.0005      0.0002      0.1566      0.0245      0.0038
         6         1.7298      0.6698      0.0000      3.4408      0.5479
 Ground to excited state transition velocity dipole moments (Au):
       state          X           Y           Z        Dip. S.      Osc.
         1         0.1707     -0.1418     -0.0000      0.0492      0.1747
         2         0.0156      0.0574      0.0000      0.0035      0.0121
         3         0.0000      0.0000      0.0273      0.0007      0.0025
         4        -0.0000     -0.0000      0.0439      0.0019      0.0056
         5        -0.0001     -0.0000     -0.0344      0.0012      0.0034
         6        -0.3994     -0.1588     -0.0000      0.1848      0.5157
 Ground to excited state transition magnetic dipole moments (Au):
       state          X           Y           Z
         1         0.0000      0.0001      0.0774
         2        -0.0001     -0.0001      0.0472
         3         0.1916     -0.1486      0.0001
         4         0.1677     -0.5280      0.0001
         5         0.3414      0.1766      0.0003
         6        -0.0002      0.0001      1.1197
 Ground to excited state transition velocity quadrupole moments (Au):
       state          XX          YY          ZZ          XY          XZ          YZ
         1         0.2558     -0.1955      0.0203     -0.0063     -0.0001     -0.0000
         2        -0.0530     -0.0567      0.0205      0.0314      0.0000     -0.0000
         3        -0.0000      0.0001      0.0000      0.0001      0.1159      0.0958
         4         0.0001     -0.0001     -0.0000      0.0000      0.5044      0.2074
         5         0.0000      0.0000      0.0000      0.0001     -0.0831      0.2310
         6        -0.2796      0.2305      0.0599      0.7641     -0.0001     -0.0000
 <0|del|b> * <b|rxdel|0> + <0|del|b> * <b|delr+rdel|0>
 Rotatory Strengths (R) in cgs (10**-40 erg-esu-cm/Gauss)
       state          XX          YY          ZZ    R(velocity)    E-M Angle
         1        -0.0482      0.0015     -0.0151     -0.0206       90.00
         2        -0.0104     -0.0019     -0.0061     -0.0061       90.00
         3         0.0089      0.0013      0.0001      0.0034       90.00
         4         0.0360     -0.0102      0.0020      0.0093       90.00
         5        -0.0406     -0.1139     -0.0265     -0.0603       90.00
         6        -0.0968      0.1231      0.0825      0.0363       90.00
 1/2[<0|r|b>*<b|rxdel|0> + (<0|rxdel|b>*<b|r|0>)*]
 Rotatory Strengths (R) in cgs (10**-40 erg-esu-cm/Gauss)
       state          XX          YY          ZZ     R(length)
         1         0.0076     -0.0611     -0.0035     -0.0190
         2        -0.0040     -0.0143      0.0004     -0.0060
         3        -0.0007     -0.0019      0.0138      0.0038
         4        -0.0111      0.0259      0.0107      0.0085
         5        -0.1310     -0.0226     -0.0333     -0.0623
         6         0.2305     -0.0696     -0.0337      0.0424
  1/2[<0|del|b>*<b|r|0> + (<0|r|b>*<b|del|0>)*] (Au)
       state          X           Y           Z        Dip. S.   Osc.(frdel)
         1        -0.1677     -0.1002     -0.0000      0.2679      0.1786
         2        -0.0013     -0.0160     -0.0000      0.0173      0.0115
         3         0.0000     -0.0000     -0.0050      0.0050      0.0033
         4        -0.0000     -0.0000     -0.0084      0.0084      0.0056
         5        -0.0000     -0.0000     -0.0054      0.0054      0.0036
         6        -0.6909     -0.1064     -0.0000      0.7973      0.5315

 Excitation energies and oscillator strengths:
 
 Excited State   1:      Singlet-A      5.1116 eV  242.56 nm  f=0.1834  <S**2>=0.000
      30 -> 38         0.15574
      31 -> 33         0.66071
 
 Excited State   2:      Singlet-A      5.3236 eV  232.90 nm  f=0.0110  <S**2>=0.000
      30 -> 33         0.52305
      31 -> 38        -0.37721
      31 -> 43         0.10815
 
 Excited State   3:      Singlet-A      5.4799 eV  226.25 nm  f=0.0044  <S**2>=0.000
      29 -> 32         0.10842
      31 -> 32         0.66413
      31 -> 39         0.11722
 This state for optimization and/or second-order correction.
 Total Energy, E(TD-HF/TD-DFT) =  -362.528585023    
 Copying the excited state density for this state as the 1-particle RhoCI density.
 
 Excited State   4:      Singlet-A      6.2015 eV  199.93 nm  f=0.0055  <S**2>=0.000
      30 -> 32         0.11410
      31 -> 34         0.49688
      31 -> 35        -0.40512
      31 -> 37        -0.12039
 
 Excited State   5:      Singlet-A      6.2698 eV  197.75 nm  f=0.0038  <S**2>=0.000
      31 -> 34         0.39568
      31 -> 35         0.44516
      31 -> 36         0.18025
      31 -> 39        -0.15696
      31 -> 42         0.19046
 
 Excited State   6:      Singlet-A      6.4995 eV  190.76 nm  f=0.5479  <S**2>=0.000
      30 -> 33        -0.37391
      31 -> 38        -0.46506
      31 -> 40        -0.30559
 SavETr:  write IOETrn=   770 NScale= 10 NData=  16 NLR=1 NState=    6 LETran=     118.
          IDoAtm=1111111111111111
          Differentiating once with respect to electric field.
                with respect to dipole field.
          Differentiating once with respect to nuclear coordinates.
 Keep R1 ints in memory in canonical form, NReq=303315801.
          There are     1 degrees of freedom in the 1st order CPHF.  IDoFFX=0 NUNeed=     1.
 LinEq1:  Iter=  0 NonCon=     1 RMS=8.35D-03 Max=1.17D-01 NDo=     1
 AX will form     1 AO Fock derivatives at one time.
 LinEq1:  Iter=  1 NonCon=     1 RMS=2.78D-03 Max=5.42D-02 NDo=     1
 LinEq1:  Iter=  2 NonCon=     1 RMS=1.35D-03 Max=3.89D-02 NDo=     1
 LinEq1:  Iter=  3 NonCon=     1 RMS=5.06D-04 Max=8.52D-03 NDo=     1
 LinEq1:  Iter=  4 NonCon=     1 RMS=2.10D-04 Max=4.23D-03 NDo=     1
 LinEq1:  Iter=  5 NonCon=     1 RMS=9.16D-05 Max=1.86D-03 NDo=     1
 LinEq1:  Iter=  6 NonCon=     1 RMS=3.70D-05 Max=1.10D-03 NDo=     1
 LinEq1:  Iter=  7 NonCon=     1 RMS=2.32D-05 Max=5.02D-04 NDo=     1
 LinEq1:  Iter=  8 NonCon=     1 RMS=6.62D-06 Max=1.01D-04 NDo=     1
 LinEq1:  Iter=  9 NonCon=     1 RMS=1.72D-06 Max=4.51D-05 NDo=     1
 LinEq1:  Iter= 10 NonCon=     1 RMS=6.90D-07 Max=1.17D-05 NDo=     1
 LinEq1:  Iter= 11 NonCon=     1 RMS=2.08D-07 Max=5.82D-06 NDo=     1
 LinEq1:  Iter= 12 NonCon=     1 RMS=9.78D-08 Max=2.82D-06 NDo=     1
 LinEq1:  Iter= 13 NonCon=     1 RMS=4.35D-08 Max=8.42D-07 NDo=     1
 LinEq1:  Iter= 14 NonCon=     1 RMS=1.35D-08 Max=3.34D-07 NDo=     1
 LinEq1:  Iter= 15 NonCon=     1 RMS=3.35D-09 Max=6.02D-08 NDo=     1
 LinEq1:  Iter= 16 NonCon=     1 RMS=1.60D-09 Max=2.31D-08 NDo=     1
 LinEq1:  Iter= 17 NonCon=     1 RMS=3.41D-10 Max=3.74D-09 NDo=     1
 LinEq1:  Iter= 18 NonCon=     1 RMS=8.34D-11 Max=1.05D-09 NDo=     1
 LinEq1:  Iter= 19 NonCon=     0 RMS=3.66D-11 Max=5.26D-10 NDo=     1
 Linear equations converged to 1.000D-10 1.000D-09 after    19 iterations.
 End of Minotr F.D. properties file   721 does not exist.
 End of Minotr F.D. properties file   722 does not exist.
 End of Minotr F.D. properties file   788 does not exist.
 Calling FoFJK, ICntrl=  10005127 FMM=F ISym2X=0 I1Cent= 0 IOpClX= 0 NMat=1 NMatS=1 NMatT=0.
 ***** Axes restored to original set *****
 -------------------------------------------------------------------
 Center     Atomic                   Forces (Hartrees/Bohr)
 Number     Number              X              Y              Z
 -------------------------------------------------------------------
      1        6           0.001390320    0.001806853   -0.000005531
      2        6          -0.000010987   -0.000930487   -0.000001535
      3        6           0.003335387   -0.001891204    0.000010491
      4        6          -0.012477902   -0.006610627   -0.000005576
      5        6           0.010317866    0.002400496    0.000002824
      6        6          -0.002428620    0.003032502    0.000013447
      7        7           0.009994770    0.014071493    0.000012767
      8        6          -0.010459073    0.015077858   -0.000034266
      9        6          -0.003955329   -0.021406832    0.000015672
     10        1           0.002275815   -0.005360201   -0.000015960
     11        1           0.000755738   -0.000103753    0.000005732
     12        1           0.001539675    0.000951286    0.000005852
     13        1           0.000270975   -0.000979990    0.000000078
     14        1          -0.001115574   -0.000136512   -0.000001977
     15        1           0.000311039    0.000263785   -0.000000517
     16        1           0.000255899   -0.000184667   -0.000001500
 -------------------------------------------------------------------
 Cartesian Forces:  Max     0.021406832 RMS     0.005583356

 GradGradGradGradGradGradGradGradGradGradGradGradGradGradGradGradGradGrad
 Berny optimization.
 Using GEDIIS/GDIIS optimizer.
 FormGI is forming the generalized inverse of G from B-inverse, IUseBI=4.
 Internal  Forces:  Max     0.012354455 RMS     0.002430880
 Search for a local minimum.
 Step number   2 out of a maximum of   94
 All quantities printed in internal units (Hartrees-Bohrs-Radians)
 Mixed Optimization -- RFO/linear search
 Update second derivatives using D2CorX and points    1    2
 DE= -7.77D-03 DEPred=-6.84D-03 R= 1.14D+00
 TightC=F SS=  1.41D+00  RLast= 1.70D-01 DXNew= 5.0454D-01 5.1050D-01
 Trust test= 1.14D+00 RLast= 1.70D-01 DXMaxT set to 5.05D-01
 ITU=  1  0
 Use linear search instead of GDIIS.
     Eigenvalues ---    0.01854   0.01932   0.01986   0.02011   0.02069
     Eigenvalues ---    0.02113   0.02148   0.02156   0.02172   0.02210
     Eigenvalues ---    0.02233   0.02248   0.02341   0.15896   0.16000
     Eigenvalues ---    0.16000   0.16000   0.16000   0.16000   0.16126
     Eigenvalues ---    0.21885   0.22200   0.22523   0.24436   0.24736
     Eigenvalues ---    0.34984   0.35713   0.35723   0.35787   0.35825
     Eigenvalues ---    0.36435   0.36778   0.37502   0.39809   0.42629
     Eigenvalues ---    0.44650   0.46452   0.46861   0.47563   0.47744
     Eigenvalues ---    0.48198   0.54127
 RFO step:  Lambda=-1.29412771D-03 EMin= 1.85425798D-02
 Quartic linear search produced a step of  0.12962.
 Iteration  1 RMS(Cart)=  0.00759660 RMS(Int)=  0.00003617
 Iteration  2 RMS(Cart)=  0.00004173 RMS(Int)=  0.00001486
 Iteration  3 RMS(Cart)=  0.00000000 RMS(Int)=  0.00001486
 Variable       Old X    -DE/DX   Delta X   Delta X   Delta X     New X
                                 (Linear)    (Quad)   (Total)
    R1        2.61431   0.00337  -0.00533   0.01015   0.00481   2.61912
    R2        2.61664  -0.00044   0.00048  -0.00127  -0.00079   2.61585
    R3        2.04878  -0.00015   0.00059  -0.00074  -0.00015   2.04863
    R4        2.64732   0.00020   0.00412  -0.00147   0.00263   2.64996
    R5        2.04900   0.00027   0.00063   0.00057   0.00120   2.05021
    R6        2.58311  -0.00209  -0.00656  -0.00239  -0.00895   2.57416
    R7        2.04444   0.00010  -0.00012   0.00038   0.00027   2.04471
    R8        2.64253   0.00649  -0.00493   0.02029   0.01542   2.65794
    R9        2.61936   0.00562   0.00235   0.01129   0.01364   2.63300
   R10        2.62834   0.00148  -0.00251   0.00503   0.00253   2.63087
   R11        2.67656  -0.00494  -0.00413  -0.01090  -0.01501   2.66155
   R12        2.05014  -0.00019   0.00063  -0.00088  -0.00025   2.04990
   R13        2.49904  -0.01019  -0.01383  -0.01894  -0.03281   2.46624
   R14        1.94750   0.00581   0.00675   0.01124   0.01799   1.96549
   R15        2.62850   0.01235   0.00646   0.02425   0.03067   2.65917
   R16        2.04638   0.00017   0.00158  -0.00017   0.00141   2.04778
   R17        2.04366   0.00142   0.00121   0.00386   0.00507   2.04873
    A1        2.09819   0.00136  -0.00208   0.00752   0.00544   2.10363
    A2        2.08875  -0.00029   0.00115  -0.00112   0.00003   2.08878
    A3        2.09625  -0.00107   0.00092  -0.00640  -0.00547   2.09078
    A4        2.12864   0.00094   0.00174   0.00266   0.00438   2.13302
    A5        2.07678   0.00053  -0.00089   0.00572   0.00483   2.08161
    A6        2.07777  -0.00148  -0.00085  -0.00838  -0.00922   2.06855
    A7        2.04399  -0.00195  -0.00097  -0.00952  -0.01049   2.03350
    A8        2.12430  -0.00017   0.00151  -0.00396  -0.00245   2.12184
    A9        2.11490   0.00212  -0.00054   0.01349   0.01294   2.12785
   A10        2.12818   0.00222  -0.00074   0.01144   0.01070   2.13888
   A11        2.27056   0.00110  -0.00109   0.00465   0.00353   2.27408
   A12        1.88445  -0.00332   0.00183  -0.01609  -0.01423   1.87022
   A13        2.09835  -0.00118   0.00332  -0.00678  -0.00346   2.09489
   A14        1.84299   0.00297  -0.00288   0.01709   0.01425   1.85724
   A15        2.34185  -0.00179  -0.00044  -0.01031  -0.01080   2.33105
   A16        2.06903  -0.00139  -0.00128  -0.00531  -0.00657   2.06245
   A17        2.10659   0.00095   0.00046   0.00459   0.00504   2.11162
   A18        2.10757   0.00044   0.00082   0.00073   0.00154   2.10911
   A19        1.91684   0.00147   0.00122   0.00417   0.00537   1.92221
   A20        2.20025  -0.00033   0.00130  -0.00061   0.00070   2.20095
   A21        2.16610  -0.00114  -0.00252  -0.00356  -0.00607   2.16003
   A22        1.88073  -0.00378   0.00143  -0.01797  -0.01655   1.86418
   A23        2.21460   0.00265  -0.00033   0.01405   0.01372   2.22832
   A24        2.18786   0.00113  -0.00110   0.00392   0.00282   2.19068
   A25        1.89977   0.00266  -0.00160   0.01280   0.01115   1.91092
   A26        2.09975  -0.00018  -0.00036   0.00244   0.00211   2.10186
   A27        2.28366  -0.00248   0.00196  -0.01524  -0.01325   2.27041
    D1       -0.00000  -0.00000   0.00000  -0.00002  -0.00002  -0.00002
    D2       -3.14158  -0.00000  -0.00000  -0.00003  -0.00003   3.14158
    D3        3.14158   0.00000   0.00001  -0.00001  -0.00000   3.14158
    D4        0.00000  -0.00000   0.00000  -0.00002  -0.00002  -0.00002
    D5       -0.00007   0.00000  -0.00001   0.00017   0.00016   0.00009
    D6       -3.14158  -0.00000   0.00001  -0.00008  -0.00007   3.14153
    D7        3.14153   0.00000  -0.00001   0.00016   0.00015  -3.14150
    D8        0.00003  -0.00000   0.00000  -0.00009  -0.00009  -0.00006
    D9        0.00009  -0.00000   0.00001  -0.00011  -0.00011  -0.00002
   D10        3.14159   0.00000  -0.00001   0.00003   0.00002  -3.14157
   D11       -3.14152  -0.00000   0.00001  -0.00010  -0.00009   3.14157
   D12       -0.00002   0.00000  -0.00000   0.00004   0.00004   0.00002
   D13       -0.00010   0.00000  -0.00001   0.00009   0.00008  -0.00002
   D14       -3.14153   0.00000  -0.00001   0.00005   0.00004  -3.14149
   D15        3.14158  -0.00000   0.00000  -0.00005  -0.00005   3.14153
   D16        0.00015  -0.00000   0.00000  -0.00009  -0.00009   0.00006
   D17        0.00003   0.00000   0.00001   0.00005   0.00007   0.00010
   D18       -3.14155   0.00000  -0.00000   0.00013   0.00012  -3.14143
   D19        3.14149   0.00000   0.00001   0.00009   0.00010  -3.14159
   D20       -0.00009   0.00000  -0.00000   0.00016   0.00016   0.00007
   D21        3.14143   0.00000  -0.00007   0.00044   0.00038  -3.14138
   D22       -0.00083   0.00001   0.00004   0.00022   0.00026  -0.00057
   D23       -0.00001   0.00000  -0.00007   0.00040   0.00033   0.00032
   D24        3.14091   0.00001   0.00004   0.00018   0.00022   3.14113
   D25        0.00006  -0.00000   0.00000  -0.00019  -0.00019  -0.00013
   D26        3.14156   0.00000  -0.00001   0.00007   0.00005  -3.14157
   D27       -3.14155  -0.00000   0.00002  -0.00028  -0.00026   3.14137
   D28       -0.00004  -0.00000   0.00000  -0.00003  -0.00003  -0.00007
   D29        0.00016  -0.00001   0.00007  -0.00064  -0.00056  -0.00040
   D30        3.14148   0.00000   0.00001   0.00007   0.00009   3.14157
   D31       -3.14142  -0.00001   0.00006  -0.00055  -0.00049   3.14127
   D32       -0.00010   0.00000  -0.00001   0.00016   0.00016   0.00005
   D33        0.00012  -0.00001   0.00012  -0.00081  -0.00070  -0.00058
   D34       -3.14157  -0.00000   0.00004  -0.00032  -0.00028   3.14134
   D35       -3.14083  -0.00001   0.00001  -0.00060  -0.00059  -3.14142
   D36        0.00068  -0.00001  -0.00007  -0.00011  -0.00018   0.00050
   D37       -0.00017   0.00001  -0.00012   0.00090   0.00079   0.00061
   D38        3.14152   0.00000  -0.00003   0.00035   0.00032  -3.14135
   D39       -3.14149   0.00000  -0.00005   0.00020   0.00015  -3.14134
   D40        0.00020  -0.00000   0.00003  -0.00035  -0.00032  -0.00012
         Item               Value     Threshold  Converged?
 Maximum Force            0.012354     0.000450     NO 
 RMS     Force            0.002431     0.000300     NO 
 Maximum Displacement     0.027793     0.001800     NO 
 RMS     Displacement     0.007600     0.001200     NO 
 Predicted change in Energy=-7.904751D-04
 GradGradGradGradGradGradGradGradGradGradGradGradGradGradGradGradGradGrad

                          Input orientation:                          
 ---------------------------------------------------------------------
 Center     Atomic      Atomic             Coordinates (Angstroms)
 Number     Number       Type             X           Y           Z
 ---------------------------------------------------------------------
      1          6           0       -2.153699    0.693769    0.000055
      2          6           0       -2.110885   -0.691548    0.000037
      3          6           0       -0.901919   -1.402067    0.000031
      4          6           0        0.239910   -0.659248    0.000018
      5          6           0        0.227699    0.747222   -0.000012
[...]
 ! D8    D(15,1,6,16)           -0.0014         -DE/DX =    0.0                 !
 ! D9    D(1,2,3,4)              0.0003         -DE/DX =    0.0                 !
 ! D10   D(1,2,3,14)          -180.0001         -DE/DX =    0.0                 !
 ! D11   D(13,2,3,4)           179.9995         -DE/DX =    0.0                 !
 ! D12   D(13,2,3,14)           -0.0009         -DE/DX =    0.0                 !
 ! D13   D(2,3,4,5)              0.0014         -DE/DX =    0.0                 !
 ! D14   D(2,3,4,7)           -180.0038         -DE/DX =    0.0                 !
 ! D15   D(14,3,4,5)           180.0018         -DE/DX =    0.0                 !
 ! D16   D(14,3,4,7)            -0.0034         -DE/DX =    0.0                 !
 ! D17   D(3,4,5,6)             -0.0009         -DE/DX =    0.0                 !
 ! D18   D(3,4,5,8)            180.0014         -DE/DX =    0.0                 !
 ! D19   D(7,4,5,6)            180.0033         -DE/DX =    0.0                 !
 ! D20   D(7,4,5,8)              0.0056         -DE/DX =    0.0                 !
 ! D21   D(3,4,7,9)           -179.9981         -DE/DX =    0.0                 !
 ! D22   D(3,4,7,10)             0.0022         -DE/DX =    0.0                 !
 ! D23   D(5,4,7,9)             -0.0027         -DE/DX =    0.0                 !
 ! D24   D(5,4,7,10)          -180.0024         -DE/DX =    0.0                 !
 ! D25   D(4,5,6,1)             -0.0014         -DE/DX =    0.0                 !
 ! D26   D(4,5,6,16)           180.0021         -DE/DX =    0.0                 !
 ! D27   D(8,5,6,1)           -180.0045         -DE/DX =    0.0                 !
 ! D28   D(8,5,6,16)            -0.001          -DE/DX =    0.0                 !
 ! D29   D(4,5,8,9)             -0.0063         -DE/DX =    0.0                 !
 ! D30   D(4,5,8,11)          -180.002          -DE/DX =    0.0                 !
 ! D31   D(6,5,8,9)           -180.0035         -DE/DX =    0.0                 !
 ! D32   D(6,5,8,11)             0.0008         -DE/DX =    0.0                 !
 ! D33   D(4,7,9,8)             -0.0013         -DE/DX =    0.0                 !
 ! D34   D(4,7,9,12)           180.0011         -DE/DX =    0.0                 !
 ! D35   D(10,7,9,8)           179.9984         -DE/DX =    0.0                 !
 ! D36   D(10,7,9,12)            0.0007         -DE/DX =    0.0                 !
 ! D37   D(5,8,9,7)              0.0048         -DE/DX =    0.0                 !
 ! D38   D(5,8,9,12)           180.0022         -DE/DX =    0.0                 !
 ! D39   D(11,8,9,7)          -179.9994         -DE/DX =    0.0                 !
 ! D40   D(11,8,9,12)           -0.002          -DE/DX =    0.0                 !
 --------------------------------------------------------------------------------
 GradGradGradGradGradGradGradGradGradGradGradGradGradGradGradGradGradGrad

                          Input orientation:                          
 ---------------------------------------------------------------------
 Center     Atomic      Atomic             Coordinates (Angstroms)
 Number     Number       Type             X           Y           Z
 ---------------------------------------------------------------------
      1          6           0       -2.152186    0.697953   -0.000010
      2          6           0       -2.108834   -0.693263    0.000040
      3          6           0       -0.904674   -1.403127    0.000059
      4          6           0        0.240788   -0.661300    0.000030
      5          6           0        0.231620    0.747498    0.000014
      6          6           0       -0.987837    1.434554    0.000009
      7          7           0        1.577056   -1.061467    0.000108
      8          6           0        1.571485    1.158067   -0.000048
      9          6           0        2.359439   -0.016191    0.000082
     10          1           0        1.923091   -2.042451    0.000173
     11          1           0        1.959445    2.168772   -0.000105
     12          1           0        3.437663   -0.127253    0.000115
     13          1           0       -3.039765   -1.250009    0.000053
     14          1           0       -0.886795   -2.484650    0.000099
     15          1           0       -3.112145    1.201583   -0.000047
     16          1           0       -1.011447    2.518730   -0.000037
 ---------------------------------------------------------------------
                    Distance matrix (angstroms):
                    1          2          3          4          5
     1  C    0.000000
     2  C    1.391891   0.000000
     3  C    2.443527   1.397822   0.000000
     4  C    2.752071   2.349840   1.364695   0.000000
     5  C    2.384321   2.748366   2.432355   1.408827   0.000000
     6  C    1.377784   2.405044   2.838899   2.429429   1.399687
     7  N    4.123446   3.704235   2.505138   1.394899   2.254451
     8  C    3.751991   4.119730   3.562455   2.254074   1.401359
     9  C    4.567796   4.519279   3.546551   2.214688   2.260715
    10  H    4.910977   4.251673   2.899136   2.176631   3.262650
    11  H    4.366786   4.974147   4.578388   3.311055   2.237275
    12  H    5.650431   5.575302   4.525897   3.241174   3.323236
    13  H    2.140643   1.084712   2.140574   3.332958   3.833014
    14  H    3.424934   2.168512   1.081671   2.143840   3.420180
    15  H    1.084050   2.144079   3.414300   3.835687   3.374457
    16  H    2.148608   3.394283   3.923310   3.417702   2.163904
                    6          7          8          9         10
     6  C    0.000000
     7  N    3.578938   0.000000
     8  C    2.574214   2.219542   0.000000
     9  C    3.648139   1.305651   1.414126   0.000000
    10  H    4.534652   1.040226   3.219775   2.072711   0.000000
    11  H    3.037359   3.252794   1.082606   2.221274   4.211380
    12  H    4.693004   2.081974   2.265980   1.083929   2.441703
    13  H    3.378948   4.620669   5.202160   5.538385   5.025724
    14  H    3.920506   2.845349   4.394603   4.078152   2.844468
    15  H    2.137045   5.206727   4.683833   5.605462   5.989771
    16  H    1.084433   4.417936   2.919408   4.217665   5.423642
                   11         12         13         14         15
    11  H    0.000000
    12  H    2.730725   0.000000
    13  H    6.056415   6.574014   0.000000
    14  H    5.454853   4.925267   2.481858   0.000000
    15  H    5.162991   6.683247   2.452661   4.305868   0.000000
    16  H    2.991433   5.176466   4.279891   5.004932   2.479477
                   16
    16  H    0.000000
 Stoichiometry    C8H7N
 Framework group  C1[X(C8H7N)]
 Deg. of freedom    42
 Full point group                 C1      NOp   1
 Largest Abelian subgroup         C1      NOp   1
 Largest concise Abelian subgroup C1      NOp   1
                         Standard orientation:                         
 ---------------------------------------------------------------------
 Center     Atomic      Atomic             Coordinates (Angstroms)
 Number     Number       Type             X           Y           Z
 ---------------------------------------------------------------------
      1          6           0       -2.166386    0.639823   -0.000043
      2          6           0       -2.087027   -0.749804    0.000007
      3          6           0       -0.864891   -1.428251    0.000025
      4          6           0        0.260980   -0.657014   -0.000003
      5          6           0        0.215338    0.751073   -0.000019
      6          6           0       -1.021500    1.406325   -0.000024
      7          7           0        1.607161   -1.022449    0.000075
      8          6           0        1.544124    1.196198   -0.000081
      9          6           0        2.362217    0.042735    0.000048
     10          1           0        1.978480   -1.994144    0.000139
     11          1           0        1.905784    2.216608   -0.000138
     12          1           0        3.442955   -0.040372    0.000082
     13          1           0       -3.003230   -1.330467    0.000020
     14          1           0       -0.819015   -2.508949    0.000066
     15          1           0       -3.139063    1.118429   -0.000081
     16          1           0       -1.073174    2.489526   -0.000070
 ---------------------------------------------------------------------
 Rotational constants (GHZ):           3.9406488           1.6645873           1.1702547

 **********************************************************************

            Population analysis using the CI Density.

 **********************************************************************

 Orbital symmetries:
       Occupied  (A) (A) (A) (A) (A) (A) (A) (A) (A) (A) (A) (A)
                 (A) (A) (A) (A) (A) (A) (A) (A) (A) (A) (A) (A)
                 (A) (A) (A) (A) (A) (A) (A)
       Virtual   (A) (A) (A) (A) (A) (A) (A) (A) (A) (A) (A) (A)
                 (A) (A) (A) (A) (A) (A) (A) (A) (A) (A) (A) (A)
                 (A) (A) (A) (A) (A) (A) (A) (A) (A) (A) (A) (A)
                 (A) (A) (A) (A) (A) (A) (A) (A) (A) (A) (A) (A)
                 (A) (A) (A) (A) (A) (A) (A) (A) (A) (A) (A) (A)
                 (A) (A) (A) (A) (A) (A) (A) (A) (A) (A) (A) (A)
                 (A) (A) (A) (A) (A) (A) (A) (A) (A) (A) (A) (A)
                 (A) (A) (A) (A) (A) (A) (A) (A) (A) (A) (A) (A)
                 (A) (A) (A) (A) (A) (A) (A) (A) (A) (A) (A) (A)
                 (A) (A) (A) (A) (A) (A) (A) (A) (A) (A) (A) (A)
                 (A) (A) (A) (A) (A) (A) (A) (A) (A) (A) (A) (A)
                 (A) (A) (A) (A) (A) (A) (A) (A) (A) (A) (A) (A)
                 (A) (A) (A) (A) (A) (A) (A) (A) (A) (A)
 The electronic state is 1-A.
 Alpha  occ. eigenvalues --  -14.31365 -10.19696 -10.18892 -10.16242 -10.15496
 Alpha  occ. eigenvalues --  -10.15473 -10.15363 -10.15130 -10.14158  -1.16867
 Alpha  occ. eigenvalues --   -1.02198  -0.94928  -0.91115  -0.87383  -0.78423
 Alpha  occ. eigenvalues --   -0.74685  -0.73440  -0.69092  -0.62142  -0.61435
 Alpha  occ. eigenvalues --   -0.58106  -0.58047  -0.57024  -0.53613  -0.52034
 Alpha  occ. eigenvalues --   -0.48152  -0.47773  -0.46273  -0.39875  -0.33697
 Alpha  occ. eigenvalues --   -0.29323
 Alpha virt. eigenvalues --    0.04269   0.05932   0.06350   0.06918   0.08129
 Alpha virt. eigenvalues --    0.08504   0.10160   0.10672   0.10712   0.10966
 Alpha virt. eigenvalues --    0.11594   0.11734   0.13660   0.14743   0.14898
 Alpha virt. eigenvalues --    0.15085   0.16545   0.17918   0.19171   0.19426
 Alpha virt. eigenvalues --    0.20416   0.21432   0.21660   0.22783   0.22973
 Alpha virt. eigenvalues --    0.24068   0.24494   0.24837   0.26094   0.26418
 Alpha virt. eigenvalues --    0.27492   0.27814   0.28290   0.29115   0.29812
 Alpha virt. eigenvalues --    0.30663   0.30847   0.31942   0.32883   0.32943
 Alpha virt. eigenvalues --    0.34461   0.35334   0.37333   0.38127   0.39201
 Alpha virt. eigenvalues --    0.41164   0.42103   0.42748   0.45150   0.47081
 Alpha virt. eigenvalues --    0.48035   0.51548   0.55571   0.57129   0.64126
 Alpha virt. eigenvalues --    0.71106   0.75753   0.78308   0.78840   0.80946
 Alpha virt. eigenvalues --    0.83381   0.83956   0.84724   0.85118   0.86995
 Alpha virt. eigenvalues --    0.86996   0.89123   0.89161   0.90960   0.91959
 Alpha virt. eigenvalues --    0.93966   0.97250   1.00504   1.01348   1.02899
 Alpha virt. eigenvalues --    1.05888   1.06441   1.07592   1.07786   1.10661
 Alpha virt. eigenvalues --    1.12839   1.14613   1.16262   1.16640   1.21518
 Alpha virt. eigenvalues --    1.24142   1.24924   1.30372   1.31211   1.34054
 Alpha virt. eigenvalues --    1.34834   1.38351   1.38427   1.46473   1.46475
 Alpha virt. eigenvalues --    1.49778   1.50339   1.55110   1.56962   1.58628
 Alpha virt. eigenvalues --    1.61916   1.62175   1.65074   1.66043   1.67498
 Alpha virt. eigenvalues --    1.72085   1.79481   1.92455   1.99383   2.04212
 Alpha virt. eigenvalues --    2.05499   2.06928   2.09516   2.14752   2.15507
 Alpha virt. eigenvalues --    2.17020   2.22240   2.26028   2.31299   2.32677
 Alpha virt. eigenvalues --    2.33701   2.35396   2.40817   2.42518   2.44105
 Alpha virt. eigenvalues --    2.46177   2.48265   2.54834   2.58576   2.61688
 Alpha virt. eigenvalues --    2.68953   2.73866   2.79102   2.80304   2.84613
 Alpha virt. eigenvalues --    2.85268   2.89307   2.97086   2.99699   3.01758
 Alpha virt. eigenvalues --    3.11219   3.13861   3.27548   3.41032   3.62424
 Alpha virt. eigenvalues --    4.28529   4.38468   4.41431   4.43979   4.48726
 Alpha virt. eigenvalues --    4.52739   4.60772   4.64741   4.92426
          Condensed to atoms (all electrons):
               1          2          3          4          5          6
     1  C   15.823699   3.941151  -0.275611  -9.108585  -6.457687  -6.908288
     2  C    3.941151  18.976499   7.923892 -21.031786   6.912376 -16.783491
     3  C   -0.275611   7.923892  26.024427 -23.223029   5.820888 -14.360594
     4  C   -9.108585 -21.031786 -23.223029  76.303013 -19.747528  24.589340
     5  C   -6.457687   6.912376   5.820888 -19.747528  57.101647 -16.039074
     6  C   -6.908288 -16.783491 -14.360594  24.589340 -16.039074  41.144103
     7  N   -0.393622  -1.015326  -2.692032   5.029512  -1.905790   0.738581
     8  C   15.218312  13.104232  13.986139 -51.499243 -38.047249  -7.895781
     9  C   -5.921877  -5.579718  -6.710163  24.530800  16.854783   1.357616
    10  H   -0.005052  -0.005503  -0.074098   0.009527   0.500538   0.035397
    11  H   -0.001285  -0.001401   0.011688   0.067525  -0.052606  -0.052148
    12  H    0.004386  -0.000243   0.032221   0.080635  -0.138921  -0.011180
    13  H    0.018240   0.237236  -0.111585   0.142750  -0.072964   0.102588
    14  H    0.030083  -0.039106   0.282567   0.065802  -0.040400  -0.004327
    15  H    0.331625   0.021282   0.012839  -0.029910   0.027816  -0.050270
    16  H   -0.111468  -0.039380  -0.061512   0.162738   0.134861   0.366691
               7          8          9         10         11         12
     1  C   -0.393622  15.218312  -5.921877  -0.005052  -0.001285   0.004386
     2  C   -1.015326  13.104232  -5.579718  -0.005503  -0.001401  -0.000243
     3  C   -2.692032  13.986139  -6.710163  -0.074098   0.011688   0.032221
     4  C    5.029512 -51.499243  24.530800   0.009527   0.067525   0.080635
     5  C   -1.905790 -38.047249  16.854783   0.500538  -0.052606  -0.138921
     6  C    0.738581  -7.895781   1.357616   0.035397  -0.052148  -0.011180
     7  N   13.898800 -19.469816  12.681943  -0.576073   0.006378  -0.075873
     8  C  -19.469816 170.779592 -87.469871   1.172981   0.361466   0.279470
     9  C   12.681943 -87.469871  54.448226  -0.840104  -0.029378   0.158944
    10  H   -0.576073   1.172981  -0.840104   0.373422  -0.000056   0.001296
    11  H    0.006378   0.361466  -0.029378  -0.000056   0.430491  -0.000431
    12  H   -0.075873   0.279470   0.158944   0.001296  -0.000431   0.376887
    13  H    0.002652  -0.021201   0.010242  -0.000013   0.000000  -0.000000
    14  H    0.015256  -0.028956   0.024001  -0.000247   0.000001   0.000002
    15  H   -0.000112   0.002380  -0.001534   0.000000  -0.000002  -0.000000
    16  H    0.002076  -0.214991   0.054530  -0.000002   0.001232  -0.000002
              13         14         15         16
     1  C    0.018240   0.030083   0.331625  -0.111468
     2  C    0.237236  -0.039106   0.021282  -0.039380
     3  C   -0.111585   0.282567   0.012839  -0.061512
     4  C    0.142750   0.065802  -0.029910   0.162738
     5  C   -0.072964  -0.040400   0.027816   0.134861
     6  C    0.102588  -0.004327  -0.050270   0.366691
     7  N    0.002652   0.015256  -0.000112   0.002076
     8  C   -0.021201  -0.028956   0.002380  -0.214991
     9  C    0.010242   0.024001  -0.001534   0.054530
    10  H   -0.000013  -0.000247   0.000000  -0.000002
    11  H    0.000000   0.000001  -0.000002   0.001232
    12  H   -0.000000   0.000002  -0.000000  -0.000002
    13  H    0.476060  -0.002640  -0.003802  -0.000115
    14  H   -0.002640   0.437582  -0.000105   0.000014
    15  H   -0.003802  -0.000105   0.479749  -0.003172
    16  H   -0.000115   0.000014  -0.003172   0.479418
 Mulliken charges:
               1
     1  C   -0.184022
     2  C   -0.620713
     3  C   -0.586035
     4  C   -0.341559
     5  C    1.149311
     6  C   -0.229163
     7  N    0.753444
     8  C   -4.257463
     9  C    2.431561
    10  H    0.407987
    11  H    0.258525
    12  H    0.292810
    13  H    0.222551
    14  H    0.260472
    15  H    0.213215
    16  H    0.229080
 Sum of Mulliken charges =  -0.00000
 Mulliken charges with hydrogens summed into heavy atoms:
               1
     1  C    0.029192
     2  C   -0.398162
     3  C   -0.325563
     4  C   -0.341559
     5  C    1.149311
     6  C   -0.000082
     7  N    1.161431
     8  C   -3.998938
     9  C    2.724370
 Electronic spatial extent (au):  <R**2>=           1028.7531
 Charge=             -0.0000 electrons
 Dipole moment (field-independent basis, Debye):
    X=             -5.9210    Y=              5.1519    Z=             -0.0006  Tot=              7.8486
 Quadrupole moment (field-independent basis, Debye-Ang):
   XX=            -64.7628   YY=            -61.1710   ZZ=            -66.9559
   XY=             13.7149   XZ=             -0.0022   YZ=             -0.0008
 Traceless Quadrupole moment (field-independent basis, Debye-Ang):
   XX=             -0.4662   YY=              3.1256   ZZ=             -2.6593
   XY=             13.7149   XZ=             -0.0022   YZ=             -0.0008
 Octapole moment (field-independent basis, Debye-Ang**2):
  XXX=           -117.6908  YYY=             58.3930  ZZZ=             -0.0065  XYY=            -43.3696
  XXY=             43.8672  XXZ=             -0.0080  XZZ=            -21.3547  YZZ=             16.3900
  YYZ=             -0.0006  XYZ=              0.0016
 Hexadecapole moment (field-independent basis, Debye-Ang**3):
 XXXX=          -1342.8707 YYYY=           -632.4749 ZZZZ=           -150.8703 XXXY=            180.7163
 XXXZ=             -0.0380 YYYX=            117.4818 YYYZ=              0.0013 ZZZX=             -0.0233
 ZZZY=              0.0117 XXYY=           -338.5700 XXZZ=           -256.9677 YYZZ=           -146.3501
 XXYZ=             -0.0018 YYXZ=             -0.0091 ZZXY=             34.3586
 N-N= 4.033623359480D+02 E-N=-1.644790624188D+03  KE= 3.596227251202D+02
 Unable to Open any file for archive entry.
 1\1\GINC-EXP-1-56\FOpt\RLC-BLYP TD-FC\6-31+G(d)\C8H7N1\SCAPARAS\16-Jun
 -2021\0\\# td= (nstates=6, root=3) LC-BLYP/6-31+G* Opt density=current
 \\FuncsLC-BLYP-V-3rd\\0,1\C,-2.1521861739,0.6979527299,-0.0000096368\C
 ,-2.1088338383,-0.6932628851,0.0000404955\C,-0.9046740837,-1.403126874
 3,0.0000585347\C,0.2407884859,-0.6612998009,0.0000300588\C,0.231620326
 6,0.7474975387,0.000014272\C,-0.9878372721,1.4345539534,0.0000090391\N
 ,1.5770558682,-1.0614671634,0.0001080341\C,1.5714853996,1.1580674805,-
 0.0000477112\C,2.3594387502,-0.0161910092,0.0000815817\H,1.9230907144,
 -2.0424514906,0.0001725382\H,1.9594449859,2.1687719129,-0.0001049807\H
 ,3.4376626903,-0.1272526491,0.000115359\H,-3.0397652251,-1.2500093605,
 0.0000534258\H,-0.8867950653,-2.4846498084,0.0000991585\H,-3.112145188
 9,1.2015833167,-0.0000473316\H,-1.0114473737,2.5187301095,-0.000036837
 1\\Version=AS64L-G16RevC.01\State=1-A\HF=-362.72634\RMSD=4.390e-09\RMS
 F=2.090e-05\Dipole=-2.3294942,2.0268995,-0.0002446\Quadrupole=-0.34662
 58,2.3237854,-1.9771596,10.1966722,-0.0016329,-0.0005636\PG=C01 [X(C8H
 7N1)]\\@
 The archive entry for this job was punched.


 EXPERIENCE IS THE FRUIT OF THE TREE OF ERRORS.
 Job cpu time:       0 days  3 hours  5 minutes 10.8 seconds.
 Elapsed time:       0 days  0 hours 47 minutes  0.1 seconds.
 File lengths (MBytes):  RWF=    238 Int=      0 D2E=      0 Chk=     11 Scr=      1
 Normal termination of Gaussian 16 at Wed Jun 16 08:10:27 2021.
