 Entering Gaussian System, Link 0=/opt/gaussian/16.C.01/g16/g16
 Initial command:
 /opt/gaussian/16.C.01/g16/l1.exe "/scratch/scaparas/34078230/Gau-12362.inp" -scrdir="/scratch/scaparas/34078230/"
 Entering Link 1 = /opt/gaussian/16.C.01/g16/l1.exe PID=     12365.
  
 Copyright (c) 1988-2019, Gaussian, Inc.  All Rights Reserved.
  
 This is part of the Gaussian(R) 16 program.  It is based on
 the Gaussian(R) 09 system (copyright 2009, Gaussian, Inc.),
 the Gaussian(R) 03 system (copyright 2003, Gaussian, Inc.),
 the Gaussian(R) 98 system (copyright 1998, Gaussian, Inc.),
 the Gaussian(R) 94 system (copyright 1995, Gaussian, Inc.),
 the Gaussian 92(TM) system (copyright 1992, Gaussian, Inc.),
 the Gaussian 90(TM) system (copyright 1990, Gaussian, Inc.),
 the Gaussian 88(TM) system (copyright 1988, Gaussian, Inc.),
 the Gaussian 86(TM) system (copyright 1986, Carnegie Mellon
 University), and the Gaussian 82(TM) system (copyright 1983,
 Carnegie Mellon University). Gaussian is a federally registered
 trademark of Gaussian, Inc.
  
 This software contains proprietary and confidential information,
 including trade secrets, belonging to Gaussian, Inc.
  
 This software is provided under written license and may be
 used, copied, transmitted, or stored only in accord with that
 written license.
  
 The following legend is applicable only to US Government
 contracts under FAR:
  
                    RESTRICTED RIGHTS LEGEND
  
 Use, reproduction and disclosure by the US Government is
 subject to restrictions as set forth in subparagraphs (a)
 and (c) of the Commercial Computer Software - Restricted
 Rights clause in FAR 52.227-19.
  
 Gaussian, Inc.
 340 Quinnipiac St., Bldg. 40, Wallingford CT 06492
  
  
 ---------------------------------------------------------------
 Warning -- This program may not be used in any manner that
 competes with the business of Gaussian, Inc. or will provide
 assistance to any competitor of Gaussian, Inc.  The licensee
 of this program is prohibited from giving any competitor of
 Gaussian, Inc. access to this program.  By using this program,
 the user acknowledges that Gaussian, Inc. is engaged in the
 business of creating and licensing software in the field of
 computational chemistry and represents and warrants to the
 licensee that it is not a competitor of Gaussian, Inc. and that
 it will not use this program in any manner prohibited above.
 ---------------------------------------------------------------
  

 Cite this work as:
 Gaussian 16, Revision C.01,
 M. J. Frisch, G. W. Trucks, H. B. Schlegel, G. E. Scuseria, 
 M. A. Robb, J. R. Cheeseman, G. Scalmani, V. Barone, 
 G. A. Petersson, H. Nakatsuji, X. Li, M. Caricato, A. V. Marenich, 
 J. Bloino, B. G. Janesko, R. Gomperts, B. Mennucci, H. P. Hratchian, 
 J. V. Ortiz, A. F. Izmaylov, J. L. Sonnenberg, D. Williams-Young, 
 F. Ding, F. Lipparini, F. Egidi, J. Goings, B. Peng, A. Petrone, 
 T. Henderson, D. Ranasinghe, V. G. Zakrzewski, J. Gao, N. Rega, 
 G. Zheng, W. Liang, M. Hada, M. Ehara, K. Toyota, R. Fukuda, 
 J. Hasegawa, M. Ishida, T. Nakajima, Y. Honda, O. Kitao, H. Nakai, 
 T. Vreven, K. Throssell, J. A. Montgomery, Jr., J. E. Peralta, 
 F. Ogliaro, M. J. Bearpark, J. J. Heyd, E. N. Brothers, K. N. Kudin, 
 V. N. Staroverov, T. A. Keith, R. Kobayashi, J. Normand, 
 K. Raghavachari, A. P. Rendell, J. C. Burant, S. S. Iyengar, 
 J. Tomasi, M. Cossi, J. M. Millam, M. Klene, C. Adamo, R. Cammi, 
 J. W. Ochterski, R. L. Martin, K. Morokuma, O. Farkas, 
 J. B. Foresman, and D. J. Fox, Gaussian, Inc., Wallingford CT, 2019.
 
 ******************************************
 Gaussian 16:  ES64L-G16RevC.01  3-Jul-2019
                12-Jun-2020 
 ******************************************
 %Chk=FuncsLSDA.chk
 ------------------------------------------------------------
 # td= (nstates=6, root=1) LSDA/6-31+G(d) Opt density=current
 ------------------------------------------------------------
 1/18=20,19=15,26=3,38=1/1,3;
 2/9=110,12=2,17=6,18=5,40=1/2;
 3/5=1,6=6,7=11,11=9,25=1,30=1,71=1,74=205/1,2,3,8;
 4//1;
 5/5=2,38=5/2;
 8/6=1,10=2,107=1,108=6/1;
 9/8=1,15=2,41=6,42=1,70=2/14;
 10/5=4,28=1/2;
 6/7=2,8=2,9=2,10=2,22=-1/1;
 7/12=6,13=5,14=1/1,2,3,16;
 1/18=20,19=15,26=3/3(2);
 2/9=110/2;
 99//99;
 2/9=110/2;
 3/5=1,6=6,7=11,11=9,25=1,30=1,71=1,74=205/1,2,3,8;
 4/5=5,16=3,69=1/1;
 5/5=2,38=5/2;
 8/6=1,10=2,107=1,108=6/1;
 9/8=1,15=2,41=6,42=1,49=4,70=2/14;
 10/5=4,28=1/2;
 7/12=6,13=5,14=1/1,2,3,16;
 1/18=20,19=15,26=3/3(-8);
 2/9=110/2;
 6/7=2,8=2,9=2,10=2,22=-1/1;
 99/9=10/99;
 ---------
 FuncsLSDA
 ---------
 Symbolic Z-matrix:
 Charge =  0 Multiplicity = 1
 C                    -2.15936   0.69162   0.00011 
 C                    -2.13588  -0.71874  -0.00002 
 C                    -0.93512  -1.41882  -0.00005 
 C                     0.24791  -0.67197  -0.00001 
 C                     0.24999   0.75191  -0.00006 
 C                    -0.98269   1.42884  -0.00006 
 N                     1.56678  -1.08097  -0.00025 
 C                     1.62599   1.16698  -0.0001 
 C                     2.39038   0.03047   0.00027 
 H                     1.88117  -2.03854   0.00076 
 H                     1.99815   2.18234  -0.00037 
 H                     3.46533  -0.08657   0.0004 
 H                    -3.07324  -1.26832   0.00023 
 H                    -0.91789  -2.50582  -0.00015 
 H                    -3.11663   1.20635   0.00023 
 H                    -1.01169   2.51556   0.00019 
 

 GradGradGradGradGradGradGradGradGradGradGradGradGradGradGradGradGradGrad
 Berny optimization.
 Initialization pass.
                           ----------------------------
                           !    Initial Parameters    !
                           ! (Angstroms and Degrees)  !
 --------------------------                            --------------------------
 ! Name  Definition              Value          Derivative Info.                !
 --------------------------------------------------------------------------------
 ! R1    R(1,2)                  1.4106         estimate D2E/DX2                !
 ! R2    R(1,6)                  1.3885         estimate D2E/DX2                !
 ! R3    R(1,15)                 1.0869         estimate D2E/DX2                !
 ! R4    R(2,3)                  1.3899         estimate D2E/DX2                !
 ! R5    R(2,13)                 1.0866         estimate D2E/DX2                !
 ! R6    R(3,4)                  1.3991         estimate D2E/DX2                !
 ! R7    R(3,14)                 1.0871         estimate D2E/DX2                !
 ! R8    R(4,5)                  1.4239         estimate D2E/DX2                !
 ! R9    R(4,7)                  1.3808         estimate D2E/DX2                !
 ! R10   R(5,6)                  1.4063         estimate D2E/DX2                !
 ! R11   R(5,8)                  1.4372         estimate D2E/DX2                !
 ! R12   R(6,16)                 1.0871         estimate D2E/DX2                !
 ! R13   R(7,9)                  1.3833         estimate D2E/DX2                !
 ! R14   R(7,10)                 1.0079         estimate D2E/DX2                !
 ! R15   R(8,9)                  1.3697         estimate D2E/DX2                !
 ! R16   R(8,11)                 1.0814         estimate D2E/DX2                !
 ! R17   R(9,12)                 1.0813         estimate D2E/DX2                !
 ! A1    A(2,1,6)              121.1146         estimate D2E/DX2                !
 ! A2    A(2,1,15)             119.221          estimate D2E/DX2                !
 ! A3    A(6,1,15)             119.6644         estimate D2E/DX2                !
 ! A4    A(1,2,3)              121.1973         estimate D2E/DX2                !
 ! A5    A(1,2,13)             119.4296         estimate D2E/DX2                !
 ! A6    A(3,2,13)             119.3731         estimate D2E/DX2                !
 ! A7    A(2,3,4)              117.4922         estimate D2E/DX2                !
 ! A8    A(2,3,14)             121.1516         estimate D2E/DX2                !
 ! A9    A(4,3,14)             121.3562         estimate D2E/DX2                !
 ! A10   A(3,4,5)              122.348          estimate D2E/DX2                !
 ! A11   A(3,4,7)              130.5063         estimate D2E/DX2                !
 ! A12   A(5,4,7)              107.1457         estimate D2E/DX2                !
 ! A13   A(4,5,6)              118.6898         estimate D2E/DX2                !
 ! A14   A(4,5,8)              106.8696         estimate D2E/DX2                !
 ! A15   A(6,5,8)              134.4406         estimate D2E/DX2                !
 ! A16   A(1,6,5)              119.1581         estimate D2E/DX2                !
 ! A17   A(1,6,16)             120.5398         estimate D2E/DX2                !
 ! A18   A(5,6,16)             120.3021         estimate D2E/DX2                !
 ! A19   A(4,7,9)              109.3098         estimate D2E/DX2                !
 ! A20   A(4,7,10)             125.4054         estimate D2E/DX2                !
 ! A21   A(9,7,10)             125.2847         estimate D2E/DX2                !
 ! A22   A(5,8,9)              107.1379         estimate D2E/DX2                !
 ! A23   A(5,8,11)             126.9153         estimate D2E/DX2                !
 ! A24   A(9,8,11)             125.9467         estimate D2E/DX2                !
 ! A25   A(7,9,8)              109.5369         estimate D2E/DX2                !
 ! A26   A(7,9,12)             120.3254         estimate D2E/DX2                !
 ! A27   A(8,9,12)             130.1377         estimate D2E/DX2                !
 ! D1    D(6,1,2,3)              0.0131         estimate D2E/DX2                !
 ! D2    D(6,1,2,13)           179.9933         estimate D2E/DX2                !
 ! D3    D(15,1,2,3)          -179.994          estimate D2E/DX2                !
 ! D4    D(15,1,2,13)           -0.0138         estimate D2E/DX2                !
 ! D5    D(2,1,6,5)             -0.0143         estimate D2E/DX2                !
 ! D6    D(2,1,6,16)          -179.991          estimate D2E/DX2                !
 ! D7    D(15,1,6,5)           179.9928         estimate D2E/DX2                !
 ! D8    D(15,1,6,16)            0.0162         estimate D2E/DX2                !
 ! D9    D(1,2,3,4)             -0.0029         estimate D2E/DX2                !
 ! D10   D(1,2,3,14)           180.0            estimate D2E/DX2                !
 ! D11   D(13,2,3,4)          -179.9831         estimate D2E/DX2                !
 ! D12   D(13,2,3,14)            0.0198         estimate D2E/DX2                !
 ! D13   D(2,3,4,5)             -0.0057         estimate D2E/DX2                !
 ! D14   D(2,3,4,7)           -179.9877         estimate D2E/DX2                !
 ! D15   D(14,3,4,5)           179.9914         estimate D2E/DX2                !
 ! D16   D(14,3,4,7)             0.0093         estimate D2E/DX2                !
 ! D17   D(3,4,5,6)              0.0043         estimate D2E/DX2                !
 ! D18   D(3,4,5,8)           -179.9957         estimate D2E/DX2                !
 ! D19   D(7,4,5,6)            179.9901         estimate D2E/DX2                !
 ! D20   D(7,4,5,8)             -0.01           estimate D2E/DX2                !
 ! D21   D(3,4,7,9)           -179.9844         estimate D2E/DX2                !
 ! D22   D(3,4,7,10)            -0.0882         estimate D2E/DX2                !
 ! D23   D(5,4,7,9)              0.0315         estimate D2E/DX2                !
 ! D24   D(5,4,7,10)           179.9277         estimate D2E/DX2                !
 ! D25   D(4,5,6,1)              0.0057         estimate D2E/DX2                !
 ! D26   D(4,5,6,16)           179.9824         estimate D2E/DX2                !
 ! D27   D(8,5,6,1)           -179.9942         estimate D2E/DX2                !
 ! D28   D(8,5,6,16)            -0.0175         estimate D2E/DX2                !
 ! D29   D(4,5,8,9)             -0.0151         estimate D2E/DX2                !
 ! D30   D(4,5,8,11)           179.9849         estimate D2E/DX2                !
 ! D31   D(6,5,8,9)            179.9849         estimate D2E/DX2                !
 ! D32   D(6,5,8,11)            -0.0151         estimate D2E/DX2                !
 ! D33   D(4,7,9,8)             -0.0422         estimate D2E/DX2                !
 ! D34   D(4,7,9,12)           179.9865         estimate D2E/DX2                !
 ! D35   D(10,7,9,8)          -179.9385         estimate D2E/DX2                !
 ! D36   D(10,7,9,12)            0.0902         estimate D2E/DX2                !
 ! D37   D(5,8,9,7)              0.0348         estimate D2E/DX2                !
 ! D38   D(5,8,9,12)          -179.9976         estimate D2E/DX2                !
 ! D39   D(11,8,9,7)          -179.9652         estimate D2E/DX2                !
 ! D40   D(11,8,9,12)            0.0024         estimate D2E/DX2                !
 --------------------------------------------------------------------------------
 Trust Radius=3.00D-01 FncErr=1.00D-07 GrdErr=1.00D-06 EigMax=2.50D+02 EigMin=1.00D-04
 Number of steps in this run=     94 maximum allowed number of steps=    100.
 GradGradGradGradGradGradGradGradGradGradGradGradGradGradGradGradGradGrad

                          Input orientation:                          
 ---------------------------------------------------------------------
 Center     Atomic      Atomic             Coordinates (Angstroms)
 Number     Number       Type             X           Y           Z
 ---------------------------------------------------------------------
      1          6           0       -2.159360    0.691620    0.000110
      2          6           0       -2.135880   -0.718740   -0.000020
      3          6           0       -0.935120   -1.418820   -0.000050
      4          6           0        0.247910   -0.671970   -0.000010
      5          6           0        0.249990    0.751910   -0.000060
      6          6           0       -0.982690    1.428840   -0.000060
      7          7           0        1.566780   -1.080970   -0.000250
      8          6           0        1.625990    1.166980   -0.000100
      9          6           0        2.390380    0.030470    0.000270
     10          1           0        1.881170   -2.038540    0.000760
     11          1           0        1.998150    2.182340   -0.000370
     12          1           0        3.465330   -0.086570    0.000400
     13          1           0       -3.073240   -1.268320    0.000230
     14          1           0       -0.917890   -2.505820   -0.000150
     15          1           0       -3.116630    1.206350    0.000230
     16          1           0       -1.011690    2.515560    0.000190
 ---------------------------------------------------------------------
                    Distance matrix (angstroms):
                    1          2          3          4          5
     1  C    0.000000
     2  C    1.410555   0.000000
     3  C    2.439820   1.389941   0.000000
     4  C    2.766645   2.384249   1.399051   0.000000
     5  C    2.410104   2.802711   2.473167   1.423882   0.000000
     6  C    1.388541   2.437611   2.848057   2.434703   1.406319
     7  N    4.126281   3.720336   2.524608   1.380833   2.256853
     8  C    3.815081   4.208041   3.639457   2.298008   1.437240
     9  C    4.597527   4.587848   3.627588   2.254684   2.258704
    10  H    4.876439   4.228305   2.883668   2.129566   3.232238
    11  H    4.416688   5.050393   4.644613   3.348197   2.258804
    12  H    5.678267   5.636771   4.597701   3.270242   3.322869
    13  H    2.162531   1.086592   2.143410   3.374266   3.889111
    14  H    3.429996   2.162673   1.087137   2.173038   3.460744
    15  H    1.086882   2.160519   3.413283   3.853338   3.397153
    16  H    2.154972   3.424106   3.935125   3.427381   2.168478
                    6          7          8          9         10
     6  C    0.000000
     7  N    3.577561   0.000000
     8  C    2.621790   2.248730   0.000000
     9  C    3.651444   1.383335   1.369652   0.000000
    10  H    4.497157   1.007860   3.215661   2.130750   0.000000
    11  H    3.074601   3.291697   1.081415   2.187325   4.222501
    12  H    4.699080   2.143204   2.225884   1.081303   2.513911
    13  H    3.412488   4.643801   5.292773   5.615870   5.013922
    14  H    3.935194   2.864225   4.467749   4.168623   2.837796
    15  H    2.145507   5.212117   4.742783   5.631150   5.958802
    16  H    1.087107   4.425329   2.962435   4.213046   5.395226
                   11         12         13         14         15
    11  H    0.000000
    12  H    2.701957   0.000000
    13  H    6.134008   6.644504   0.000000
    14  H    5.521063   5.006535   2.485345   0.000000
    15  H    5.207066   6.707745   2.475050   4.314471   0.000000
    16  H    3.028229   5.178300   4.309030   5.022256   2.478871
                   16
    16  H    0.000000
 Stoichiometry    C8H7N
 Framework group  C1[X(C8H7N)]
 Deg. of freedom    42
 Full point group                 C1      NOp   1
 Largest Abelian subgroup         C1      NOp   1
 Largest concise Abelian subgroup C1      NOp   1
                         Standard orientation:                         
 ---------------------------------------------------------------------
 Center     Atomic      Atomic             Coordinates (Angstroms)
 Number     Number       Type             X           Y           Z
 ---------------------------------------------------------------------
      1          6           0       -2.159361    0.691618    0.000110
      2          6           0       -2.135879   -0.718742   -0.000020
      3          6           0       -0.935118   -1.418820   -0.000050
      4          6           0        0.247911   -0.671969   -0.000010
      5          6           0        0.249989    0.751911   -0.000060
      6          6           0       -0.982691    1.428840   -0.000060
      7          7           0        1.566782   -1.080967   -0.000250
      8          6           0        1.625989    1.166983   -0.000100
      9          6           0        2.390380    0.030474    0.000270
     10          1           0        1.881173   -2.038537    0.000760
     11          1           0        1.998148    2.182343   -0.000370
     12          1           0        3.465330   -0.086565    0.000400
     13          1           0       -3.073238   -1.268323    0.000230
     14          1           0       -0.917887   -2.505820   -0.000150
     15          1           0       -3.116631    1.206347    0.000230
     16          1           0       -1.011693    2.515560    0.000190
 ---------------------------------------------------------------------
 Rotational constants (GHZ):           3.8785006           1.6312482           1.1482914
 Standard basis: 6-31+G(d) (6D, 7F)
 There are   185 symmetry adapted cartesian basis functions of A   symmetry.
 There are   185 symmetry adapted basis functions of A   symmetry.
   185 basis functions,   316 primitive gaussians,   185 cartesian basis functions
    31 alpha electrons       31 beta electrons
       nuclear repulsion energy       399.8542490966 Hartrees.
 NAtoms=   16 NActive=   16 NUniq=   16 SFac= 1.00D+00 NAtFMM=   60 NAOKFM=F Big=F
 Integral buffers will be    131072 words long.
 Regular integral format.
 Two-electron integral symmetry is turned on.
 One-electron integrals computed using PRISM.
 NBasis=   185 RedAO= T EigKep=  1.31D-06  NBF=   185
 NBsUse=   185 1.00D-06 EigRej= -1.00D+00 NBFU=   185
 ExpMin= 4.38D-02 ExpMax= 4.17D+03 ExpMxC= 6.27D+02 IAcc=3 IRadAn=         5 AccDes= 0.00D+00
 Harris functional with IExCor=  205 and IRadAn=       5 diagonalized for initial guess.
 HarFok:  IExCor=  205 AccDes= 0.00D+00 IRadAn=         5 IDoV= 1 UseB2=F ITyADJ=14
 ICtDFT=  3500011 ScaDFX=  1.000000  1.000000  1.000000  1.000000
 FoFCou: FMM=F IPFlag=           0 FMFlag=      100000 FMFlg1=           0
         NFxFlg=           0 DoJE=T BraDBF=F KetDBF=T FulRan=T
         wScrn=  0.000000 ICntrl=       500 IOpCl=  0 I1Cent=   200000004 NGrid=           0
         NMat0=    1 NMatS0=      1 NMatT0=    0 NMatD0=    1 NMtDS0=    0 NMtDT0=    0
 Petite list used in FoFCou.
 Requested convergence on RMS density matrix=1.00D-08 within 128 cycles.
 Requested convergence on MAX density matrix=1.00D-06.
 Requested convergence on             energy=1.00D-06.
 No special actions if energy rises.
 SCF Done:  E(RS-VWN) =  -361.774587779     A.U. after   15 cycles
            NFock= 15  Conv=0.77D-08     -V/T= 2.0103
 DoSCS=F DFT=T ScalE2(SS,OS)=  1.000000  1.000000
 ExpMin= 4.38D-02 ExpMax= 4.17D+03 ExpMxC= 6.27D+02 IAcc=3 IRadAn=         5 AccDes= 0.00D+00
 HarFok:  IExCor=  205 AccDes= 0.00D+00 IRadAn=         5 IDoV=-2 UseB2=F ITyADJ=14
 ICtDFT= 12500011 ScaDFX=  1.000000  1.000000  1.000000  1.000000
 Range of M.O.s used for correlation:    10   185
 NBasis=   185 NAE=    31 NBE=    31 NFC=     9 NFV=     0
 NROrb=    176 NOA=    22 NOB=    22 NVA=   154 NVB=   154

 **** Warning!!: The largest alpha MO coefficient is  0.19765537D+03

 Orbital symmetries:
       Occupied  (A) (A) (A) (A) (A) (A) (A) (A) (A) (A) (A) (A)
                 (A) (A) (A) (A) (A) (A) (A) (A) (A) (A) (A) (A)
                 (A) (A) (A) (A) (A) (A) (A)
       Virtual   (A) (A) (A) (A) (A) (A) (A) (A) (A) (A) (A) (A)
                 (A) (A) (A) (A) (A) (A) (A) (A) (A) (A) (A) (A)
                 (A) (A) (A) (A) (A) (A) (A) (A) (A) (A) (A) (A)
                 (A) (A) (A) (A) (A) (A) (A) (A) (A) (A) (A) (A)
                 (A) (A) (A) (A) (A) (A) (A) (A) (A) (A) (A) (A)
                 (A) (A) (A) (A) (A) (A) (A) (A) (A) (A) (A) (A)
                 (A) (A) (A) (A) (A) (A) (A) (A) (A) (A) (A) (A)
                 (A) (A) (A) (A) (A) (A) (A) (A) (A) (A) (A) (A)
                 (A) (A) (A) (A) (A) (A) (A) (A) (A) (A) (A) (A)
                 (A) (A) (A) (A) (A) (A) (A) (A) (A) (A) (A) (A)
                 (A) (A) (A) (A) (A) (A) (A) (A) (A) (A) (A) (A)
                 (A) (A) (A) (A) (A) (A) (A) (A) (A) (A) (A) (A)
                 (A) (A) (A) (A) (A) (A) (A) (A) (A) (A)
    24 initial guesses have been made.
 Convergence on wavefunction:    0.000001000000000
 Iteration     1 Dimension    24 NMult     0 NNew     24
 CISAX will form    24 AO SS matrices at one time.
 New state      2 was old state      4
 New state      3 was old state      2
 New state      4 was old state      6
 New state      5 was old state      7
 New state      6 was old state     10
 Iteration     2 Dimension    48 NMult    24 NNew     24
 New state      2 was old state      3
 New state      3 was old state      2
 Iteration     3 Dimension    54 NMult    48 NNew      6
 Iteration     4 Dimension    60 NMult    54 NNew      6
 Iteration     5 Dimension    66 NMult    60 NNew      6
 Iteration     6 Dimension    72 NMult    66 NNew      6
 Iteration     7 Dimension    78 NMult    72 NNew      6
 Iteration     8 Dimension    84 NMult    78 NNew      6
 Iteration     9 Dimension    90 NMult    84 NNew      6
 Iteration    10 Dimension    96 NMult    90 NNew      6
 Iteration    11 Dimension   102 NMult    96 NNew      6
 Iteration    12 Dimension   108 NMult   102 NNew      6
 Iteration    13 Dimension   114 NMult   108 NNew      6
 Iteration    14 Dimension   120 NMult   114 NNew      6
 Iteration    15 Dimension   126 NMult   120 NNew      6
 Iteration    16 Dimension   131 NMult   126 NNew      5
 Iteration    17 Dimension   135 NMult   131 NNew      4
 Iteration    18 Dimension   137 NMult   135 NNew      2
 Iteration    19 Dimension   139 NMult   137 NNew      2
 ***********************************************************************
 Excited states from <AA,BB:AA,BB> singles matrix:
 ***********************************************************************
 
 Ground to excited state transition densities written to RWF  633
 Ground to excited state transition electric dipole moments (Au):
       state          X           Y           Z        Dip. S.      Osc.
         1        -0.4483      0.5334     -0.0002      0.4855      0.0526
         2        -0.3752     -0.1213     -0.0001      0.1555      0.0178
         3         0.0004     -0.0003     -0.1028      0.0106      0.0013
         4        -0.0004      0.0001     -0.1246      0.0155      0.0020
         5         0.0009      0.0001      0.0225      0.0005      0.0001
         6        -0.0020     -0.0005     -0.1023      0.0105      0.0014
 Ground to excited state transition velocity dipole moments (Au):
       state          X           Y           Z        Dip. S.      Osc.
         1         0.0639     -0.0952      0.0000      0.0131      0.0540
         2         0.0599      0.0217      0.0000      0.0041      0.0157
         3        -0.0001      0.0000      0.0098      0.0001      0.0004
         4         0.0001     -0.0000      0.0251      0.0006      0.0022
         5        -0.0002     -0.0000     -0.0033      0.0000      0.0000
         6         0.0004      0.0001      0.0216      0.0005      0.0015
 Ground to excited state transition magnetic dipole moments (Au):
       state          X           Y           Z
         1         0.0002      0.0001      0.2053
         2        -0.0001     -0.0002      0.0170
         3         0.1079     -0.0352      0.0002
         4         0.0138     -0.1890     -0.0000
         5         0.3030     -0.0740      0.0004
         6        -0.0183     -0.3778     -0.0010
 Ground to excited state transition velocity quadrupole moments (Au):
       state          XX          YY          ZZ          XY          XZ          YZ
         1         0.1354     -0.0845      0.0052      0.0619      0.0000      0.0001
         2         0.0446     -0.0826      0.0212      0.0134      0.0001      0.0000
         3        -0.0002      0.0001      0.0001      0.0001      0.0293      0.0507
         4        -0.0000      0.0000      0.0000     -0.0001      0.1144     -0.0411
         5        -0.0000     -0.0001      0.0000      0.0002      0.0966      0.2210
         6         0.0001      0.0000     -0.0000     -0.0006      0.3241      0.0417
 <0|del|b> * <b|rxdel|0> + <0|del|b> * <b|delr+rdel|0>
 Rotatory Strengths (R) in cgs (10**-40 erg-esu-cm/Gauss)
       state          XX          YY          ZZ    R(velocity)    E-M Angle
         1        -0.0012      0.0493      0.0055      0.0179       90.00
         2        -0.0105     -0.0062     -0.0104     -0.0090       90.00
         3        -0.0014     -0.0152     -0.0068     -0.0078       90.00
         4         0.0011     -0.0018      0.0101      0.0031       90.00
         5         0.0036     -0.1688     -0.0273     -0.0642       90.00
         6        -0.1652     -0.0004     -0.0497     -0.0718       90.00
 1/2[<0|r|b>*<b|rxdel|0> + (<0|rxdel|b>*<b|r|0>)*]
 Rotatory Strengths (R) in cgs (10**-40 erg-esu-cm/Gauss)
       state          XX          YY          ZZ     R(length)
         1         0.0770     -0.0301      0.0261      0.0243
         2        -0.0136     -0.0148      0.0011     -0.0091
         3        -0.0296     -0.0065      0.0130     -0.0077
         4         0.0043      0.0084     -0.0007      0.0040
         5        -0.2025      0.0062     -0.0061     -0.0675
         6        -0.0259     -0.1278     -0.0728     -0.0755
  1/2[<0|del|b>*<b|r|0> + (<0|r|b>*<b|del|0>)*] (Au)
       state          X           Y           Z        Dip. S.   Osc.(frdel)
         1        -0.0286     -0.0508     -0.0000      0.0794      0.0530
         2        -0.0225     -0.0026     -0.0000      0.0251      0.0167
         3        -0.0000     -0.0000     -0.0010      0.0010      0.0007
         4        -0.0000     -0.0000     -0.0031      0.0031      0.0021
         5        -0.0000     -0.0000     -0.0001      0.0001      0.0000
         6        -0.0000     -0.0000     -0.0022      0.0022      0.0015

 Excitation energies and oscillator strengths:
 
 Excited State   1:      Singlet-A      4.4201 eV  280.50 nm  f=0.0526  <S**2>=0.000
      29 -> 32         0.14365
      30 -> 33         0.11356
      31 -> 32         0.66062
 This state for optimization and/or second-order correction.
 Total Energy, E(TD-HF/TD-DFT) =  -361.612153826    
 Copying the excited state density for this state as the 1-particle RhoCI density.
 
 Excited State   2:      Singlet-A      4.6729 eV  265.32 nm  f=0.0178  <S**2>=0.000
      30 -> 32         0.54860
      31 -> 33        -0.43945
 
 Excited State   3:      Singlet-A      4.8536 eV  255.45 nm  f=0.0013  <S**2>=0.000
      31 -> 34         0.70678
 
 Excited State   4:      Singlet-A      5.3018 eV  233.85 nm  f=0.0020  <S**2>=0.000
      30 -> 34         0.70642
 
 Excited State   5:      Singlet-A      5.3936 eV  229.87 nm  f=0.0001  <S**2>=0.000
      31 -> 35         0.70636
 
 Excited State   6:      Singlet-A      5.6132 eV  220.88 nm  f=0.0014  <S**2>=0.000
      31 -> 37         0.70666
 SavETr:  write IOETrn=   770 NScale= 10 NData=  16 NLR=1 NState=    6 LETran=     118.
          IDoAtm=1111111111111111
          Differentiating once with respect to electric field.
                with respect to dipole field.
          Differentiating once with respect to nuclear coordinates.
          There are     1 degrees of freedom in the 1st order CPHF.  IDoFFX=0 NUNeed=     1.
 LinEq1:  Iter=  0 NonCon=     1 RMS=2.28D-02 Max=7.96D-01 NDo=     1
 AX will form     1 AO Fock derivatives at one time.
 LinEq1:  Iter=  1 NonCon=     1 RMS=1.13D-02 Max=2.80D-01 NDo=     1
 LinEq1:  Iter=  2 NonCon=     1 RMS=1.25D-02 Max=4.36D-01 NDo=     1
 LinEq1:  Iter=  3 NonCon=     1 RMS=6.12D-03 Max=1.73D-01 NDo=     1
 LinEq1:  Iter=  4 NonCon=     1 RMS=7.34D-03 Max=2.13D-01 NDo=     1
 LinEq1:  Iter=  5 NonCon=     1 RMS=3.38D-03 Max=9.34D-02 NDo=     1
 LinEq1:  Iter=  6 NonCon=     1 RMS=2.43D-03 Max=4.49D-02 NDo=     1
 LinEq1:  Iter=  7 NonCon=     1 RMS=1.47D-03 Max=2.67D-02 NDo=     1
 LinEq1:  Iter=  8 NonCon=     1 RMS=8.10D-04 Max=1.73D-02 NDo=     1
 LinEq1:  Iter=  9 NonCon=     1 RMS=6.62D-04 Max=1.42D-02 NDo=     1
 LinEq1:  Iter= 10 NonCon=     1 RMS=3.50D-04 Max=6.40D-03 NDo=     1
 LinEq1:  Iter= 11 NonCon=     1 RMS=2.52D-04 Max=4.11D-03 NDo=     1
 LinEq1:  Iter= 12 NonCon=     1 RMS=8.94D-05 Max=1.35D-03 NDo=     1
 LinEq1:  Iter= 13 NonCon=     1 RMS=6.12D-05 Max=1.57D-03 NDo=     1
 LinEq1:  Iter= 14 NonCon=     1 RMS=1.76D-05 Max=1.87D-04 NDo=     1
 LinEq1:  Iter= 15 NonCon=     1 RMS=4.01D-06 Max=9.47D-05 NDo=     1
 LinEq1:  Iter= 16 NonCon=     1 RMS=3.29D-06 Max=6.12D-05 NDo=     1
 LinEq1:  Iter= 17 NonCon=     1 RMS=8.32D-07 Max=7.47D-06 NDo=     1
 LinEq1:  Iter= 18 NonCon=     1 RMS=1.57D-07 Max=1.80D-06 NDo=     1
 LinEq1:  Iter= 19 NonCon=     1 RMS=2.78D-08 Max=4.03D-07 NDo=     1
 LinEq1:  Iter= 20 NonCon=     1 RMS=8.65D-09 Max=9.78D-08 NDo=     1
 LinEq1:  Iter= 21 NonCon=     1 RMS=2.82D-09 Max=3.15D-08 NDo=     1
 LinEq1:  Iter= 22 NonCon=     1 RMS=5.75D-10 Max=7.19D-09 NDo=     1
 LinEq1:  Iter= 23 NonCon=     0 RMS=8.35D-11 Max=7.85D-10 NDo=     1
 Linear equations converged to 1.000D-10 1.000D-09 after    23 iterations.
 End of Minotr F.D. properties file   721 does not exist.
 End of Minotr F.D. properties file   722 does not exist.
 End of Minotr F.D. properties file   788 does not exist.

 **********************************************************************

            Population analysis using the CI Density.

 **********************************************************************

 Orbital symmetries:
       Occupied  (A) (A) (A) (A) (A) (A) (A) (A) (A) (A) (A) (A)
                 (A) (A) (A) (A) (A) (A) (A) (A) (A) (A) (A) (A)
                 (A) (A) (A) (A) (A) (A) (A)
       Virtual   (A) (A) (A) (A) (A) (A) (A) (A) (A) (A) (A) (A)
                 (A) (A) (A) (A) (A) (A) (A) (A) (A) (A) (A) (A)
                 (A) (A) (A) (A) (A) (A) (A) (A) (A) (A) (A) (A)
                 (A) (A) (A) (A) (A) (A) (A) (A) (A) (A) (A) (A)
                 (A) (A) (A) (A) (A) (A) (A) (A) (A) (A) (A) (A)
                 (A) (A) (A) (A) (A) (A) (A) (A) (A) (A) (A) (A)
                 (A) (A) (A) (A) (A) (A) (A) (A) (A) (A) (A) (A)
                 (A) (A) (A) (A) (A) (A) (A) (A) (A) (A) (A) (A)
                 (A) (A) (A) (A) (A) (A) (A) (A) (A) (A) (A) (A)
                 (A) (A) (A) (A) (A) (A) (A) (A) (A) (A) (A) (A)
                 (A) (A) (A) (A) (A) (A) (A) (A) (A) (A) (A) (A)
                 (A) (A) (A) (A) (A) (A) (A) (A) (A) (A) (A) (A)
                 (A) (A) (A) (A) (A) (A) (A) (A) (A) (A)
 The electronic state is 1-A.
 Alpha  occ. eigenvalues --  -13.94972  -9.84913  -9.84886  -9.81931  -9.81631
 Alpha  occ. eigenvalues --   -9.81312  -9.81304  -9.80881  -9.80735  -0.91878
 Alpha  occ. eigenvalues --   -0.78012  -0.72855  -0.68335  -0.66588  -0.58584
 Alpha  occ. eigenvalues --   -0.55756  -0.54509  -0.50855  -0.45394  -0.44175
 Alpha  occ. eigenvalues --   -0.41386  -0.40252  -0.40238  -0.38649  -0.36844
 Alpha  occ. eigenvalues --   -0.33289  -0.32190  -0.31408  -0.27261  -0.22473
 Alpha  occ. eigenvalues --   -0.20779
 Alpha virt. eigenvalues --   -0.06777  -0.03402  -0.02955  -0.00934  -0.00411
 Alpha virt. eigenvalues --   -0.00087   0.01327   0.01641   0.02847   0.03531
 Alpha virt. eigenvalues --    0.04183   0.04430   0.05893   0.06310   0.07811
 Alpha virt. eigenvalues --    0.08455   0.08660   0.09788   0.10769   0.10831
 Alpha virt. eigenvalues --    0.12216   0.12502   0.12985   0.13369   0.14114
 Alpha virt. eigenvalues --    0.14579   0.15405   0.15629   0.16255   0.16664
 Alpha virt. eigenvalues --    0.17145   0.17179   0.18382   0.18668   0.19850
 Alpha virt. eigenvalues --    0.20347   0.20700   0.20898   0.21966   0.22461
 Alpha virt. eigenvalues --    0.23760   0.24175   0.25000   0.25270   0.25622
 Alpha virt. eigenvalues --    0.26411   0.27519   0.28756   0.30739   0.31501
 Alpha virt. eigenvalues --    0.32133   0.34883   0.36114   0.39081   0.44796
 Alpha virt. eigenvalues --    0.50439   0.54813   0.59725   0.60910   0.62308
 Alpha virt. eigenvalues --    0.64138   0.64586   0.65225   0.66015   0.66342
 Alpha virt. eigenvalues --    0.67565   0.67663   0.69822   0.71302   0.71628
 Alpha virt. eigenvalues --    0.74045   0.77341   0.81013   0.82317   0.83172
 Alpha virt. eigenvalues --    0.86243   0.86875   0.87501   0.88064   0.90720
 Alpha virt. eigenvalues --    0.91892   0.95286   0.97174   0.98864   1.02539
 Alpha virt. eigenvalues --    1.04049   1.04203   1.09561   1.10747   1.13321
 Alpha virt. eigenvalues --    1.15361   1.16200   1.17539   1.23852   1.24386
 Alpha virt. eigenvalues --    1.26499   1.29345   1.33486   1.33886   1.37087
 Alpha virt. eigenvalues --    1.37840   1.38832   1.41656   1.42145   1.45424
 Alpha virt. eigenvalues --    1.50434   1.56643   1.69821   1.75112   1.78795
 Alpha virt. eigenvalues --    1.80427   1.82787   1.85195   1.89966   1.90298
 Alpha virt. eigenvalues --    1.91508   1.96322   1.99754   2.04127   2.06980
 Alpha virt. eigenvalues --    2.08103   2.09894   2.15421   2.16544   2.17022
 Alpha virt. eigenvalues --    2.18613   2.21552   2.28304   2.31102   2.34804
 Alpha virt. eigenvalues --    2.44485   2.45561   2.53849   2.56082   2.56485
 Alpha virt. eigenvalues --    2.59356   2.63026   2.70159   2.74315   2.74901
 Alpha virt. eigenvalues --    2.85079   2.87695   2.99754   3.12765   3.32683
 Alpha virt. eigenvalues --    4.03708   4.14514   4.17992   4.21275   4.24754
 Alpha virt. eigenvalues --    4.28429   4.36672   4.40649   4.67199
          Condensed to atoms (all electrons):
               1          2          3          4          5          6
     1  C    5.591163   0.645135  -0.022089  -0.583141  -0.124088  -0.010971
     2  C    0.645135   5.947559  -0.388847   0.676837  -0.696031   0.338761
     3  C   -0.022089  -0.388847  16.065322  -4.865995  -4.341217  -2.590712
     4  C   -0.583141   0.676837  -4.865995  15.839560  -2.492107  -0.969936
     5  C   -0.124088  -0.696031  -4.341217  -2.492107  16.733794  -1.194272
     6  C   -0.010971   0.338761  -2.590712  -0.969936  -1.194272  13.152033
     7  N   -0.017936   0.001708  -0.357218  -0.492096   0.659076   0.124899
     8  C    0.241734  -0.385466   4.303433  -0.036225  -6.641007  -3.075359
     9  C   -0.103459   0.074184  -1.713489   0.023026   2.498234   0.858336
    10  H   -0.001513  -0.011340  -0.138243  -0.068221   0.180035   0.025505
    11  H    0.005791   0.001293   0.001803   0.038187  -0.036391   0.003690
    12  H    0.001101   0.000704   0.038950   0.107342  -0.099702  -0.029966
    13  H   -0.018386   0.258762  -0.023621   0.040476  -0.005562   0.038714
    14  H    0.030309   0.040772   0.128412   0.068985   0.038993  -0.022518
    15  H    0.268091  -0.015783   0.046471  -0.029199   0.045002  -0.029960
    16  H    0.013498   0.031380  -0.056304   0.057295   0.109394   0.192253
               7          8          9         10         11         12
     1  C   -0.017936   0.241734  -0.103459  -0.001513   0.005791   0.001101
     2  C    0.001708  -0.385466   0.074184  -0.011340   0.001293   0.000704
     3  C   -0.357218   4.303433  -1.713489  -0.138243   0.001803   0.038950
     4  C   -0.492096  -0.036225   0.023026  -0.068221   0.038187   0.107342
     5  C    0.659076  -6.641007   2.498234   0.180035  -0.036391  -0.099702
     6  C    0.124899  -3.075359   0.858336   0.025505   0.003690  -0.029966
     7  N    7.238894  -0.496024   0.519807   0.243749   0.007062  -0.058795
     8  C   -0.496024  14.859803  -3.356089   0.024788   0.309259   0.016608
     9  C    0.519807  -3.356089   7.315901  -0.049582  -0.052403   0.321891
    10  H    0.243749   0.024788  -0.049582   0.352711  -0.000070  -0.002692
    11  H    0.007062   0.309259  -0.052403  -0.000070   0.481833  -0.001034
    12  H   -0.058795   0.016608   0.321891  -0.002692  -0.001034   0.474924
    13  H   -0.000571  -0.003015   0.002111  -0.000003   0.000000  -0.000000
    14  H   -0.011318  -0.020182   0.016287   0.002923   0.000003   0.000004
    15  H    0.000322   0.004930  -0.000351  -0.000000  -0.000003  -0.000000
    16  H   -0.001116  -0.082559   0.007206   0.000006   0.001867  -0.000001
              13         14         15         16
     1  C   -0.018386   0.030309   0.268091   0.013498
     2  C    0.258762   0.040772  -0.015783   0.031380
     3  C   -0.023621   0.128412   0.046471  -0.056304
     4  C    0.040476   0.068985  -0.029199   0.057295
     5  C   -0.005562   0.038993   0.045002   0.109394
     6  C    0.038714  -0.022518  -0.029960   0.192253
     7  N   -0.000571  -0.011318   0.000322  -0.001116
     8  C   -0.003015  -0.020182   0.004930  -0.082559
     9  C    0.002111   0.016287  -0.000351   0.007206
    10  H   -0.000003   0.002923  -0.000000   0.000006
    11  H    0.000000   0.000003  -0.000003   0.001867
    12  H   -0.000000   0.000004  -0.000000  -0.000001
    13  H    0.532910  -0.005583  -0.005466  -0.000197
    14  H   -0.005583   0.546359  -0.000198   0.000023
    15  H   -0.005466  -0.000198   0.532433  -0.005509
    16  H   -0.000197   0.000023  -0.005509   0.542239
 Mulliken charges:
               1
     1  C    0.084763
     2  C   -0.519628
     3  C   -0.086657
     4  C   -1.314786
     5  C    1.365847
     6  C   -0.810498
     7  N   -0.360441
     8  C    0.335373
     9  C   -0.361608
    10  H    0.441947
    11  H    0.239114
    12  H    0.230668
    13  H    0.189432
    14  H    0.186730
    15  H    0.189219
    16  H    0.190526
 Sum of Mulliken charges =  -0.00000
 Mulliken charges with hydrogens summed into heavy atoms:
               1
     1  C    0.273982
     2  C   -0.330197
     3  C    0.100073
     4  C   -1.314786
     5  C    1.365847
     6  C   -0.619971
     7  N    0.081506
     8  C    0.574487
     9  C   -0.130941
 Electronic spatial extent (au):  <R**2>=           1013.4431
 Charge=              0.0000 electrons
 Dipole moment (field-independent basis, Debye):
    X=              4.5775    Y=             -1.1199    Z=              0.0006  Tot=              4.7125
 Quadrupole moment (field-independent basis, Debye-Ang):
   XX=            -44.9658   YY=            -45.8263   ZZ=            -60.0933
   XY=             -2.4303   XZ=             -0.0002   YZ=             -0.0009
 Traceless Quadrupole moment (field-independent basis, Debye-Ang):
   XX=              5.3294   YY=              4.4688   ZZ=             -9.7982
   XY=             -2.4303   XZ=             -0.0002   YZ=             -0.0009
 Octapole moment (field-independent basis, Debye-Ang**2):
  XXX=             27.2949  YYY=             -8.4586  ZZZ=             -0.0066  XYY=             17.2726
  XXY=             -5.5960  XXZ=              0.0051  XZZ=              5.8015  YZZ=             -0.7890
  YYZ=              0.0002  XYZ=             -0.0063
 Hexadecapole moment (field-independent basis, Debye-Ang**3):
 XXXX=           -846.2952 YYYY=           -396.9371 ZZZZ=            -83.3239 XXXY=            -17.5810
 XXXZ=             -0.0185 YYYX=            -15.9034 YYYZ=              0.0060 ZZZX=             -0.0141
 ZZZY=              0.0108 XXYY=           -194.2045 XXZZ=           -198.4965 YYZZ=           -102.8689
 XXYZ=             -0.0069 YYXZ=              0.0021 ZZXY=             -1.9927
 N-N= 3.998542490966D+02 E-N=-1.639876646269D+03  KE= 3.582442149922D+02
 Calling FoFJK, ICntrl=  10005527 FMM=F ISym2X=0 I1Cent= 0 IOpClX= 0 NMat=1 NMatS=1 NMatT=0.
 ***** Axes restored to original set *****
 -------------------------------------------------------------------
 Center     Atomic                   Forces (Hartrees/Bohr)
 Number     Number              X              Y              Z
 -------------------------------------------------------------------
      1        6          -0.012955582   -0.039136918   -0.000017117
      2        6          -0.023121867    0.042660245    0.000023516
      3        6           0.026454160   -0.025211057   -0.000008975
      4        6          -0.013430619    0.035087333   -0.000036159
      5        6          -0.000277795   -0.030884440   -0.000009272
      6        6           0.011705775    0.023557964    0.000019816
      7        7           0.016215150    0.043314226    0.000066450
      8        6          -0.031593731    0.009900272    0.000004519
      9        6           0.023365813   -0.053597221   -0.000034034
     10        1           0.004711657   -0.011391125   -0.000001184
     11        1           0.002956317    0.006594170    0.000002454
     12        1           0.006230732   -0.001013750   -0.000002056
     13        1          -0.005524229   -0.002452259   -0.000005565
     14        1           0.000481714   -0.005805001   -0.000003457
     15        1          -0.005399799    0.002484373    0.000001434
     16        1           0.000182303    0.005893187   -0.000000370
 -------------------------------------------------------------------
 Cartesian Forces:  Max     0.053597221 RMS     0.017961395

 GradGradGradGradGradGradGradGradGradGradGradGradGradGradGradGradGradGrad
 Berny optimization.
 FormGI is forming the generalized inverse of G from B-inverse, IUseBI=4.
 Internal  Forces:  Max     0.034956742 RMS     0.009025766
 Search for a local minimum.
 Step number   1 out of a maximum of   94
 All quantities printed in internal units (Hartrees-Bohrs-Radians)
 Mixed Optimization -- RFO/linear search
 Second derivative matrix not updated -- first step.
 ITU=  0
     Eigenvalues ---    0.01790   0.01867   0.01928   0.01947   0.02010
     Eigenvalues ---    0.02041   0.02076   0.02089   0.02098   0.02135
     Eigenvalues ---    0.02159   0.02173   0.02275   0.16000   0.16000
     Eigenvalues ---    0.16000   0.16000   0.16000   0.16000   0.16000
     Eigenvalues ---    0.22000   0.22188   0.22662   0.24010   0.24651
     Eigenvalues ---    0.35146   0.35149   0.35175   0.35209   0.35824
     Eigenvalues ---    0.35837   0.36510   0.37931   0.41898   0.42676
     Eigenvalues ---    0.44901   0.45975   0.46333   0.46561   0.46716
     Eigenvalues ---    0.47115   0.50040
 RFO step:  Lambda=-1.63925044D-02 EMin= 1.79046333D-02
 Linear search not attempted -- first point.
 Iteration  1 RMS(Cart)=  0.02750534 RMS(Int)=  0.00040192
 Iteration  2 RMS(Cart)=  0.00052219 RMS(Int)=  0.00016813
 Iteration  3 RMS(Cart)=  0.00000013 RMS(Int)=  0.00016813
 Variable       Old X    -DE/DX   Delta X   Delta X   Delta X     New X
                                 (Linear)    (Quad)   (Total)
    R1        2.66556  -0.01951   0.00000  -0.04088  -0.04089   2.62467
    R2        2.62396   0.02511   0.00000   0.05196   0.05194   2.67590
    R3        2.05391   0.00593   0.00000   0.01611   0.01611   2.07002
    R4        2.62661   0.03471   0.00000   0.07183   0.07183   2.69844
    R5        2.05336   0.00601   0.00000   0.01630   0.01630   2.06966
    R6        2.64382   0.00650   0.00000   0.01273   0.01275   2.65657
    R7        2.05439   0.00581   0.00000   0.01580   0.01580   2.07019
    R8        2.69075  -0.02256   0.00000  -0.05723  -0.05737   2.63337
    R9        2.60940   0.01816   0.00000   0.03299   0.03336   2.64276
   R10        2.65756   0.01206   0.00000   0.02513   0.02513   2.68269
   R11        2.71599   0.00226   0.00000   0.00693   0.00646   2.72245
   R12        2.05433   0.00589   0.00000   0.01600   0.01600   2.07033
   R13        2.61412  -0.02898   0.00000  -0.05676  -0.05636   2.55777
   R14        1.90458   0.01229   0.00000   0.02562   0.02562   1.93020
   R15        2.58827   0.03496   0.00000   0.06979   0.06967   2.65794
   R16        2.04358   0.00721   0.00000   0.01924   0.01924   2.06282
   R17        2.04337   0.00630   0.00000   0.01682   0.01682   2.06019
    A1        2.11385   0.00094   0.00000   0.00900   0.00892   2.12277
    A2        2.08080  -0.00085   0.00000  -0.00665  -0.00661   2.07419
    A3        2.08854  -0.00009   0.00000  -0.00235  -0.00231   2.08622
    A4        2.11529   0.00035   0.00000   0.00653   0.00647   2.12176
    A5        2.08444  -0.00087   0.00000  -0.00721  -0.00719   2.07725
    A6        2.08345   0.00052   0.00000   0.00069   0.00071   2.08417
    A7        2.05063  -0.00637   0.00000  -0.02755  -0.02757   2.02306
    A8        2.11449   0.00359   0.00000   0.01604   0.01605   2.13055
    A9        2.11807   0.00279   0.00000   0.01151   0.01152   2.12958
   A10        2.13538   0.00480   0.00000   0.01837   0.01828   2.15366
   A11        2.27776  -0.00745   0.00000  -0.01922  -0.01931   2.25845
   A12        1.87005   0.00265   0.00000   0.00086   0.00103   1.87107
   A13        2.07153   0.00724   0.00000   0.02371   0.02399   2.09552
   A14        1.86523  -0.00485   0.00000  -0.01985  -0.02044   1.84478
   A15        2.34643  -0.00239   0.00000  -0.00386  -0.00355   2.34288
   A16        2.07970  -0.00695   0.00000  -0.03005  -0.03010   2.04960
   A17        2.10382   0.00382   0.00000   0.01700   0.01703   2.12084
   A18        2.09967   0.00313   0.00000   0.01305   0.01307   2.11274
   A19        1.90782   0.01308   0.00000   0.04977   0.05045   1.95826
   A20        2.18874  -0.00566   0.00000  -0.01990  -0.02024   2.16850
   A21        2.18663  -0.00742   0.00000  -0.02987  -0.03021   2.15642
   A22        1.86991   0.00747   0.00000   0.03955   0.03902   1.90893
   A23        2.21509  -0.00322   0.00000  -0.01684  -0.01658   2.19851
   A24        2.19819  -0.00425   0.00000  -0.02271  -0.02244   2.17574
   A25        1.91178  -0.01835   0.00000  -0.07032  -0.07005   1.84173
   A26        2.10007   0.00883   0.00000   0.03323   0.03309   2.13317
   A27        2.27133   0.00951   0.00000   0.03709   0.03696   2.30829
    D1        0.00023  -0.00000   0.00000  -0.00013  -0.00013   0.00010
    D2        3.14148   0.00000   0.00000   0.00001   0.00001   3.14148
    D3       -3.14149  -0.00000   0.00000  -0.00006  -0.00006  -3.14155
    D4       -0.00024   0.00000   0.00000   0.00008   0.00008  -0.00016
    D5       -0.00025   0.00001   0.00000   0.00017   0.00017  -0.00008
    D6       -3.14143  -0.00000   0.00000  -0.00001  -0.00001  -3.14144
    D7        3.14147   0.00000   0.00000   0.00010   0.00010   3.14156
    D8        0.00028  -0.00000   0.00000  -0.00008  -0.00008   0.00020
    D9       -0.00005   0.00000   0.00000   0.00005   0.00005   0.00000
   D10        3.14159  -0.00000   0.00000   0.00002   0.00002  -3.14157
   D11       -3.14130  -0.00000   0.00000  -0.00008  -0.00008  -3.14138
   D12        0.00035  -0.00001   0.00000  -0.00012  -0.00012   0.00023
   D13       -0.00010  -0.00000   0.00000  -0.00003  -0.00002  -0.00012
   D14       -3.14138  -0.00001   0.00000  -0.00020  -0.00019  -3.14157
   D15        3.14144  -0.00000   0.00000   0.00001   0.00001   3.14145
   D16        0.00016  -0.00001   0.00000  -0.00016  -0.00016   0.00000
   D17        0.00008   0.00001   0.00000   0.00007   0.00006   0.00014
   D18       -3.14152   0.00001   0.00000   0.00009   0.00008  -3.14144
   D19        3.14142   0.00001   0.00000   0.00020   0.00020  -3.14157
   D20       -0.00017   0.00001   0.00000   0.00022   0.00022   0.00004
   D21       -3.14132  -0.00000   0.00000  -0.00028  -0.00030   3.14157
   D22       -0.00154   0.00002   0.00000   0.00030   0.00029  -0.00125
   D23        0.00055  -0.00001   0.00000  -0.00043  -0.00045   0.00010
   D24        3.14033   0.00001   0.00000   0.00014   0.00013   3.14046
   D25        0.00010  -0.00001   0.00000  -0.00014  -0.00013  -0.00003
   D26        3.14129   0.00000   0.00000   0.00004   0.00004   3.14133
   D27       -3.14149  -0.00001   0.00000  -0.00017  -0.00016   3.14154
   D28       -0.00031  -0.00000   0.00000   0.00001   0.00002  -0.00029
   D29       -0.00026   0.00001   0.00000   0.00010   0.00010  -0.00016
   D30        3.14133  -0.00000   0.00000  -0.00008  -0.00007   3.14126
   D31        3.14133   0.00001   0.00000   0.00013   0.00012   3.14145
   D32       -0.00026  -0.00000   0.00000  -0.00005  -0.00005  -0.00032
   D33       -0.00074   0.00002   0.00000   0.00055   0.00054  -0.00020
   D34        3.14136   0.00001   0.00000   0.00033   0.00033  -3.14150
   D35       -3.14052   0.00000   0.00000  -0.00004  -0.00005  -3.14057
   D36        0.00157  -0.00001   0.00000  -0.00026  -0.00027   0.00131
   D37        0.00061  -0.00002   0.00000  -0.00040  -0.00039   0.00022
   D38       -3.14155  -0.00001   0.00000  -0.00015  -0.00015   3.14148
   D39       -3.14099  -0.00001   0.00000  -0.00022  -0.00022  -3.14120
   D40        0.00004   0.00000   0.00000   0.00002   0.00002   0.00006
         Item               Value     Threshold  Converged?
 Maximum Force            0.034957     0.000450     NO 
 RMS     Force            0.009026     0.000300     NO 
 Maximum Displacement     0.101527     0.001800     NO 
 RMS     Displacement     0.027470     0.001200     NO 
 Predicted change in Energy=-8.552521D-03
 GradGradGradGradGradGradGradGradGradGradGradGradGradGradGradGradGradGrad

                          Input orientation:                          
 ---------------------------------------------------------------------
 Center     Atomic      Atomic             Coordinates (Angstroms)
 Number     Number       Type             X           Y           Z
 ---------------------------------------------------------------------
      1          6           0       -2.185858    0.683290    0.000077
      2          6           0       -2.155765   -0.705299   -0.000046
      3          6           0       -0.923212   -1.426314   -0.000073
      4          6           0        0.245521   -0.645076    0.000036
      5          6           0        0.236638    0.748418    0.000022
      6          6           0       -0.996496    1.451764    0.000064
      7          7           0        1.584042   -1.050203    0.000020
      8          6           0        1.621047    1.147053   -0.000060
      9          6           0        2.436562    0.001086    0.000120
     10          1           0        1.889598   -2.024848    0.000980
     11          1           0        1.992641    2.173456   -0.000388
     12          1           0        3.519056   -0.128340    0.000041
     13          1           0       -3.101762   -1.257195    0.000075
     14          1           0       -0.889858   -2.521304   -0.000187
     15          1           0       -3.156608    1.190801    0.000136
     16          1           0       -1.022346    2.547033    0.000302
 ---------------------------------------------------------------------
                    Distance matrix (angstroms):
                    1          2          3          4          5
     1  C    0.000000
     2  C    1.388915   0.000000
     3  C    2.458598   1.427953   0.000000
     4  C    2.770588   2.402041   1.405799   0.000000
     5  C    2.423372   2.799444   2.464693   1.393522   0.000000
     6  C    1.416028   2.448842   2.879011   2.437076   1.419618
     7  N    4.149355   3.755678   2.535307   1.398488   2.247339
     8  C    3.835049   4.206604   3.618767   2.259159   1.440659
     9  C    4.672490   4.646336   3.650418   2.284335   2.323396
    10  H    4.893195   4.255135   2.875786   2.146337   3.228511
    11  H    4.436266   5.049407   4.632553   3.316105   2.261478
    12  H    5.762360   5.704075   4.628010   3.314068   3.397495
    13  H    2.145778   1.095217   2.185105   3.402792   3.894535
    14  H    3.456738   2.213683   1.095497   2.193016   3.458334
    15  H    1.095409   2.144034   3.440545   3.865866   3.421961
    16  H    2.197111   3.444169   3.974583   3.434682   2.195462
                    6          7          8          9         10
     6  C    0.000000
     7  N    3.594303   0.000000
     8  C    2.635219   2.197567   0.000000
     9  C    3.726976   1.353513   1.406523   0.000000
    10  H    4.518448   1.021420   3.183250   2.098470   0.000000
    11  H    3.075026   3.249451   1.091598   2.217264   4.199569
    12  H    4.784029   2.143387   2.286715   1.090204   2.500375
    13  H    3.430831   4.690374   5.299560   5.679463   5.050047
    14  H    3.974498   2.878249   4.445389   4.174628   2.823446
    15  H    2.175818   5.243649   4.777855   5.718301   5.983694
    16  H    1.095574   4.442224   2.991232   4.294867   5.420471
                   11         12         13         14         15
    11  H    0.000000
    12  H    2.761921   0.000000
    13  H    6.141850   6.716364   0.000000
    14  H    5.509045   5.016452   2.547645   0.000000
    15  H    5.242173   6.804750   2.448610   4.349469   0.000000
    16  H    3.038043   5.270858   4.335449   5.070068   2.528723
                   16
    16  H    0.000000
 Stoichiometry    C8H7N
 Framework group  C1[X(C8H7N)]
 Deg. of freedom    42
 Full point group                 C1      NOp   1
 Largest Abelian subgroup         C1      NOp   1
 Largest concise Abelian subgroup C1      NOp   1
                         Standard orientation:                         
 ---------------------------------------------------------------------
 Center     Atomic      Atomic             Coordinates (Angstroms)
 Number     Number       Type             X           Y           Z
 ---------------------------------------------------------------------
      1          6           0       -2.193204    0.656136    0.000046
      2          6           0       -2.147506   -0.732027   -0.000078
      3          6           0       -0.906926   -1.439143   -0.000104
      4          6           0        0.252951   -0.644817    0.000004
      5          6           0        0.228407    0.748489   -0.000010
      6          6           0       -1.012555    1.437930    0.000033
      7          7           0        1.595942   -1.034874   -0.000011
      8          6           0        1.608248    1.162659   -0.000091
      9          6           0        2.436591    0.025930    0.000089
     10          1           0        1.912433   -2.006023    0.000949
     11          1           0        1.968282    2.193174   -0.000419
     12          1           0        3.520472   -0.091320    0.000010
     13          1           0       -3.087240   -1.294520    0.000044
     14          1           0       -0.861267   -2.533688   -0.000219
     15          1           0       -3.169597    1.152704    0.000105
     16          1           0       -1.050713    2.532839    0.000271
 ---------------------------------------------------------------------
 Rotational constants (GHZ):           3.9153830           1.5980626           1.1348669
 Standard basis: 6-31+G(d) (6D, 7F)
 There are   185 symmetry adapted cartesian basis functions of A   symmetry.
 There are   185 symmetry adapted basis functions of A   symmetry.
   185 basis functions,   316 primitive gaussians,   185 cartesian basis functions
    31 alpha electrons       31 beta electrons
       nuclear repulsion energy       398.1229233245 Hartrees.
 NAtoms=   16 NActive=   16 NUniq=   16 SFac= 1.00D+00 NAtFMM=   60 NAOKFM=F Big=F
 Integral buffers will be    131072 words long.
 Regular integral format.
 Two-electron integral symmetry is turned on.
 One-electron integrals computed using PRISM.
 NBasis=   185 RedAO= T EigKep=  1.30D-06  NBF=   185
 NBsUse=   185 1.00D-06 EigRej= -1.00D+00 NBFU=   185
 Initial guess from the checkpoint file:  "FuncsLSDA.chk"
 B after Tr=    -0.000000    0.000000   -0.000000
         Rot=    0.999984    0.000002    0.000004   -0.005724 Ang=   0.66 deg.
 ExpMin= 4.38D-02 ExpMax= 4.17D+03 ExpMxC= 6.27D+02 IAcc=3 IRadAn=         5 AccDes= 0.00D+00
 Harris functional with IExCor=  205 and IRadAn=       5 diagonalized for initial guess.
 HarFok:  IExCor=  205 AccDes= 0.00D+00 IRadAn=         5 IDoV= 1 UseB2=F ITyADJ=14
 ICtDFT=  3500011 ScaDFX=  1.000000  1.000000  1.000000  1.000000
 FoFCou: FMM=F IPFlag=           0 FMFlag=      100000 FMFlg1=           0
         NFxFlg=           0 DoJE=T BraDBF=F KetDBF=T FulRan=T
         wScrn=  0.000000 ICntrl=       500 IOpCl=  0 I1Cent=   200000004 NGrid=           0
         NMat0=    1 NMatS0=      1 NMatT0=    0 NMatD0=    1 NMtDS0=    0 NMtDT0=    0
 Petite list used in FoFCou.
 Requested convergence on RMS density matrix=1.00D-08 within 128 cycles.
 Requested convergence on MAX density matrix=1.00D-06.
 Requested convergence on             energy=1.00D-06.
 No special actions if energy rises.
 SCF Done:  E(RS-VWN) =  -361.768001836     A.U. after   13 cycles
            NFock= 13  Conv=0.62D-08     -V/T= 2.0109
 DoSCS=F DFT=T ScalE2(SS,OS)=  1.000000  1.000000
 ExpMin= 4.38D-02 ExpMax= 4.17D+03 ExpMxC= 6.27D+02 IAcc=3 IRadAn=         5 AccDes= 0.00D+00
 HarFok:  IExCor=  205 AccDes= 0.00D+00 IRadAn=         5 IDoV=-2 UseB2=F ITyADJ=14
 ICtDFT= 12500011 ScaDFX=  1.000000  1.000000  1.000000  1.000000
 Range of M.O.s used for correlation:    10   185
 NBasis=   185 NAE=    31 NBE=    31 NFC=     9 NFV=     0
 NROrb=    176 NOA=    22 NOB=    22 NVA=   154 NVB=   154

 **** Warning!!: The largest alpha MO coefficient is  0.19169221D+03

 Orbital symmetries:
       Occupied  (A) (A) (A) (A) (A) (A) (A) (A) (A) (A) (A) (A)
                 (A) (A) (A) (A) (A) (A) (A) (A) (A) (A) (A) (A)
                 (A) (A) (A) (A) (A) (A) (A)
       Virtual   (A) (A) (A) (A) (A) (A) (A) (A) (A) (A) (A) (A)
                 (A) (A) (A) (A) (A) (A) (A) (A) (A) (A) (A) (A)
                 (A) (A) (A) (A) (A) (A) (A) (A) (A) (A) (A) (A)
                 (A) (A) (A) (A) (A) (A) (A) (A) (A) (A) (A) (A)
                 (A) (A) (A) (A) (A) (A) (A) (A) (A) (A) (A) (A)
                 (A) (A) (A) (A) (A) (A) (A) (A) (A) (A) (A) (A)
                 (A) (A) (A) (A) (A) (A) (A) (A) (A) (A) (A) (A)
                 (A) (A) (A) (A) (A) (A) (A) (A) (A) (A) (A) (A)
                 (A) (A) (A) (A) (A) (A) (A) (A) (A) (A) (A) (A)
                 (A) (A) (A) (A) (A) (A) (A) (A) (A) (A) (A) (A)
                 (A) (A) (A) (A) (A) (A) (A) (A) (A) (A) (A) (A)
                 (A) (A) (A) (A) (A) (A) (A) (A) (A) (A) (A) (A)
                 (A) (A) (A) (A) (A) (A) (A) (A) (A) (A)
 Generating guess from densities on rwf.
 Convergence on wavefunction:    0.000001000000000
 Iteration     1 Dimension     6 NMult     0 NNew      6
 CISAX will form     6 AO SS matrices at one time.
 New state      4 was old state      5
 New state      5 was old state      4
 Iteration     2 Dimension    12 NMult     6 NNew      6
 Iteration     3 Dimension    18 NMult    12 NNew      6
 Iteration     4 Dimension    24 NMult    18 NNew      6
 Iteration     5 Dimension    30 NMult    24 NNew      6
 Iteration     6 Dimension    36 NMult    30 NNew      6
 Iteration     7 Dimension    42 NMult    36 NNew      6
 Iteration     8 Dimension    48 NMult    42 NNew      6
 Iteration     9 Dimension    54 NMult    48 NNew      6
 Iteration    10 Dimension    60 NMult    54 NNew      6
 Iteration    11 Dimension    66 NMult    60 NNew      6
 Iteration    12 Dimension    72 NMult    66 NNew      6
 Iteration    13 Dimension    78 NMult    72 NNew      6
 Iteration    14 Dimension    84 NMult    78 NNew      6
 Iteration    15 Dimension    90 NMult    84 NNew      6
 Iteration    16 Dimension    96 NMult    90 NNew      6
 Iteration    17 Dimension   102 NMult    96 NNew      6
 Iteration    18 Dimension   108 NMult   102 NNew      6
 Iteration    19 Dimension   114 NMult   108 NNew      6
 Iteration    20 Dimension   119 NMult   114 NNew      5
 Iteration    21 Dimension   124 NMult   119 NNew      5
 Iteration    22 Dimension   129 NMult   124 NNew      5
 Iteration    23 Dimension   133 NMult   129 NNew      4
 Iteration    24 Dimension   137 NMult   133 NNew      4
 Iteration    25 Dimension   141 NMult   137 NNew      4
 Iteration    26 Dimension   144 NMult   141 NNew      3
 Iteration    27 Dimension   146 NMult   144 NNew      2
 Iteration    28 Dimension   148 NMult   146 NNew      2
 Iteration    29 Dimension   151 NMult   148 NNew      3
 Iteration    30 Dimension   153 NMult   151 NNew      2
 New state      5 was old state      6
 New state      6 was old state      5
 Iteration    31 Dimension   155 NMult   153 NNew      2
 Iteration    32 Dimension   157 NMult   155 NNew      2
 Iteration    33 Dimension   159 NMult   157 NNew      2
 Iteration    34 Dimension   161 NMult   159 NNew      2
 Iteration    35 Dimension   162 NMult   161 NNew      1
 Iteration    36 Dimension   163 NMult   162 NNew      1
 No map to state      6
 Iteration    37 Dimension   165 NMult   163 NNew      2
 Iteration    38 Dimension   167 NMult   165 NNew      2
 Iteration    39 Dimension   169 NMult   167 NNew      2
 New state      5 was old state      6
 New state      6 was old state      5
 Iteration    40 Dimension   171 NMult   169 NNew      2
 Iteration    41 Dimension   173 NMult   171 NNew      2
 New state      5 was old state      6
 New state      6 was old state      5
 Iteration    42 Dimension   175 NMult   173 NNew      2
 Iteration    43 Dimension   177 NMult   175 NNew      2
 Iteration    44 Dimension   179 NMult   177 NNew      2
 Iteration    45 Dimension   181 NMult   179 NNew      2
 Iteration    46 Dimension   184 NMult   181 NNew      3
 Iteration    47 Dimension   187 NMult   184 NNew      3
 Iteration    48 Dimension   189 NMult   187 NNew      2
 New state      5 was old state      6
 New state      6 was old state      5
 Iteration    49 Dimension   191 NMult   189 NNew      2
 Iteration    50 Dimension   193 NMult   191 NNew      2
 Iteration    51 Dimension   195 NMult   193 NNew      2
 Iteration    52 Dimension   197 NMult   195 NNew      2
 Iteration    53 Dimension   199 NMult   197 NNew      2
 Iteration    54 Dimension   201 NMult   199 NNew      2
 Iteration    55 Dimension   203 NMult   201 NNew      2
 Iteration    56 Dimension   205 NMult   203 NNew      2
 Iteration    57 Dimension   207 NMult   205 NNew      2
 Iteration    58 Dimension   209 NMult   207 NNew      2
 Iteration    59 Dimension   211 NMult   209 NNew      2
 Iteration    60 Dimension   212 NMult   211 NNew      1
 Iteration    61 Dimension   214 NMult   212 NNew      2
 Iteration    62 Dimension   215 NMult   214 NNew      1
 Iteration    63 Dimension   216 NMult   215 NNew      1
 Iteration    64 Dimension   217 NMult   216 NNew      1
 Iteration    65 Dimension   218 NMult   217 NNew      1
 Iteration    66 Dimension   219 NMult   218 NNew      1
 Iteration    67 Dimension   220 NMult   219 NNew      1
 Iteration    68 Dimension   221 NMult   220 NNew      1
 Iteration    69 Dimension   222 NMult   221 NNew      1
 Iteration    70 Dimension   223 NMult   222 NNew      1
 Iteration    71 Dimension   224 NMult   223 NNew      1
 Iteration    72 Dimension   225 NMult   224 NNew      1
 Iteration    73 Dimension   226 NMult   225 NNew      1
 Iteration    74 Dimension   227 NMult   226 NNew      1
 Iteration    75 Dimension   228 NMult   227 NNew      1
 Iteration    76 Dimension   229 NMult   228 NNew      1
 Iteration    77 Dimension   230 NMult   229 NNew      1
 Iteration    78 Dimension   231 NMult   230 NNew      1
 Iteration    79 Dimension   232 NMult   231 NNew      1
 Iteration    80 Dimension   233 NMult   232 NNew      1
 Iteration    81 Dimension   234 NMult   233 NNew      1
 Iteration    82 Dimension   235 NMult   234 NNew      1
 Iteration    83 Dimension   236 NMult   235 NNew      1
 Iteration    84 Dimension   237 NMult   236 NNew      1
 Iteration    85 Dimension   238 NMult   237 NNew      1
 Iteration    86 Dimension   239 NMult   238 NNew      1
 Iteration    87 Dimension   240 NMult   239 NNew      1
 Iteration    88 Dimension   241 NMult   240 NNew      1
 Iteration    89 Dimension   242 NMult   241 NNew      1
 Iteration    90 Dimension   243 NMult   242 NNew      1
 Iteration    91 Dimension   244 NMult   243 NNew      1
 Iteration    92 Dimension   245 NMult   244 NNew      1
 Iteration    93 Dimension   246 NMult   245 NNew      1
 Iteration    94 Dimension   247 NMult   246 NNew      1
 Iteration    95 Dimension   248 NMult   247 NNew      1
 Iteration    96 Dimension   249 NMult   248 NNew      1
 Iteration    97 Dimension   250 NMult   249 NNew      1
 Iteration    98 Dimension   251 NMult   250 NNew      1
 Iteration    99 Dimension   252 NMult   251 NNew      1
 Iteration   100 Dimension   253 NMult   252 NNew      1
 Iteration   101 Dimension   254 NMult   253 NNew      1
 Iteration   102 Dimension   255 NMult   254 NNew      1
 Iteration   103 Dimension   256 NMult   255 NNew      1
 ***********************************************************************
 Excited states from <AA,BB:AA,BB> singles matrix:
 ***********************************************************************
 
 Ground to excited state transition densities written to RWF  633
 Ground to excited state transition electric dipole moments (Au):
       state          X           Y           Z        Dip. S.      Osc.
         1        -0.5114      0.5362     -0.0001      0.5490      0.0536
         2        -0.1532     -0.1589     -0.0021      0.0487      0.0055
         3         0.0035      0.0032     -0.0995      0.0099      0.0011
         4         0.0006      0.0001      0.0200      0.0004      0.0001
         5         0.0003     -0.0003     -0.1182      0.0140      0.0019
         6        -0.0007     -0.0001     -0.1139      0.0130      0.0017
 Ground to excited state transition velocity dipole moments (Au):
       state          X           Y           Z        Dip. S.      Osc.
         1         0.0654     -0.0878      0.0000      0.0120      0.0546
         2         0.0235      0.0287      0.0002      0.0014      0.0054
         3        -0.0005     -0.0006      0.0090      0.0001      0.0003
         4        -0.0001     -0.0000     -0.0023      0.0000      0.0000
         5        -0.0001      0.0000      0.0232      0.0005      0.0018
         6         0.0001      0.0000      0.0245      0.0006      0.0020
 Ground to excited state transition magnetic dipole moments (Au):
       state          X           Y           Z
         1         0.0001      0.0000      0.2237
         2         0.0026     -0.0009      0.0822
         3         0.1242     -0.0390     -0.0015
         4         0.2878     -0.0593      0.0002
         5        -0.0063     -0.3646      0.0001
         6         0.0230     -0.1928     -0.0001
 Ground to excited state transition velocity quadrupole moments (Au):
       state          XX          YY          ZZ          XY          XZ          YZ
         1         0.1233     -0.0840      0.0067      0.0706      0.0000      0.0000
         2         0.0028     -0.0572      0.0214      0.0117      0.0007      0.0012
         3        -0.0001      0.0014     -0.0004     -0.0002      0.0315      0.0575
         4         0.0001     -0.0002      0.0000      0.0001      0.0834      0.1999
         5        -0.0001      0.0002     -0.0000      0.0001      0.3228      0.0555
         6         0.0001     -0.0001      0.0000     -0.0000      0.1185     -0.0310
 <0|del|b> * <b|rxdel|0> + <0|del|b> * <b|delr+rdel|0>
 Rotatory Strengths (R) in cgs (10**-40 erg-esu-cm/Gauss)
       state          XX          YY          ZZ    R(velocity)    E-M Angle
         1         0.0028      0.0232      0.0037      0.0099       90.00
         2        -0.0600      0.2163      0.0530      0.0698       90.00
         3         0.0537     -0.2260     -0.0645     -0.0789       90.00
         4         0.0047     -0.0986     -0.0187     -0.0375       90.00
         5        -0.0524     -0.0043      0.0039     -0.0176       90.00
         6        -0.0211     -0.0043      0.0086     -0.0056       90.00
 1/2[<0|r|b>*<b|rxdel|0> + (<0|rxdel|b>*<b|r|0>)*]
 Rotatory Strengths (R) in cgs (10**-40 erg-esu-cm/Gauss)
       state          XX          YY          ZZ     R(length)
         1         0.0392     -0.0084      0.0118      0.0142
         2         0.2791     -0.1045      0.1246      0.0998
         3        -0.3053      0.0888     -0.1084     -0.1083
         4        -0.1212      0.0043     -0.0028     -0.0399
         5         0.0015     -0.0734      0.0104     -0.0205
         6         0.0106     -0.0187     -0.0060     -0.0047
  1/2[<0|del|b>*<b|r|0> + (<0|r|b>*<b|del|0>)*] (Au)
       state          X           Y           Z        Dip. S.   Osc.(frdel)
         1        -0.0335     -0.0471     -0.0000      0.0805      0.0537
         2        -0.0036     -0.0046     -0.0000      0.0082      0.0054
         3        -0.0000     -0.0000     -0.0009      0.0009      0.0006
         4        -0.0000     -0.0000     -0.0000      0.0000      0.0000
         5        -0.0000     -0.0000     -0.0027      0.0027      0.0018
         6        -0.0000     -0.0000     -0.0028      0.0028      0.0019

 Excitation energies and oscillator strengths:
 
 Excited State   1:      Singlet-A      3.9827 eV  311.31 nm  f=0.0536  <S**2>=0.000
      29 -> 32         0.15796
      31 -> 32         0.66916
 This state for optimization and/or second-order correction.
 Total Energy, E(TD-HF/TD-DFT) =  -361.621641033    
 Copying the excited state density for this state as the 1-particle RhoCI density.
 
 Excited State   2:      Singlet-A      4.6026 eV  269.38 nm  f=0.0055  <S**2>=0.000
      30 -> 32         0.52687
      31 -> 33        -0.46256
 
 Excited State   3:      Singlet-A      4.6060 eV  269.18 nm  f=0.0011  <S**2>=0.000
      31 -> 34         0.70670
 
 Excited State   4:      Singlet-A      5.1627 eV  240.15 nm  f=0.0001  <S**2>=0.000
      31 -> 35        -0.70681
 
 Excited State   5:      Singlet-A      5.4160 eV  228.92 nm  f=0.0019  <S**2>=0.000
      31 -> 37         0.70646
 
 Excited State   6:      Singlet-A      5.4584 eV  227.14 nm  f=0.0017  <S**2>=0.000
      30 -> 34         0.70663
 SavETr:  write IOETrn=   770 NScale= 10 NData=  16 NLR=1 NState=    6 LETran=     118.
          IDoAtm=1111111111111111
          Differentiating once with respect to electric field.
                with respect to dipole field.
          Differentiating once with respect to nuclear coordinates.
          There are     1 degrees of freedom in the 1st order CPHF.  IDoFFX=0 NUNeed=     1.
 LinEq1:  Iter=  0 NonCon=     1 RMS=2.79D-02 Max=1.00D+00 NDo=     1
 AX will form     1 AO Fock derivatives at one time.
 LinEq1:  Iter=  1 NonCon=     1 RMS=1.29D-02 Max=3.09D-01 NDo=     1
 LinEq1:  Iter=  2 NonCon=     1 RMS=1.57D-02 Max=6.39D-01 NDo=     1
 LinEq1:  Iter=  3 NonCon=     1 RMS=8.53D-03 Max=1.98D-01 NDo=     1
 LinEq1:  Iter=  4 NonCon=     1 RMS=1.08D-02 Max=3.01D-01 NDo=     1
 LinEq1:  Iter=  5 NonCon=     1 RMS=4.62D-03 Max=1.19D-01 NDo=     1
 LinEq1:  Iter=  6 NonCon=     1 RMS=3.34D-03 Max=5.48D-02 NDo=     1
 LinEq1:  Iter=  7 NonCon=     1 RMS=1.45D-03 Max=2.63D-02 NDo=     1
 LinEq1:  Iter=  8 NonCon=     1 RMS=8.55D-04 Max=1.34D-02 NDo=     1
 LinEq1:  Iter=  9 NonCon=     1 RMS=4.18D-04 Max=7.61D-03 NDo=     1
 LinEq1:  Iter= 10 NonCon=     1 RMS=2.32D-04 Max=5.25D-03 NDo=     1
 LinEq1:  Iter= 11 NonCon=     1 RMS=2.28D-04 Max=5.52D-03 NDo=     1
 LinEq1:  Iter= 12 NonCon=     1 RMS=1.25D-04 Max=2.15D-03 NDo=     1
 LinEq1:  Iter= 13 NonCon=     1 RMS=9.67D-05 Max=1.92D-03 NDo=     1
 LinEq1:  Iter= 14 NonCon=     1 RMS=2.35D-05 Max=2.70D-04 NDo=     1
 LinEq1:  Iter= 15 NonCon=     1 RMS=4.36D-06 Max=8.12D-05 NDo=     1
 LinEq1:  Iter= 16 NonCon=     1 RMS=3.18D-06 Max=7.77D-05 NDo=     1
 LinEq1:  Iter= 17 NonCon=     1 RMS=1.11D-06 Max=1.44D-05 NDo=     1
 LinEq1:  Iter= 18 NonCon=     1 RMS=2.04D-07 Max=2.53D-06 NDo=     1
 LinEq1:  Iter= 19 NonCon=     1 RMS=3.75D-08 Max=4.17D-07 NDo=     1
 LinEq1:  Iter= 20 NonCon=     1 RMS=7.09D-09 Max=9.71D-08 NDo=     1
 LinEq1:  Iter= 21 NonCon=     1 RMS=1.88D-09 Max=2.51D-08 NDo=     1
 LinEq1:  Iter= 22 NonCon=     1 RMS=6.86D-10 Max=8.20D-09 NDo=     1
 LinEq1:  Iter= 23 NonCon=     1 RMS=1.17D-10 Max=9.98D-10 NDo=     1
 LinEq1:  Iter= 24 NonCon=     0 RMS=2.39D-11 Max=2.23D-10 NDo=     1
 Linear equations converged to 1.000D-10 1.000D-09 after    24 iterations.
 End of Minotr F.D. properties file   721 does not exist.
 End of Minotr F.D. properties file   722 does not exist.
 End of Minotr F.D. properties file   788 does not exist.
 Calling FoFJK, ICntrl=  10005527 FMM=F ISym2X=0 I1Cent= 0 IOpClX= 0 NMat=1 NMatS=1 NMatT=0.
 ***** Axes restored to original set *****
 -------------------------------------------------------------------
 Center     Atomic                   Forces (Hartrees/Bohr)
 Number     Number              X              Y              Z
 -------------------------------------------------------------------
      1        6          -0.000667942   -0.009901253   -0.000006340
      2        6           0.001952915    0.009514748    0.000014409
      3        6           0.000256881   -0.013284911    0.000006369
      4        6          -0.007164928    0.014875008   -0.000012566
      5        6          -0.000995635   -0.012123242    0.000003826
      6        6           0.004494522    0.010955020   -0.000001769
      7        7           0.014251192    0.005903532    0.000034988
      8        6          -0.006072587    0.012394703   -0.000005052
      9        6          -0.004219938   -0.018284995   -0.000017403
     10        1          -0.001015225   -0.001544606   -0.000018032
     11        1           0.000644710    0.000856864    0.000003787
     12        1          -0.000867565    0.001050625    0.000005650
     13        1           0.000190020   -0.001193457   -0.000004666
     14        1          -0.000841811    0.000906077   -0.000001693
     15        1           0.000035729    0.000867378    0.000000949
     16        1           0.000019661   -0.000991492   -0.000002456
 -------------------------------------------------------------------
 Cartesian Forces:  Max     0.018284995 RMS     0.005989425

 GradGradGradGradGradGradGradGradGradGradGradGradGradGradGradGradGradGrad
 Berny optimization.
 Using GEDIIS/GDIIS optimizer.
 FormGI is forming the generalized inverse of G from B-inverse, IUseBI=4.
 Internal  Forces:  Max     0.010908971 RMS     0.002504862
 Search for a local minimum.
 Step number   2 out of a maximum of   94
 All quantities printed in internal units (Hartrees-Bohrs-Radians)
 Mixed Optimization -- RFO/linear search
 Update second derivatives using D2CorX and points    1    2
 DE= -9.49D-03 DEPred=-8.55D-03 R= 1.11D+00
 TightC=F SS=  1.41D+00  RLast= 2.08D-01 DXNew= 5.0454D-01 6.2306D-01
 Trust test= 1.11D+00 RLast= 2.08D-01 DXMaxT set to 5.05D-01
 ITU=  1  0
 Use linear search instead of GDIIS.
     Eigenvalues ---    0.01790   0.01868   0.01928   0.01945   0.02009
     Eigenvalues ---    0.02041   0.02076   0.02085   0.02098   0.02136
     Eigenvalues ---    0.02159   0.02172   0.02278   0.15942   0.16000
     Eigenvalues ---    0.16000   0.16000   0.16000   0.16000   0.16015
     Eigenvalues ---    0.19409   0.22003   0.23920   0.24631   0.25246
     Eigenvalues ---    0.35065   0.35147   0.35192   0.35368   0.35694
     Eigenvalues ---    0.35984   0.36469   0.37778   0.40841   0.42033
     Eigenvalues ---    0.43580   0.44918   0.45961   0.46357   0.46821
     Eigenvalues ---    0.48283   0.50132
 RFO step:  Lambda=-1.69059057D-03 EMin= 1.78996433D-02
 Quartic linear search produced a step of  0.16716.
 Iteration  1 RMS(Cart)=  0.01045878 RMS(Int)=  0.00009063
 Iteration  2 RMS(Cart)=  0.00015478 RMS(Int)=  0.00002516
 Iteration  3 RMS(Cart)=  0.00000001 RMS(Int)=  0.00002516
 Variable       Old X    -DE/DX   Delta X   Delta X   Delta X     New X
                                 (Linear)    (Quad)   (Total)
    R1        2.62467  -0.00327  -0.00684  -0.00582  -0.01267   2.61200
    R2        2.67590   0.00351   0.00868   0.00467   0.01333   2.68923
    R3        2.07002   0.00037   0.00269  -0.00000   0.00269   2.07271
    R4        2.69844   0.00085   0.01201  -0.00315   0.00886   2.70730
    R5        2.06966   0.00044   0.00272   0.00020   0.00293   2.07259
    R6        2.65657   0.00293   0.00213   0.00664   0.00880   2.66538
    R7        2.07019  -0.00093   0.00264  -0.00428  -0.00164   2.06855
    R8        2.63337  -0.00436  -0.00959  -0.00777  -0.01735   2.61603
    R9        2.64276   0.00591   0.00558   0.01083   0.01646   2.65922
   R10        2.68269  -0.00144   0.00420  -0.00557  -0.00137   2.68132
   R11        2.72245  -0.00141   0.00108  -0.00363  -0.00261   2.71984
   R12        2.07033  -0.00099   0.00267  -0.00449  -0.00182   2.06852
   R13        2.55777  -0.01091  -0.00942  -0.02253  -0.03190   2.52587
   R14        1.93020   0.00117   0.00428   0.00107   0.00535   1.93556
   R15        2.65794   0.00960   0.01165   0.01736   0.02899   2.68693
   R16        2.06282   0.00103   0.00322   0.00186   0.00508   2.06790
   R17        2.06019  -0.00099   0.00281  -0.00447  -0.00166   2.05853
    A1        2.12277   0.00231   0.00149   0.01160   0.01304   2.13581
    A2        2.07419  -0.00034  -0.00111   0.00027  -0.00081   2.07337
    A3        2.08622  -0.00197  -0.00039  -0.01186  -0.01222   2.07400
    A4        2.12176   0.00298   0.00108   0.01555   0.01661   2.13837
    A5        2.07725  -0.00032  -0.00120   0.00100  -0.00019   2.07706
    A6        2.08417  -0.00266   0.00012  -0.01655  -0.01642   2.06775
    A7        2.02306  -0.00642  -0.00461  -0.03047  -0.03505   1.98801
    A8        2.13055   0.00237   0.00268   0.00895   0.01162   2.14216
    A9        2.12958   0.00405   0.00192   0.02152   0.02343   2.15301
   A10        2.15366   0.00357   0.00306   0.01678   0.01987   2.17353
   A11        2.25845  -0.00419  -0.00323  -0.01790  -0.02118   2.23728
   A12        1.87107   0.00063   0.00017   0.00112   0.00131   1.87238
   A13        2.09552   0.00290   0.00401   0.01155   0.01561   2.11113
   A14        1.84478   0.00139  -0.00342   0.00948   0.00599   1.85078
   A15        2.34288  -0.00429  -0.00059  -0.02103  -0.02160   2.32128
   A16        2.04960  -0.00534  -0.00503  -0.02501  -0.03007   2.01953
   A17        2.12084   0.00266   0.00285   0.01229   0.01516   2.13600
[...]
 ! D9    D(1,2,3,4)              0.0051         -DE/DX =    0.0                 !
 ! D10   D(1,2,3,14)          -179.9932         -DE/DX =    0.0                 !
 ! D11   D(13,2,3,4)           180.0032         -DE/DX =    0.0                 !
 ! D12   D(13,2,3,14)            0.0049         -DE/DX =    0.0                 !
 ! D13   D(2,3,4,5)             -0.0086         -DE/DX =    0.0                 !
 ! D14   D(2,3,4,7)           -180.0007         -DE/DX =    0.0                 !
 ! D15   D(14,3,4,5)           179.9897         -DE/DX =    0.0                 !
 ! D16   D(14,3,4,7)            -0.0024         -DE/DX =    0.0                 !
 ! D17   D(3,4,5,6)              0.0089         -DE/DX =    0.0                 !
 ! D18   D(3,4,5,8)            180.0109         -DE/DX =    0.0                 !
 ! D19   D(7,4,5,6)            180.0024         -DE/DX =    0.0                 !
 ! D20   D(7,4,5,8)              0.0044         -DE/DX =    0.0                 !
 ! D21   D(3,4,7,9)           -180.0115         -DE/DX =    0.0                 !
 ! D22   D(3,4,7,10)            -0.0169         -DE/DX =    0.0                 !
 ! D23   D(5,4,7,9)             -0.0047         -DE/DX =    0.0                 !
 ! D24   D(5,4,7,10)           179.9899         -DE/DX =    0.0                 !
 ! D25   D(4,5,6,1)             -0.0047         -DE/DX =    0.0                 !
 ! D26   D(4,5,6,16)           179.9928         -DE/DX =    0.0                 !
 ! D27   D(8,5,6,1)           -180.0073         -DE/DX =    0.0                 !
 ! D28   D(8,5,6,16)            -0.0098         -DE/DX =    0.0                 !
 ! D29   D(4,5,8,9)             -0.0029         -DE/DX =    0.0                 !
 ! D30   D(4,5,8,11)           179.9918         -DE/DX =    0.0                 !
 ! D31   D(6,5,8,9)           -180.0006         -DE/DX =    0.0                 !
 ! D32   D(6,5,8,11)            -0.0059         -DE/DX =    0.0                 !
 ! D33   D(4,7,9,8)              0.0028         -DE/DX =    0.0                 !
 ! D34   D(4,7,9,12)           180.0008         -DE/DX =    0.0                 !
 ! D35   D(10,7,9,8)          -179.9917         -DE/DX =    0.0                 !
 ! D36   D(10,7,9,12)            0.0062         -DE/DX =    0.0                 !
 ! D37   D(5,8,9,7)              0.0            -DE/DX =    0.0                 !
 ! D38   D(5,8,9,12)          -179.9977         -DE/DX =    0.0                 !
 ! D39   D(11,8,9,7)          -179.9948         -DE/DX =    0.0                 !
 ! D40   D(11,8,9,12)            0.0075         -DE/DX =    0.0                 !
 --------------------------------------------------------------------------------
 GradGradGradGradGradGradGradGradGradGradGradGradGradGradGradGradGradGrad

                          Input orientation:                          
 ---------------------------------------------------------------------
 Center     Atomic      Atomic             Coordinates (Angstroms)
 Number     Number       Type             X           Y           Z
 ---------------------------------------------------------------------
      1          6           0       -2.171683    0.681898    0.000035
      2          6           0       -2.136559   -0.702207    0.000052
      3          6           0       -0.922272   -1.452956    0.000061
      4          6           0        0.234784   -0.639315    0.000166
      5          6           0        0.225933    0.742266    0.000082
      6          6           0       -0.989296    1.474093    0.000065
      7          7           0        1.589584   -1.049201    0.000218
      8          6           0        1.608439    1.154933   -0.000023
      9          6           0        2.424471   -0.009629    0.000069
     10          1           0        1.879625   -2.029591    0.000434
     11          1           0        1.985140    2.180397   -0.000232
     12          1           0        3.508439   -0.119265    0.000068
     13          1           0       -3.086225   -1.251412    0.000027
     14          1           0       -0.898890   -2.544922   -0.000033
     15          1           0       -3.146925    1.182763    0.000018
     16          1           0       -1.011366    2.566470    0.000115
 ---------------------------------------------------------------------
                    Distance matrix (angstroms):
                    1          2          3          4          5
     1  C    0.000000
     2  C    1.384551   0.000000
     3  C    2.473587   1.427627   0.000000
     4  C    2.745302   2.372177   1.414493   0.000000
     5  C    2.398376   2.769093   2.477373   1.381610   0.000000
     6  C    1.423240   2.460182   2.927816   2.442307   1.418574
     7  N    4.140512   3.742265   2.544099   1.415447   2.251422
     8  C    3.809605   4.180189   3.633949   2.259702   1.442781
     9  C    4.647886   4.613313   3.644706   2.278428   2.323556
    10  H    4.874964   4.229856   2.860618   2.153688   3.227676
    11  H    4.418674   5.029693   4.653418   3.318813   2.272230
    12  H    5.736345   5.675018   4.627087   3.314705   3.393683
    13  H    2.138708   1.097037   2.173318   3.376945   3.865895
    14  H    3.468770   2.219780   1.092216   2.217331   3.474311
    15  H    1.096341   2.138680   3.449072   3.841344   3.401501
    16  H    2.213131   3.456922   4.020414   3.439469   2.204229
                    6          7          8          9         10
     6  C    0.000000
     7  N    3.607996   0.000000
     8  C    2.617268   2.204214   0.000000
     9  C    3.722262   1.333321   1.422010   0.000000
    10  H    4.528412   1.022394   3.196050   2.092153   0.000000
    11  H    3.057145   3.253731   1.092465   2.233658   4.211311
    12  H    4.771625   2.132319   2.287702   1.089499   2.510454
    13  H    3.438820   4.680179   5.275449   5.648875   5.026453
    14  H    4.020031   2.903392   4.469410   4.180004   2.825900
    15  H    2.177208   5.236047   4.755446   5.697565   5.965353
    16  H    1.092600   4.453989   2.975872   4.294329   5.429697
                   11         12         13         14         15
    11  H    0.000000
    12  H    2.758421   0.000000
    13  H    6.123402   6.691139   0.000000
    14  H    5.535907   5.030741   2.541181   0.000000
    15  H    5.228132   6.781530   2.434932   4.353079   0.000000
    16  H    3.021274   5.257548   4.345257   5.112629   2.544653
                   16
    16  H    0.000000
 Stoichiometry    C8H7N
 Framework group  C1[X(C8H7N)]
 Deg. of freedom    42
 Full point group                 C1      NOp   1
 Largest Abelian subgroup         C1      NOp   1
 Largest concise Abelian subgroup C1      NOp   1
                         Standard orientation:                         
 ---------------------------------------------------------------------
 Center     Atomic      Atomic             Coordinates (Angstroms)
 Number     Number       Type             X           Y           Z
 ---------------------------------------------------------------------
      1          6           0       -2.179951    0.652714   -0.000045
      2          6           0       -2.127646   -0.730848   -0.000028
      3          6           0       -0.904132   -1.466464   -0.000019
      4          6           0        0.242733   -0.638520    0.000086
      5          6           0        0.216731    0.742845    0.000002
      6          6           0       -1.007490    1.459527   -0.000015
      7          7           0        1.602518   -1.031555    0.000138
      8          6           0        1.594007    1.172643   -0.000103
      9          6           0        2.424434    0.018302   -0.000011
     10          1           0        1.904708   -2.008269    0.000353
     11          1           0        1.957947    2.202705   -0.000312
     12          1           0        3.509680   -0.077868   -0.000012
     13          1           0       -3.070420   -1.291800   -0.000053
     14          1           0       -0.867195   -2.558055   -0.000114
     15          1           0       -3.161336    1.141433   -0.000063
     16          1           0       -1.043120    2.551546    0.000035
 ---------------------------------------------------------------------
 Rotational constants (GHZ):           3.8601312           1.6148760           1.1385617

 **********************************************************************

            Population analysis using the CI Density.

 **********************************************************************

 Orbital symmetries:
       Occupied  (A) (A) (A) (A) (A) (A) (A) (A) (A) (A) (A) (A)
                 (A) (A) (A) (A) (A) (A) (A) (A) (A) (A) (A) (A)
                 (A) (A) (A) (A) (A) (A) (A)
       Virtual   (A) (A) (A) (A) (A) (A) (A) (A) (A) (A) (A) (A)
                 (A) (A) (A) (A) (A) (A) (A) (A) (A) (A) (A) (A)
                 (A) (A) (A) (A) (A) (A) (A) (A) (A) (A) (A) (A)
                 (A) (A) (A) (A) (A) (A) (A) (A) (A) (A) (A) (A)
                 (A) (A) (A) (A) (A) (A) (A) (A) (A) (A) (A) (A)
                 (A) (A) (A) (A) (A) (A) (A) (A) (A) (A) (A) (A)
                 (A) (A) (A) (A) (A) (A) (A) (A) (A) (A) (A) (A)
                 (A) (A) (A) (A) (A) (A) (A) (A) (A) (A) (A) (A)
                 (A) (A) (A) (A) (A) (A) (A) (A) (A) (A) (A) (A)
                 (A) (A) (A) (A) (A) (A) (A) (A) (A) (A) (A) (A)
                 (A) (A) (A) (A) (A) (A) (A) (A) (A) (A) (A) (A)
                 (A) (A) (A) (A) (A) (A) (A) (A) (A) (A) (A) (A)
                 (A) (A) (A) (A) (A) (A) (A) (A) (A) (A)
 The electronic state is 1-A.
 Alpha  occ. eigenvalues --  -13.95018  -9.85172  -9.85066  -9.82863  -9.82092
 Alpha  occ. eigenvalues --   -9.81708  -9.81642  -9.81398  -9.80668  -0.92163
 Alpha  occ. eigenvalues --   -0.78168  -0.71989  -0.68751  -0.65891  -0.58842
 Alpha  occ. eigenvalues --   -0.55440  -0.53935  -0.50952  -0.45069  -0.44279
 Alpha  occ. eigenvalues --   -0.41407  -0.40752  -0.40322  -0.37614  -0.36739
 Alpha  occ. eigenvalues --   -0.33006  -0.32399  -0.32047  -0.26592  -0.23325
 Alpha  occ. eigenvalues --   -0.19757
 Alpha virt. eigenvalues --   -0.07685  -0.03198  -0.03153  -0.01087  -0.00779
 Alpha virt. eigenvalues --   -0.00070   0.01244   0.01559   0.02751   0.03528
 Alpha virt. eigenvalues --    0.03988   0.04288   0.05748   0.06229   0.07669
 Alpha virt. eigenvalues --    0.08131   0.08516   0.09812   0.10673   0.10713
 Alpha virt. eigenvalues --    0.11925   0.12408   0.13115   0.13308   0.13768
 Alpha virt. eigenvalues --    0.14223   0.15072   0.15519   0.16127   0.16516
 Alpha virt. eigenvalues --    0.17044   0.17262   0.17956   0.18542   0.19636
 Alpha virt. eigenvalues --    0.20168   0.20422   0.20557   0.21547   0.22335
 Alpha virt. eigenvalues --    0.23497   0.24068   0.24442   0.25226   0.25682
 Alpha virt. eigenvalues --    0.26087   0.27373   0.29036   0.30114   0.30324
 Alpha virt. eigenvalues --    0.31135   0.34367   0.35565   0.39232   0.44097
 Alpha virt. eigenvalues --    0.50607   0.53540   0.59639   0.60152   0.62258
 Alpha virt. eigenvalues --    0.64540   0.64737   0.65451   0.65700   0.65851
 Alpha virt. eigenvalues --    0.67508   0.67675   0.69386   0.70619   0.71225
 Alpha virt. eigenvalues --    0.73500   0.77141   0.80537   0.81356   0.82068
 Alpha virt. eigenvalues --    0.85930   0.87004   0.87390   0.87910   0.90014
 Alpha virt. eigenvalues --    0.91752   0.95085   0.96698   0.98038   1.02013
 Alpha virt. eigenvalues --    1.04362   1.05328   1.09748   1.10409   1.13957
 Alpha virt. eigenvalues --    1.15357   1.16268   1.17056   1.23758   1.24033
 Alpha virt. eigenvalues --    1.26943   1.28613   1.31221   1.32392   1.35462
 Alpha virt. eigenvalues --    1.38626   1.39751   1.40751   1.41801   1.45775
 Alpha virt. eigenvalues --    1.49359   1.54120   1.70679   1.73121   1.78024
 Alpha virt. eigenvalues --    1.80744   1.81458   1.82952   1.89326   1.89757
 Alpha virt. eigenvalues --    1.91552   1.94341   1.97219   2.03825   2.07187
 Alpha virt. eigenvalues --    2.07850   2.10392   2.12751   2.14946   2.17882
 Alpha virt. eigenvalues --    2.18303   2.20787   2.26968   2.30122   2.35722
 Alpha virt. eigenvalues --    2.41671   2.44873   2.51031   2.54931   2.55298
 Alpha virt. eigenvalues --    2.56946   2.63530   2.69207   2.72372   2.73774
 Alpha virt. eigenvalues --    2.83499   2.87970   2.96081   3.11503   3.29596
 Alpha virt. eigenvalues --    4.03523   4.13383   4.17263   4.20538   4.24167
 Alpha virt. eigenvalues --    4.28258   4.36129   4.40661   4.66026
          Condensed to atoms (all electrons):
               1          2          3          4          5          6
     1  C    5.607586   0.505963   0.121526  -0.121259  -0.462487   0.033994
     2  C    0.505963   5.721101  -0.124101   0.106686  -0.357569   0.449403
     3  C    0.121526  -0.124101  14.977819  -2.118207  -5.768826  -2.679645
     4  C   -0.121259   0.106686  -2.118207  16.711708  -5.418679  -2.851607
     5  C   -0.462487  -0.357569  -5.768826  -5.418679  19.388820   0.538339
     6  C    0.033994   0.449403  -2.679645  -2.851607   0.538339  13.117320
     7  N   -0.029040   0.012839  -0.337064  -0.508917   0.752153   0.103272
     8  C    0.159690  -0.282866   3.734904   2.088425  -7.023905  -3.174169
     9  C   -0.073072   0.026344  -1.423399  -0.691390   2.521584   0.871990
    10  H   -0.005184  -0.003794  -0.162592  -0.099594   0.234186   0.026942
    11  H    0.005152   0.001415   0.006069   0.043457  -0.066668   0.014047
    12  H    0.001625  -0.000145   0.037300   0.123202  -0.120458  -0.026013
    13  H    0.002446   0.248626  -0.031870   0.024346   0.004561   0.038981
    14  H    0.029337   0.021012   0.170058   0.044730   0.044265  -0.017924
    15  H    0.255489   0.008356   0.036109  -0.021399   0.040435  -0.034345
    16  H    0.002311   0.030041  -0.051417   0.049435   0.100969   0.227825
               7          8          9         10         11         12
     1  C   -0.029040   0.159690  -0.073072  -0.005184   0.005152   0.001625
     2  C    0.012839  -0.282866   0.026344  -0.003794   0.001415  -0.000145
     3  C   -0.337064   3.734904  -1.423399  -0.162592   0.006069   0.037300
     4  C   -0.508917   2.088425  -0.691390  -0.099594   0.043457   0.123202
     5  C    0.752153  -7.023905   2.521584   0.234186  -0.066668  -0.120458
     6  C    0.103272  -3.174169   0.871990   0.026942   0.014047  -0.026013
     7  N    7.160065  -0.523282   0.532973   0.245891   0.007787  -0.055552
     8  C   -0.523282  13.333444  -2.659769   0.003886   0.332763   0.022692
     9  C    0.532973  -2.659769   6.875902  -0.035343  -0.063936   0.319450
    10  H    0.245891   0.003886  -0.035343   0.354755  -0.000096  -0.003259
    11  H    0.007787   0.332763  -0.063936  -0.000096   0.478808  -0.000838
    12  H   -0.055552   0.022692   0.319450  -0.003259  -0.000838   0.462414
    13  H   -0.000478  -0.003195   0.002323  -0.000003  -0.000000  -0.000000
    14  H   -0.008062  -0.019777   0.014512   0.002763   0.000002   0.000001
    15  H    0.000279   0.003337  -0.000184  -0.000000  -0.000002  -0.000000
    16  H   -0.000650  -0.087435   0.006690   0.000005   0.001829  -0.000002
              13         14         15         16
     1  C    0.002446   0.029337   0.255489   0.002311
     2  C    0.248626   0.021012   0.008356   0.030041
     3  C   -0.031870   0.170058   0.036109  -0.051417
     4  C    0.024346   0.044730  -0.021399   0.049435
     5  C    0.004561   0.044265   0.040435   0.100969
     6  C    0.038981  -0.017924  -0.034345   0.227825
     7  N   -0.000478  -0.008062   0.000279  -0.000650
     8  C   -0.003195  -0.019777   0.003337  -0.087435
     9  C    0.002323   0.014512  -0.000184   0.006690
    10  H   -0.000003   0.002763  -0.000000   0.000005
    11  H   -0.000000   0.000002  -0.000002   0.001829
    12  H   -0.000000   0.000001  -0.000000  -0.000002
    13  H    0.539715  -0.004532  -0.006720  -0.000170
    14  H   -0.004532   0.534854  -0.000162   0.000017
    15  H   -0.006720  -0.000162   0.538434  -0.004201
    16  H   -0.000170   0.000017  -0.004201   0.533688
 Mulliken charges:
               1
     1  C   -0.034078
     2  C   -0.363312
     3  C   -0.386663
     4  C   -1.360939
     5  C    1.593280
     6  C   -0.638410
     7  N   -0.352213
     8  C    0.095258
     9  C   -0.224674
    10  H    0.441440
    11  H    0.240210
    12  H    0.239583
    13  H    0.185969
    14  H    0.188907
    15  H    0.184574
    16  H    0.191066
 Sum of Mulliken charges =  -0.00000
 Mulliken charges with hydrogens summed into heavy atoms:
               1
     1  C    0.150497
     2  C   -0.177342
     3  C   -0.197756
     4  C   -1.360939
     5  C    1.593280
     6  C   -0.447344
     7  N    0.089227
     8  C    0.335468
     9  C    0.014909
 Electronic spatial extent (au):  <R**2>=           1020.8714
 Charge=             -0.0000 electrons
 Dipole moment (field-independent basis, Debye):
    X=              5.4212    Y=             -1.0735    Z=              0.0002  Tot=              5.5264
 Quadrupole moment (field-independent basis, Debye-Ang):
   XX=            -43.1322   YY=            -46.6792   ZZ=            -60.1344
   XY=             -2.1423   XZ=              0.0006   YZ=             -0.0011
 Traceless Quadrupole moment (field-independent basis, Debye-Ang):
   XX=              6.8498   YY=              3.3027   ZZ=            -10.1525
   XY=             -2.1423   XZ=              0.0006   YZ=             -0.0011
 Octapole moment (field-independent basis, Debye-Ang**2):
  XXX=             34.9669  YYY=             -7.8046  ZZZ=              0.0008  XYY=             18.2175
  XXY=             -6.5396  XXZ=              0.0001  XZZ=              7.1777  YZZ=             -0.8501
  YYZ=              0.0008  XYZ=             -0.0039
 Hexadecapole moment (field-independent basis, Debye-Ang**3):
 XXXX=           -825.0011 YYYY=           -403.9622 ZZZZ=            -82.0761 XXXY=            -16.6310
 XXXZ=             -0.0019 YYYX=            -15.3763 YYYZ=              0.0038 ZZZX=             -0.0052
 ZZZY=              0.0080 XXYY=           -198.4310 XXZZ=           -196.1800 YYZZ=           -105.1927
 XXYZ=             -0.0034 YYXZ=              0.0011 ZZXY=             -1.8793
 N-N= 3.981993412008D+02 E-N=-1.636458649059D+03  KE= 3.580044529631D+02
 Unable to Open any file for archive entry.
 1\1\GINC-COMET-02-54\FOpt\RSVWN TD-FC\6-31+G(d)\C8H7N1\SCAPARAS\12-Jun
 -2020\0\\# td= (nstates=6, root=1) LSDA/6-31+G(d) Opt density=current\
 \FuncsLSDA\\0,1\C,-2.1716831403,0.681897615,0.0000348096\C,-2.13655909
 17,-0.7022074944,0.0000517901\C,-0.9222718193,-1.452956418,0.000061163
 9\C,0.2347837377,-0.6393147986,0.0001662586\C,0.2259331205,0.742266396
 3,0.0000819796\C,-0.9892959601,1.4740926997,0.0000650973\N,1.589584468
 4,-1.0492008707,0.0002178332\C,1.6084393885,1.1549325593,-0.0000228813
 \C,2.4244707122,-0.0096292378,0.0000690951\H,1.8796253581,-2.029591424
 2,0.0004335475\H,1.9851396938,2.1803971162,-0.0002324185\H,3.508438983
 2,-0.1192652812,0.0000675897\H,-3.0862245865,-1.2514118284,0.000027100
 3\H,-0.8988899472,-2.544922034,-0.000033481\H,-3.1469250954,1.18276312
 18,0.0000175374\H,-1.0113658218,2.5664698789,0.0001149786\\Version=ES6
 4L-G16RevC.01\State=1-A\HF=-361.7636047\RMSD=6.552e-09\RMSF=1.812e-05\
 Dipole=2.1328461,-0.422329,0.0000695\Quadrupole=5.0926341,2.4554848,-7
 .5481189,-1.592781,0.0004122,-0.0007932\PG=C01 [X(C8H7N1)]\\@
 The archive entry for this job was punched.


 IF YOU DON'T HAVE THE LAW - ARGUE THE FACTS.
 IF YOU DON'T HAVE THE FACTS - ARGUE THE LAW.
 IF YOU DON'T HAVE EITHER - POUND THE TABLE.
 Job cpu time:       0 days  1 hours 11 minutes  0.5 seconds.
 Elapsed time:       0 days  1 hours 11 minutes  4.7 seconds.
 File lengths (MBytes):  RWF=    254 Int=      0 D2E=      0 Chk=     14 Scr=      1
 Normal termination of Gaussian 16 at Fri Jun 12 07:20:02 2020.
