 Entering Gaussian System, Link 0=/cm/shared/apps/spack/cpu/opt/spack/linux-centos8-zen/gcc-8.3.1/gaussian-16.C.01-po5bqktfeugvmjyga3v7eigbecnokxng/g16/g16
 Initial command:
 /cm/shared/apps/spack/cpu/opt/spack/linux-centos8-zen/gcc-8.3.1/gaussian-16.C.01-po5bqktfeugvmjyga3v7eigbecnokxng/g16/l1.exe "/scratch/cwaldt/job_3576256/Gau-12072.inp" -scrdir="/scratch/cwaldt/job_3576256/"
 Entering Link 1 = /cm/shared/apps/spack/cpu/opt/spack/linux-centos8-zen/gcc-8.3.1/gaussian-16.C.01-po5bqktfeugvmjyga3v7eigbecnokxng/g16/l1.exe PID=     12073.
  
 Copyright (c) 1988-2019, Gaussian, Inc.  All Rights Reserved.
  
 This is part of the Gaussian(R) 16 program.  It is based on
 the Gaussian(R) 09 system (copyright 2009, Gaussian, Inc.),
 the Gaussian(R) 03 system (copyright 2003, Gaussian, Inc.),
 the Gaussian(R) 98 system (copyright 1998, Gaussian, Inc.),
 the Gaussian(R) 94 system (copyright 1995, Gaussian, Inc.),
 the Gaussian 92(TM) system (copyright 1992, Gaussian, Inc.),
 the Gaussian 90(TM) system (copyright 1990, Gaussian, Inc.),
 the Gaussian 88(TM) system (copyright 1988, Gaussian, Inc.),
 the Gaussian 86(TM) system (copyright 1986, Carnegie Mellon
 University), and the Gaussian 82(TM) system (copyright 1983,
 Carnegie Mellon University). Gaussian is a federally registered
 trademark of Gaussian, Inc.
  
 This software contains proprietary and confidential information,
 including trade secrets, belonging to Gaussian, Inc.
  
 This software is provided under written license and may be
 used, copied, transmitted, or stored only in accord with that
 written license.
  
 The following legend is applicable only to US Government
 contracts under FAR:
  
                    RESTRICTED RIGHTS LEGEND
  
 Use, reproduction and disclosure by the US Government is
 subject to restrictions as set forth in subparagraphs (a)
 and (c) of the Commercial Computer Software - Restricted
 Rights clause in FAR 52.227-19.
  
 Gaussian, Inc.
 340 Quinnipiac St., Bldg. 40, Wallingford CT 06492
  
  
 ---------------------------------------------------------------
 Warning -- This program may not be used in any manner that
 competes with the business of Gaussian, Inc. or will provide
 assistance to any competitor of Gaussian, Inc.  The licensee
 of this program is prohibited from giving any competitor of
 Gaussian, Inc. access to this program.  By using this program,
 the user acknowledges that Gaussian, Inc. is engaged in the
 business of creating and licensing software in the field of
 computational chemistry and represents and warrants to the
 licensee that it is not a competitor of Gaussian, Inc. and that
 it will not use this program in any manner prohibited above.
 ---------------------------------------------------------------
  

 Cite this work as:
 Gaussian 16, Revision C.01,
 M. J. Frisch, G. W. Trucks, H. B. Schlegel, G. E. Scuseria, 
 M. A. Robb, J. R. Cheeseman, G. Scalmani, V. Barone, 
 G. A. Petersson, H. Nakatsuji, X. Li, M. Caricato, A. V. Marenich, 
 J. Bloino, B. G. Janesko, R. Gomperts, B. Mennucci, H. P. Hratchian, 
 J. V. Ortiz, A. F. Izmaylov, J. L. Sonnenberg, D. Williams-Young, 
 F. Ding, F. Lipparini, F. Egidi, J. Goings, B. Peng, A. Petrone, 
 T. Henderson, D. Ranasinghe, V. G. Zakrzewski, J. Gao, N. Rega, 
 G. Zheng, W. Liang, M. Hada, M. Ehara, K. Toyota, R. Fukuda, 
 J. Hasegawa, M. Ishida, T. Nakajima, Y. Honda, O. Kitao, H. Nakai, 
 T. Vreven, K. Throssell, J. A. Montgomery, Jr., J. E. Peralta, 
 F. Ogliaro, M. J. Bearpark, J. J. Heyd, E. N. Brothers, K. N. Kudin, 
 V. N. Staroverov, T. A. Keith, R. Kobayashi, J. Normand, 
 K. Raghavachari, A. P. Rendell, J. C. Burant, S. S. Iyengar, 
 J. Tomasi, M. Cossi, J. M. Millam, M. Klene, C. Adamo, R. Cammi, 
 J. W. Ochterski, R. L. Martin, K. Morokuma, O. Farkas, 
 J. B. Foresman, and D. J. Fox, Gaussian, Inc., Wallingford CT, 2019.
 
 ******************************************
 Gaussian 16:  AS64L-G16RevC.01  3-Jul-2019
                23-Jun-2021 
 ******************************************
 %nprocshared=4
 Will use up to    4 processors via shared memory.
 %chk=FuncsPBE1PBE-V-2nd.chk
 %Mem=3GB
 -------------------------------------------------------------
 # td= (nstates=6, root=2) PBE1PBE/6-31+G* Opt density=current
 -------------------------------------------------------------
 1/18=20,19=15,26=3,38=1/1,3;
 2/9=110,12=2,17=6,18=5,40=1/2;
 3/5=1,6=6,7=11,11=9,25=1,30=1,71=1,74=-13/1,2,3,8;
 4//1;
 5/5=2,38=5/2;
 8/6=1,10=2,107=2,108=6/1;
 9/8=2,15=2,41=6,42=1,70=2/14;
 10/5=4,28=2/2;
 6/7=2,8=2,9=2,10=2,22=-1/1;
 7/12=6,13=5,14=2/1,2,3,16;
 1/18=20,19=15,26=3/3(2);
 2/9=110/2;
 99//99;
 2/9=110/2;
 3/5=1,6=6,7=11,11=9,25=1,30=1,71=1,74=-13/1,2,3,8;
 4/5=5,16=3,69=1/1;
 5/5=2,38=5/2;
 8/6=1,10=2,107=2,108=6/1;
 9/8=2,15=2,41=6,42=1,49=4,70=2/14;
 10/5=4,28=2/2;
 7/12=6,13=5,14=2/1,2,3,16;
 1/18=20,19=15,26=3/3(-8);
 2/9=110/2;
 6/7=2,8=2,9=2,10=2,22=-1/1;
 99/9=10/99;
 ------------------
 FuncsPBE1PBE-V-2nd
 ------------------
 Symbolic Z-matrix:
 Charge =  0 Multiplicity = 1
 C                    -2.15106   0.68921   0.00009 
 C                    -2.12793  -0.71582   0.00008 
 C                    -0.9323   -1.4131   -0.00001 
 C                     0.24691  -0.6702   -0.00004 
 C                     0.24819   0.7483    0. 
 C                    -0.97947   1.42353   0.00003 
 N                     1.56177  -1.07759  -0.00029 
 C                     1.62013   1.1629   -0.00016 
 C                     2.38201   0.03081   0.00025 
 H                     1.87632  -2.03001   0.00044 
 H                     1.99217   2.17301  -0.00035 
 H                     3.45255  -0.08243   0.00041 
 H                    -3.06159  -1.26202   0.00009 
 H                    -0.91725  -2.49534  -0.00007 
 H                    -3.1042    1.20079   0.00009 
 H                    -1.00935   2.50542  -0.00002 
 

 GradGradGradGradGradGradGradGradGradGradGradGradGradGradGradGradGradGrad
 Berny optimization.
 Initialization pass.
                           ----------------------------
                           !    Initial Parameters    !
                           ! (Angstroms and Degrees)  !
 --------------------------                            --------------------------
 ! Name  Definition              Value          Derivative Info.                !
 --------------------------------------------------------------------------------
 ! R1    R(1,2)                  1.4052         estimate D2E/DX2                !
 ! R2    R(1,6)                  1.3827         estimate D2E/DX2                !
 ! R3    R(1,15)                 1.0818         estimate D2E/DX2                !
 ! R4    R(2,3)                  1.3841         estimate D2E/DX2                !
 ! R5    R(2,13)                 1.0817         estimate D2E/DX2                !
 ! R6    R(3,4)                  1.3937         estimate D2E/DX2                !
 ! R7    R(3,14)                 1.0823         estimate D2E/DX2                !
 ! R8    R(4,5)                  1.4185         estimate D2E/DX2                !
 ! R9    R(4,7)                  1.3765         estimate D2E/DX2                !
 ! R10   R(5,6)                  1.4011         estimate D2E/DX2                !
 ! R11   R(5,8)                  1.4332         estimate D2E/DX2                !
 ! R12   R(6,16)                 1.0823         estimate D2E/DX2                !
 ! R13   R(7,9)                  1.3789         estimate D2E/DX2                !
 ! R14   R(7,10)                 1.003          estimate D2E/DX2                !
 ! R15   R(8,9)                  1.3646         estimate D2E/DX2                !
 ! R16   R(8,11)                 1.0764         estimate D2E/DX2                !
 ! R17   R(9,12)                 1.0765         estimate D2E/DX2                !
 ! A1    A(2,1,6)              121.1349         estimate D2E/DX2                !
 ! A2    A(2,1,15)             119.1671         estimate D2E/DX2                !
 ! A3    A(6,1,15)             119.698          estimate D2E/DX2                !
 ! A4    A(1,2,3)              121.1938         estimate D2E/DX2                !
 ! A5    A(1,2,13)             119.3846         estimate D2E/DX2                !
 ! A6    A(3,2,13)             119.4217         estimate D2E/DX2                !
 ! A7    A(2,3,4)              117.5387         estimate D2E/DX2                !
 ! A8    A(2,3,14)             121.0469         estimate D2E/DX2                !
 ! A9    A(4,3,14)             121.4144         estimate D2E/DX2                !
 ! A10   A(3,4,5)              122.2626         estimate D2E/DX2                !
 ! A11   A(3,4,7)              130.5743         estimate D2E/DX2                !
 ! A12   A(5,4,7)              107.163          estimate D2E/DX2                !
 ! A13   A(4,5,6)              118.7594         estimate D2E/DX2                !
 ! A14   A(4,5,8)              106.8666         estimate D2E/DX2                !
 ! A15   A(6,5,8)              134.374          estimate D2E/DX2                !
 ! A16   A(1,6,5)              119.1105         estimate D2E/DX2                !
 ! A17   A(1,6,16)             120.4966         estimate D2E/DX2                !
 ! A18   A(5,6,16)             120.3928         estimate D2E/DX2                !
 ! A19   A(4,7,9)              109.2874         estimate D2E/DX2                !
 ! A20   A(4,7,10)             125.4909         estimate D2E/DX2                !
 ! A21   A(9,7,10)             125.2217         estimate D2E/DX2                !
 ! A22   A(5,8,9)              107.125          estimate D2E/DX2                !
 ! A23   A(5,8,11)             127.0344         estimate D2E/DX2                !
 ! A24   A(9,8,11)             125.8405         estimate D2E/DX2                !
 ! A25   A(7,9,8)              109.5578         estimate D2E/DX2                !
 ! A26   A(7,9,12)             120.4645         estimate D2E/DX2                !
 ! A27   A(8,9,12)             129.9776         estimate D2E/DX2                !
 ! D1    D(6,1,2,3)             -0.0008         estimate D2E/DX2                !
 ! D2    D(6,1,2,13)          -179.9981         estimate D2E/DX2                !
 ! D3    D(15,1,2,3)           179.996          estimate D2E/DX2                !
 ! D4    D(15,1,2,13)           -0.0013         estimate D2E/DX2                !
 ! D5    D(2,1,6,5)             -0.0018         estimate D2E/DX2                !
 ! D6    D(2,1,6,16)           179.9965         estimate D2E/DX2                !
 ! D7    D(15,1,6,5)          -179.9986         estimate D2E/DX2                !
 ! D8    D(15,1,6,16)           -0.0003         estimate D2E/DX2                !
 ! D9    D(1,2,3,4)              0.002          estimate D2E/DX2                !
 ! D10   D(1,2,3,14)          -179.9968         estimate D2E/DX2                !
 ! D11   D(13,2,3,4)           179.9992         estimate D2E/DX2                !
 ! D12   D(13,2,3,14)            0.0005         estimate D2E/DX2                !
 ! D13   D(2,3,4,5)             -0.0005         estimate D2E/DX2                !
 ! D14   D(2,3,4,7)           -179.9911         estimate D2E/DX2                !
 ! D15   D(14,3,4,5)           179.9982         estimate D2E/DX2                !
 ! D16   D(14,3,4,7)             0.0076         estimate D2E/DX2                !
 ! D17   D(3,4,5,6)             -0.002          estimate D2E/DX2                !
 ! D18   D(3,4,5,8)           -179.9955         estimate D2E/DX2                !
 ! D19   D(7,4,5,6)            179.9905         estimate D2E/DX2                !
 ! D20   D(7,4,5,8)             -0.003          estimate D2E/DX2                !
 ! D21   D(3,4,7,9)           -179.98           estimate D2E/DX2                !
 ! D22   D(3,4,7,10)            -0.0649         estimate D2E/DX2                !
 ! D23   D(5,4,7,9)              0.0284         estimate D2E/DX2                !
 ! D24   D(5,4,7,10)           179.9434         estimate D2E/DX2                !
 ! D25   D(4,5,6,1)              0.0031         estimate D2E/DX2                !
 ! D26   D(4,5,6,16)          -179.9951         estimate D2E/DX2                !
 ! D27   D(8,5,6,1)            179.9944         estimate D2E/DX2                !
 ! D28   D(8,5,6,16)            -0.0038         estimate D2E/DX2                !
 ! D29   D(4,5,8,9)             -0.0234         estimate D2E/DX2                !
 ! D30   D(4,5,8,11)           179.9883         estimate D2E/DX2                !
 ! D31   D(6,5,8,9)            179.9846         estimate D2E/DX2                !
 ! D32   D(6,5,8,11)            -0.0037         estimate D2E/DX2                !
 ! D33   D(4,7,9,8)             -0.0444         estimate D2E/DX2                !
 ! D34   D(4,7,9,12)           179.9847         estimate D2E/DX2                !
 ! D35   D(10,7,9,8)          -179.9597         estimate D2E/DX2                !
 ! D36   D(10,7,9,12)            0.0693         estimate D2E/DX2                !
 ! D37   D(5,8,9,7)              0.0414         estimate D2E/DX2                !
 ! D38   D(5,8,9,12)          -179.9913         estimate D2E/DX2                !
 ! D39   D(11,8,9,7)          -179.9702         estimate D2E/DX2                !
 ! D40   D(11,8,9,12)           -0.0029         estimate D2E/DX2                !
 --------------------------------------------------------------------------------
 Trust Radius=3.00D-01 FncErr=1.00D-07 GrdErr=1.00D-06 EigMax=2.50D+02 EigMin=1.00D-04
 Number of steps in this run=     94 maximum allowed number of steps=    100.
 GradGradGradGradGradGradGradGradGradGradGradGradGradGradGradGradGradGrad

                          Input orientation:                          
 ---------------------------------------------------------------------
 Center     Atomic      Atomic             Coordinates (Angstroms)
 Number     Number       Type             X           Y           Z
 ---------------------------------------------------------------------
      1          6           0       -2.151063    0.689208    0.000088
      2          6           0       -2.127927   -0.715818    0.000075
      3          6           0       -0.932297   -1.413100   -0.000011
      4          6           0        0.246911   -0.670201   -0.000042
      5          6           0        0.248193    0.748299    0.000000
      6          6           0       -0.979474    1.423526    0.000032
      7          7           0        1.561774   -1.077592   -0.000285
      8          6           0        1.620133    1.162900   -0.000157
      9          6           0        2.382013    0.030806    0.000248
     10          1           0        1.876315   -2.030011    0.000438
     11          1           0        1.992173    2.173010   -0.000348
     12          1           0        3.452549   -0.082425    0.000408
     13          1           0       -3.061594   -1.262020    0.000088
     14          1           0       -0.917252   -2.495342   -0.000073
     15          1           0       -3.104203    1.200785    0.000090
     16          1           0       -1.009348    2.505421   -0.000015
 ---------------------------------------------------------------------
                    Distance matrix (angstroms):
                    1          2          3          4          5
     1  C    0.000000
     2  C    1.405216   0.000000
     3  C    2.430039   1.384100   0.000000
     4  C    2.756496   2.375276   1.393711   0.000000
     5  C    2.399984   2.790983   2.462763   1.418501   0.000000
     6  C    1.382694   2.428114   2.837018   2.426461   1.401106
     7  N    4.111781   3.707395   2.516536   1.376529   2.249305
     8  C    3.800829   4.192557   3.626386   2.290414   1.433218
     9  C    4.580641   4.571324   3.615178   2.247236   2.251218
    10  H    4.859416   4.214387   2.875566   2.122273   3.220216
    11  H    4.400917   5.031953   4.627387   3.336134   2.251948
    12  H    5.656491   5.616307   4.582311   3.259079   3.310287
    13  H    2.153220   1.081698   2.134650   3.361020   3.872476
    14  H    3.415208   2.152310   1.082347   2.164813   3.446661
    15  H    1.081752   2.150926   3.398466   3.838040   3.382795
    16  H    2.145261   3.409927   3.919278   3.415079   2.160761
                    6          7          8          9         10
     6  C    0.000000
     7  N    3.565604   0.000000
     8  C    2.612639   2.241252   0.000000
     9  C    3.638580   1.378890   1.364587   0.000000
    10  H    4.481345   1.003015   3.203172   2.121956   0.000000
    11  H    3.064704   3.278972   1.076446   2.177387   4.204618
    12  H    4.680888   2.136677   2.215532   1.076508   2.505515
    13  H    3.398144   4.627045   5.272457   5.595021   4.997275
    14  H    3.919362   2.855798   4.452085   4.155307   2.832058
    15  H    2.136372   5.192528   4.724488   5.609583   5.936632
    16  H    1.082307   4.410062   2.952378   4.198220   5.375611
                   11         12         13         14         15
    11  H    0.000000
    12  H    2.686947   0.000000
    13  H    6.110646   6.620083   0.000000
    14  H    5.500751   4.991726   2.473719   0.000000
    15  H    5.188282   6.681139   2.463174   4.294661   0.000000
    16  H    3.019872   5.158049   4.290143   5.001611   2.467892
                   16
    16  H    0.000000
 Stoichiometry    C8H7N
 Framework group  C1[X(C8H7N)]
 Deg. of freedom    42
 Full point group                 C1      NOp   1
 Largest Abelian subgroup         C1      NOp   1
 Largest concise Abelian subgroup C1      NOp   1
                         Standard orientation:                         
 ---------------------------------------------------------------------
 Center     Atomic      Atomic             Coordinates (Angstroms)
 Number     Number       Type             X           Y           Z
 ---------------------------------------------------------------------
      1          6           0       -2.151063    0.689208    0.000088
      2          6           0       -2.127927   -0.715818    0.000075
      3          6           0       -0.932297   -1.413100   -0.000011
      4          6           0        0.246911   -0.670201   -0.000042
      5          6           0        0.248193    0.748299    0.000000
      6          6           0       -0.979474    1.423526    0.000032
      7          7           0        1.561774   -1.077592   -0.000285
      8          6           0        1.620133    1.162900   -0.000157
      9          6           0        2.382013    0.030806    0.000248
     10          1           0        1.876315   -2.030011    0.000438
     11          1           0        1.992173    2.173010   -0.000348
     12          1           0        3.452549   -0.082425    0.000408
     13          1           0       -3.061594   -1.262020    0.000088
     14          1           0       -0.917252   -2.495342   -0.000073
     15          1           0       -3.104203    1.200785    0.000090
     16          1           0       -1.009348    2.505421   -0.000015
 ---------------------------------------------------------------------
 Rotational constants (GHZ):           3.9080822           1.6429452           1.1566805
 Standard basis: 6-31+G(d) (6D, 7F)
 There are   185 symmetry adapted cartesian basis functions of A   symmetry.
 There are   185 symmetry adapted basis functions of A   symmetry.
   185 basis functions,   316 primitive gaussians,   185 cartesian basis functions
    31 alpha electrons       31 beta electrons
       nuclear repulsion energy       401.3368668897 Hartrees.
 NAtoms=   16 NActive=   16 NUniq=   16 SFac= 1.00D+00 NAtFMM=   60 NAOKFM=F Big=F
 Integral buffers will be    131072 words long.
 Regular integral format.
 Two-electron integral symmetry is turned on.
 One-electron integrals computed using PRISM.
 NBasis=   185 RedAO= T EigKep=  1.26D-06  NBF=   185
 NBsUse=   185 1.00D-06 EigRej= -1.00D+00 NBFU=   185
 ExpMin= 4.38D-02 ExpMax= 4.17D+03 ExpMxC= 6.27D+02 IAcc=3 IRadAn=         5 AccDes= 0.00D+00
 Harris functional with IExCor= 1009 and IRadAn=       5 diagonalized for initial guess.
 HarFok:  IExCor= 1009 AccDes= 0.00D+00 IRadAn=         5 IDoV= 1 UseB2=F ITyADJ=14
 ICtDFT=  3500011 ScaDFX=  1.000000  1.000000  1.000000  1.000000
 FoFCou: FMM=F IPFlag=           0 FMFlag=      100000 FMFlg1=           0
         NFxFlg=           0 DoJE=T BraDBF=F KetDBF=T FulRan=T
         wScrn=  0.000000 ICntrl=       500 IOpCl=  0 I1Cent=   200000004 NGrid=           0
         NMat0=    1 NMatS0=      1 NMatT0=    0 NMatD0=    1 NMtDS0=    0 NMtDT0=    0
 Petite list used in FoFCou.
 Keep R1 ints in memory in canonical form, NReq=152071459.
 Requested convergence on RMS density matrix=1.00D-08 within 128 cycles.
 Requested convergence on MAX density matrix=1.00D-06.
 Requested convergence on             energy=1.00D-06.
 No special actions if energy rises.
 SCF Done:  E(RPBE1PBE) =  -363.403722658     A.U. after   14 cycles
            NFock= 14  Conv=0.56D-08     -V/T= 2.0087
 DoSCS=F DFT=T ScalE2(SS,OS)=  1.000000  1.000000
 ExpMin= 4.38D-02 ExpMax= 4.17D+03 ExpMxC= 6.27D+02 IAcc=3 IRadAn=         5 AccDes= 0.00D+00
 HarFok:  IExCor=  205 AccDes= 0.00D+00 IRadAn=         5 IDoV=-2 UseB2=F ITyADJ=14
 ICtDFT= 12500011 ScaDFX=  1.000000  1.000000  1.000000  1.000000
 Range of M.O.s used for correlation:    10   185
 NBasis=   185 NAE=    31 NBE=    31 NFC=     9 NFV=     0
 NROrb=    176 NOA=    22 NOB=    22 NVA=   154 NVB=   154

 **** Warning!!: The largest alpha MO coefficient is  0.17264113D+03

 Orbital symmetries:
       Occupied  (A) (A) (A) (A) (A) (A) (A) (A) (A) (A) (A) (A)
                 (A) (A) (A) (A) (A) (A) (A) (A) (A) (A) (A) (A)
                 (A) (A) (A) (A) (A) (A) (A)
       Virtual   (A) (A) (A) (A) (A) (A) (A) (A) (A) (A) (A) (A)
                 (A) (A) (A) (A) (A) (A) (A) (A) (A) (A) (A) (A)
                 (A) (A) (A) (A) (A) (A) (A) (A) (A) (A) (A) (A)
                 (A) (A) (A) (A) (A) (A) (A) (A) (A) (A) (A) (A)
                 (A) (A) (A) (A) (A) (A) (A) (A) (A) (A) (A) (A)
                 (A) (A) (A) (A) (A) (A) (A) (A) (A) (A) (A) (A)
                 (A) (A) (A) (A) (A) (A) (A) (A) (A) (A) (A) (A)
                 (A) (A) (A) (A) (A) (A) (A) (A) (A) (A) (A) (A)
                 (A) (A) (A) (A) (A) (A) (A) (A) (A) (A) (A) (A)
                 (A) (A) (A) (A) (A) (A) (A) (A) (A) (A) (A) (A)
                 (A) (A) (A) (A) (A) (A) (A) (A) (A) (A) (A) (A)
                 (A) (A) (A) (A) (A) (A) (A) (A) (A) (A) (A) (A)
                 (A) (A) (A) (A) (A) (A) (A) (A) (A) (A)
    24 initial guesses have been made.
 Convergence on wavefunction:    0.000001000000000
 Iteration     1 Dimension    24 NMult     0 NNew     24
 CISAX will form    24 AO SS matrices at one time.
 New state      1 was old state      3
 New state      3 was old state      1
 New state      6 was old state      7
 Iteration     2 Dimension    36 NMult    24 NNew     12
 New state      1 was old state      3
 New state      3 was old state      1
 Iteration     3 Dimension    48 NMult    36 NNew     12
 Iteration     4 Dimension    60 NMult    48 NNew     12
 Iteration     5 Dimension    72 NMult    60 NNew     12
 Iteration     6 Dimension    84 NMult    72 NNew     12
 Iteration     7 Dimension    96 NMult    84 NNew     12
 Iteration     8 Dimension   108 NMult    96 NNew     12
 Iteration     9 Dimension   118 NMult   108 NNew     10
 Iteration    10 Dimension   122 NMult   118 NNew      4
 Iteration    11 Dimension   126 NMult   122 NNew      4
 ***********************************************************************
 Excited states from <AA,BB:AA,BB> singles matrix:
 ***********************************************************************
 
 Ground to excited state transition densities written to RWF  633
 Ground to excited state transition electric dipole moments (Au):
       state          X           Y           Z        Dip. S.      Osc.
         1        -0.5410      0.6327     -0.0002      0.6931      0.0829
         2        -0.5685     -0.0945     -0.0002      0.3321      0.0408
         3         0.0011     -0.0005     -0.1305      0.0170      0.0021
         4        -0.0004      0.0001     -0.1419      0.0201      0.0028
         5         0.0005     -0.0000      0.0184      0.0003      0.0000
         6         0.0006      0.0002      0.1075      0.0116      0.0016
 Ground to excited state transition velocity dipole moments (Au):
       state          X           Y           Z        Dip. S.      Osc.
         1         0.0880     -0.1228      0.0000      0.0228      0.0848
         2         0.0989      0.0179      0.0000      0.0101      0.0365
         3        -0.0002      0.0001      0.0161      0.0003      0.0009
         4         0.0001     -0.0000      0.0306      0.0009      0.0030
         5        -0.0001      0.0000     -0.0029      0.0000      0.0000
         6        -0.0001     -0.0000     -0.0229      0.0005      0.0016
 Ground to excited state transition magnetic dipole moments (Au):
       state          X           Y           Z
         1         0.0003     -0.0001      0.1845
         2         0.0000     -0.0002     -0.0293
         3         0.1229     -0.0692      0.0001
         4         0.0549     -0.2386     -0.0000
         5         0.3184     -0.1338      0.0002
         6         0.0995      0.3733      0.0005
 Ground to excited state transition velocity quadrupole moments (Au):
       state          XX          YY          ZZ          XY          XZ          YZ
         1         0.1952     -0.1103      0.0112      0.0479      0.0001      0.0001
         2         0.0773     -0.1157      0.0262      0.0005      0.0001     -0.0000
         3        -0.0003      0.0002      0.0001      0.0000      0.0604      0.0544
         4        -0.0000      0.0000     -0.0000     -0.0000      0.1676     -0.0033
         5        -0.0002     -0.0000      0.0000      0.0002      0.1705      0.2685
         6         0.0001     -0.0001      0.0001      0.0002     -0.3297      0.0054
 <0|del|b> * <b|rxdel|0> + <0|del|b> * <b|delr+rdel|0>
 Rotatory Strengths (R) in cgs (10**-40 erg-esu-cm/Gauss)
       state          XX          YY          ZZ    R(velocity)    E-M Angle
         1         0.0507      0.0756      0.0257      0.0507       90.00
         2        -0.0148      0.0028      0.0016     -0.0035       90.00
         3        -0.0250     -0.0588     -0.0250     -0.0362       90.00
         4         0.0139      0.0079      0.0113      0.0110       90.00
         5        -0.0038     -0.1011     -0.0084     -0.0378       90.00
         6        -0.0697     -0.0319     -0.0220     -0.0412       90.00
 1/2[<0|r|b>*<b|rxdel|0> + (<0|rxdel|b>*<b|r|0>)*]
 Rotatory Strengths (R) in cgs (10**-40 erg-esu-cm/Gauss)
       state          XX          YY          ZZ     R(length)
         1         0.1191      0.0260      0.0232      0.0561
         2         0.0101     -0.0162     -0.0039     -0.0033
         3        -0.0930     -0.0261      0.0048     -0.0381
         4         0.0154      0.0157     -0.0007      0.0101
         5        -0.1136     -0.0017     -0.0030     -0.0394
         6        -0.0437     -0.0585     -0.0395     -0.0472
  1/2[<0|del|b>*<b|r|0> + (<0|r|b>*<b|del|0>)*] (Au)
       state          X           Y           Z        Dip. S.   Osc.(frdel)
         1        -0.0476     -0.0777     -0.0000      0.1253      0.0836
         2        -0.0562     -0.0017     -0.0000      0.0579      0.0386
         3        -0.0000     -0.0000     -0.0021      0.0021      0.0014
         4        -0.0000     -0.0000     -0.0043      0.0043      0.0029
         5        -0.0000     -0.0000     -0.0001      0.0001      0.0000
         6        -0.0000     -0.0000     -0.0025      0.0025      0.0016

 Excitation energies and oscillator strengths:
 
 Excited State   1:      Singlet-A      4.8822 eV  253.95 nm  f=0.0829  <S**2>=0.000
      30 -> 32        -0.14802
      30 -> 35         0.15576
      31 -> 32         0.66069
 
 Excited State   2:      Singlet-A      5.0149 eV  247.23 nm  f=0.0408  <S**2>=0.000
      30 -> 32         0.56341
      31 -> 32         0.12971
      31 -> 35        -0.39540
 This state for optimization and/or second-order correction.
 Total Energy, E(TD-HF/TD-DFT) =  -363.219426873    
 Copying the excited state density for this state as the 1-particle RhoCI density.
 
 Excited State   3:      Singlet-A      5.1232 eV  242.00 nm  f=0.0021  <S**2>=0.000
      31 -> 33         0.70256
 
 Excited State   4:      Singlet-A      5.6004 eV  221.39 nm  f=0.0028  <S**2>=0.000
      30 -> 33         0.68762
      31 -> 34         0.12787
 
 Excited State   5:      Singlet-A      5.7133 eV  217.01 nm  f=0.0000  <S**2>=0.000
      30 -> 33        -0.13102
      31 -> 34         0.68701
 
 Excited State   6:      Singlet-A      5.8202 eV  213.02 nm  f=0.0016  <S**2>=0.000
      31 -> 36         0.69473
 SavETr:  write IOETrn=   770 NScale= 10 NData=  16 NLR=1 NState=    6 LETran=     118.
          IDoAtm=1111111111111111
          Differentiating once with respect to electric field.
                with respect to dipole field.
          Differentiating once with respect to nuclear coordinates.
 Keep R1 ints in memory in canonical form, NReq=152083851.
          There are     1 degrees of freedom in the 1st order CPHF.  IDoFFX=0 NUNeed=     1.
 LinEq1:  Iter=  0 NonCon=     1 RMS=5.39D-03 Max=1.63D-01 NDo=     1
 AX will form     1 AO Fock derivatives at one time.
 LinEq1:  Iter=  1 NonCon=     1 RMS=2.20D-03 Max=6.14D-02 NDo=     1
 LinEq1:  Iter=  2 NonCon=     1 RMS=1.86D-03 Max=6.45D-02 NDo=     1
 LinEq1:  Iter=  3 NonCon=     1 RMS=7.28D-04 Max=1.53D-02 NDo=     1
 LinEq1:  Iter=  4 NonCon=     1 RMS=3.69D-04 Max=1.27D-02 NDo=     1
 LinEq1:  Iter=  5 NonCon=     1 RMS=1.93D-04 Max=3.85D-03 NDo=     1
 LinEq1:  Iter=  6 NonCon=     1 RMS=1.17D-04 Max=2.98D-03 NDo=     1
 LinEq1:  Iter=  7 NonCon=     1 RMS=4.74D-05 Max=8.46D-04 NDo=     1
 LinEq1:  Iter=  8 NonCon=     1 RMS=3.21D-05 Max=8.32D-04 NDo=     1
 LinEq1:  Iter=  9 NonCon=     1 RMS=1.00D-05 Max=2.20D-04 NDo=     1
 LinEq1:  Iter= 10 NonCon=     1 RMS=7.64D-06 Max=1.86D-04 NDo=     1
 LinEq1:  Iter= 11 NonCon=     1 RMS=2.36D-06 Max=4.67D-05 NDo=     1
 LinEq1:  Iter= 12 NonCon=     1 RMS=1.46D-06 Max=3.08D-05 NDo=     1
 LinEq1:  Iter= 13 NonCon=     1 RMS=4.97D-07 Max=5.02D-06 NDo=     1
 LinEq1:  Iter= 14 NonCon=     1 RMS=1.41D-07 Max=2.16D-06 NDo=     1
 LinEq1:  Iter= 15 NonCon=     1 RMS=8.64D-08 Max=1.32D-06 NDo=     1
 LinEq1:  Iter= 16 NonCon=     1 RMS=1.83D-08 Max=3.29D-07 NDo=     1
 LinEq1:  Iter= 17 NonCon=     1 RMS=7.68D-09 Max=1.75D-07 NDo=     1
 LinEq1:  Iter= 18 NonCon=     1 RMS=3.84D-09 Max=8.38D-08 NDo=     1
 LinEq1:  Iter= 19 NonCon=     1 RMS=8.53D-10 Max=1.90D-08 NDo=     1
 LinEq1:  Iter= 20 NonCon=     1 RMS=1.57D-10 Max=2.66D-09 NDo=     1
 LinEq1:  Iter= 21 NonCon=     0 RMS=4.89D-11 Max=5.43D-10 NDo=     1
 Linear equations converged to 1.000D-10 1.000D-09 after    21 iterations.
 End of Minotr F.D. properties file   721 does not exist.
 End of Minotr F.D. properties file   722 does not exist.
 End of Minotr F.D. properties file   788 does not exist.

 **********************************************************************

            Population analysis using the CI Density.

 **********************************************************************

 Orbital symmetries:
       Occupied  (A) (A) (A) (A) (A) (A) (A) (A) (A) (A) (A) (A)
                 (A) (A) (A) (A) (A) (A) (A) (A) (A) (A) (A) (A)
                 (A) (A) (A) (A) (A) (A) (A)
       Virtual   (A) (A) (A) (A) (A) (A) (A) (A) (A) (A) (A) (A)
                 (A) (A) (A) (A) (A) (A) (A) (A) (A) (A) (A) (A)
                 (A) (A) (A) (A) (A) (A) (A) (A) (A) (A) (A) (A)
                 (A) (A) (A) (A) (A) (A) (A) (A) (A) (A) (A) (A)
                 (A) (A) (A) (A) (A) (A) (A) (A) (A) (A) (A) (A)
                 (A) (A) (A) (A) (A) (A) (A) (A) (A) (A) (A) (A)
                 (A) (A) (A) (A) (A) (A) (A) (A) (A) (A) (A) (A)
                 (A) (A) (A) (A) (A) (A) (A) (A) (A) (A) (A) (A)
                 (A) (A) (A) (A) (A) (A) (A) (A) (A) (A) (A) (A)
                 (A) (A) (A) (A) (A) (A) (A) (A) (A) (A) (A) (A)
                 (A) (A) (A) (A) (A) (A) (A) (A) (A) (A) (A) (A)
                 (A) (A) (A) (A) (A) (A) (A) (A) (A) (A) (A) (A)
                 (A) (A) (A) (A) (A) (A) (A) (A) (A) (A)
 The electronic state is 1-A.
 Alpha  occ. eigenvalues --  -14.45155 -10.27217 -10.27032 -10.23997 -10.23618
 Alpha  occ. eigenvalues --  -10.23460 -10.23451 -10.22938 -10.22709  -1.01448
 Alpha  occ. eigenvalues --   -0.86831  -0.81005  -0.76132  -0.74267  -0.64673
 Alpha  occ. eigenvalues --   -0.61656  -0.60292  -0.55980  -0.50086  -0.48844
 Alpha  occ. eigenvalues --   -0.45397  -0.44516  -0.44009  -0.42673  -0.40677
 Alpha  occ. eigenvalues --   -0.36900  -0.35016  -0.34813  -0.29298  -0.23528
 Alpha  occ. eigenvalues --   -0.21822
 Alpha virt. eigenvalues --   -0.01193   0.00610   0.02489   0.02496   0.03049
 Alpha virt. eigenvalues --    0.04590   0.04692   0.05279   0.06703   0.06886
 Alpha virt. eigenvalues --    0.07501   0.07532   0.09374   0.09721   0.11545
 Alpha virt. eigenvalues --    0.11586   0.11996   0.13456   0.14374   0.14769
 Alpha virt. eigenvalues --    0.16338   0.16513   0.17520   0.17622   0.18074
 Alpha virt. eigenvalues --    0.19035   0.19589   0.19801   0.20613   0.20876
 Alpha virt. eigenvalues --    0.21079   0.21325   0.22795   0.23375   0.24053
 Alpha virt. eigenvalues --    0.24501   0.24720   0.25562   0.26629   0.27017
 Alpha virt. eigenvalues --    0.28065   0.28221   0.28874   0.30678   0.31253
 Alpha virt. eigenvalues --    0.32050   0.32652   0.34295   0.36195   0.37868
 Alpha virt. eigenvalues --    0.39042   0.41135   0.44829   0.46264   0.52720
 Alpha virt. eigenvalues --    0.59590   0.64125   0.68975   0.69118   0.71685
 Alpha virt. eigenvalues --    0.73258   0.73863   0.74672   0.75470   0.75947
 Alpha virt. eigenvalues --    0.77109   0.77530   0.79582   0.81059   0.81791
 Alpha virt. eigenvalues --    0.83145   0.87164   0.91184   0.91902   0.93059
 Alpha virt. eigenvalues --    0.95340   0.96090   0.96962   0.97837   1.00104
 Alpha virt. eigenvalues --    1.02116   1.04791   1.06412   1.08104   1.10931
 Alpha virt. eigenvalues --    1.12819   1.13186   1.18634   1.19476   1.22034
 Alpha virt. eigenvalues --    1.23961   1.24514   1.26790   1.33117   1.33442
 Alpha virt. eigenvalues --    1.35177   1.38498   1.42583   1.43319   1.46886
 Alpha virt. eigenvalues --    1.47187   1.47875   1.50993   1.51565   1.55553
 Alpha virt. eigenvalues --    1.60590   1.66602   1.80263   1.86144   1.90108
 Alpha virt. eigenvalues --    1.90685   1.93987   1.96093   2.01345   2.01601
 Alpha virt. eigenvalues --    2.02091   2.08182   2.11873   2.16051   2.19012
 Alpha virt. eigenvalues --    2.19166   2.21736   2.26565   2.27761   2.28288
 Alpha virt. eigenvalues --    2.30461   2.33372   2.39892   2.42674   2.46621
 Alpha virt. eigenvalues --    2.56863   2.57734   2.65775   2.67942   2.68940
 Alpha virt. eigenvalues --    2.72189   2.75834   2.83200   2.86918   2.88078
 Alpha virt. eigenvalues --    2.97740   3.00237   3.13635   3.26723   3.47296
 Alpha virt. eigenvalues --    4.18206   4.29406   4.32378   4.35836   4.39424
 Alpha virt. eigenvalues --    4.42961   4.51295   4.55217   4.82201
          Condensed to atoms (all electrons):
               1          2          3          4          5          6
     1  C    6.061514   0.219666   0.265860  -0.700792   0.110021  -0.347626
     2  C    0.219666   6.178242  -0.117073   0.367631  -1.010752   0.858561
     3  C    0.265860  -0.117073  13.329982  -1.834070  -3.672464  -3.355264
     4  C   -0.700792   0.367631  -1.834070  13.626684  -4.418134  -0.738238
     5  C    0.110021  -1.010752  -3.672464  -4.418134  15.128298  -0.151052
     6  C   -0.347626   0.858561  -3.355264  -0.738238  -0.151052  13.399573
     7  N   -0.038415   0.000504  -0.589839  -0.445984   1.016993   0.184360
     8  C    0.148365  -0.315073   3.214394   1.916820  -4.558860  -4.203953
     9  C   -0.084681   0.027796  -1.176352  -0.728406   1.756349   1.070460
    10  H   -0.002171  -0.009670  -0.138192  -0.067919   0.177103   0.027566
    11  H    0.002303   0.001251   0.003614   0.031782  -0.002212  -0.001140
    12  H    0.001277   0.000350   0.040615   0.112982  -0.123231  -0.024243
    13  H    0.028605   0.248186   0.021886   0.000859   0.018710  -0.011269
    14  H    0.009114   0.064065   0.215264   0.038291  -0.006715  -0.020614
    15  H    0.271627   0.016671   0.018876  -0.020448   0.030645  -0.016285
    16  H    0.033895   0.006464  -0.024735   0.021441   0.085099   0.196349
               7          8          9         10         11         12
     1  C   -0.038415   0.148365  -0.084681  -0.002171   0.002303   0.001277
     2  C    0.000504  -0.315073   0.027796  -0.009670   0.001251   0.000350
     3  C   -0.589839   3.214394  -1.176352  -0.138192   0.003614   0.040615
     4  C   -0.445984   1.916820  -0.728406  -0.067919   0.031782   0.112982
     5  C    1.016993  -4.558860   1.756349   0.177103  -0.002212  -0.123231
     6  C    0.184360  -4.203953   1.070460   0.027566  -0.001140  -0.024243
     7  N    7.336066  -0.818693   0.588320   0.279105   0.006285  -0.060235
     8  C   -0.818693  12.071582  -1.879532  -0.012634   0.282754   0.070928
     9  C    0.588320  -1.879532   6.434059  -0.014338  -0.020548   0.295435
    10  H    0.279105  -0.012634  -0.014338   0.317104  -0.000083  -0.002199
    11  H    0.006285   0.282754  -0.020548  -0.000083   0.467572  -0.000810
    12  H   -0.060235   0.070928   0.295435  -0.002199  -0.000810   0.460001
    13  H   -0.000487   0.001329   0.001001  -0.000002   0.000000  -0.000000
    14  H   -0.008526   0.000672   0.004606   0.001905   0.000002   0.000002
    15  H    0.000332   0.008015  -0.000084  -0.000000  -0.000002  -0.000000
    16  H   -0.001004  -0.024879   0.003831   0.000004   0.001306  -0.000001
              13         14         15         16
     1  C    0.028605   0.009114   0.271627   0.033895
     2  C    0.248186   0.064065   0.016671   0.006464
     3  C    0.021886   0.215264   0.018876  -0.024735
     4  C    0.000859   0.038291  -0.020448   0.021441
     5  C    0.018710  -0.006715   0.030645   0.085099
     6  C   -0.011269  -0.020614  -0.016285   0.196349
     7  N   -0.000487  -0.008526   0.000332  -0.001004
     8  C    0.001329   0.000672   0.008015  -0.024879
     9  C    0.001001   0.004606  -0.000084   0.003831
    10  H   -0.000002   0.001905  -0.000000   0.000004
    11  H    0.000000   0.000002  -0.000002   0.001306
    12  H   -0.000000   0.000002  -0.000000  -0.000001
    13  H    0.485180  -0.003895  -0.003860  -0.000138
    14  H   -0.003895   0.494050  -0.000138   0.000016
    15  H   -0.003860  -0.000138   0.484910  -0.003803
    16  H   -0.000138   0.000016  -0.003803   0.491670
 Mulliken charges:
               1
     1  C    0.021439
     2  C   -0.536819
     3  C   -0.202503
     4  C   -1.162499
     5  C    1.620201
     6  C   -0.867187
     7  N   -0.448782
     8  C    0.098764
     9  C   -0.277916
    10  H    0.444422
    11  H    0.227925
    12  H    0.229131
    13  H    0.213894
    14  H    0.211901
    15  H    0.213543
    16  H    0.214485
 Sum of Mulliken charges =  -0.00000
 Mulliken charges with hydrogens summed into heavy atoms:
               1
     1  C    0.234982
     2  C   -0.322925
     3  C    0.009398
     4  C   -1.162499
     5  C    1.620201
     6  C   -0.652702
     7  N   -0.004360
     8  C    0.326689
     9  C   -0.048784
 Electronic spatial extent (au):  <R**2>=           1007.0246
 Charge=             -0.0000 electrons
 Dipole moment (field-independent basis, Debye):
    X=              2.2071    Y=             -1.4195    Z=             -0.0001  Tot=              2.6241
 Quadrupole moment (field-independent basis, Debye-Ang):
   XX=            -45.4069   YY=            -45.9127   ZZ=            -59.7754
   XY=             -2.8856   XZ=              0.0007   YZ=             -0.0010
 Traceless Quadrupole moment (field-independent basis, Debye-Ang):
   XX=              4.9581   YY=              4.4523   ZZ=             -9.4104
   XY=             -2.8856   XZ=              0.0007   YZ=             -0.0010
 Octapole moment (field-independent basis, Debye-Ang**2):
  XXX=             17.5076  YYY=             -9.3471  ZZZ=             -0.0078  XYY=             11.1916
  XXY=             -7.0384  XXZ=             -0.0000  XZZ=              3.0358  YZZ=             -1.3384
  YYZ=             -0.0054  XYZ=             -0.0042
 Hexadecapole moment (field-independent basis, Debye-Ang**3):
 XXXX=           -828.2682 YYYY=           -381.3964 ZZZZ=            -80.8931 XXXY=            -19.2366
 XXXZ=             -0.0058 YYYX=            -18.4727 YYYZ=              0.0040 ZZZX=             -0.0048
 ZZZY=              0.0075 XXYY=           -196.6554 XXZZ=           -197.3061 YYZZ=           -100.0035
 XXYZ=              0.0003 YYXZ=              0.0044 ZZXY=             -3.2447
 N-N= 4.013368668897D+02 E-N=-1.644915460360D+03  KE= 3.604819076442D+02
 Calling FoFJK, ICntrl=  10005127 FMM=F ISym2X=0 I1Cent= 0 IOpClX= 0 NMat=1 NMatS=1 NMatT=0.
 ***** Axes restored to original set *****
 -------------------------------------------------------------------
 Center     Atomic                   Forces (Hartrees/Bohr)
 Number     Number              X              Y              Z
 -------------------------------------------------------------------
      1        6          -0.021767702    0.002076221   -0.000003543
      2        6          -0.016576036   -0.007953397    0.000002377
      3        6           0.005235298   -0.027618196    0.000004049
      4        6           0.016627586   -0.015851330   -0.000016588
      5        6           0.018340952    0.024588355   -0.000024924
      6        6           0.015429652    0.029095905    0.000004563
      7        7          -0.010504679   -0.000782702    0.000029768
      8        6          -0.024851473    0.009176318    0.000030664
      9        6           0.017231529   -0.011441007   -0.000040776
     10        1           0.001190727   -0.003893587    0.000008949
     11        1           0.001053972    0.003672226    0.000007825
     12        1           0.003760816   -0.000565451   -0.000002011
     13        1          -0.002750227   -0.001643429    0.000000816
     14        1           0.000115227   -0.002900711   -0.000001352
     15        1          -0.002918016    0.001339478   -0.000000869
     16        1           0.000382373    0.002701307    0.000001051
 -------------------------------------------------------------------
 Cartesian Forces:  Max     0.029095905 RMS     0.010687193

 GradGradGradGradGradGradGradGradGradGradGradGradGradGradGradGradGradGrad
 Berny optimization.
 FormGI is forming the generalized inverse of G from B-inverse, IUseBI=4.
 Internal  Forces:  Max     0.032626381 RMS     0.007456216
 Search for a local minimum.
 Step number   1 out of a maximum of   94
 All quantities printed in internal units (Hartrees-Bohrs-Radians)
 Mixed Optimization -- RFO/linear search
 Second derivative matrix not updated -- first step.
 ITU=  0
     Eigenvalues ---    0.01853   0.01931   0.01986   0.02012   0.02070
     Eigenvalues ---    0.02113   0.02148   0.02153   0.02172   0.02209
     Eigenvalues ---    0.02233   0.02248   0.02338   0.16000   0.16000
     Eigenvalues ---    0.16000   0.16000   0.16000   0.16000   0.16000
     Eigenvalues ---    0.22000   0.22188   0.22662   0.24011   0.24651
     Eigenvalues ---    0.35712   0.35717   0.35783   0.35790   0.36420
     Eigenvalues ---    0.36427   0.37009   0.38432   0.42633   0.43465
     Eigenvalues ---    0.45769   0.46692   0.47162   0.47468   0.47567
     Eigenvalues ---    0.48125   0.50955
 RFO step:  Lambda=-1.01913715D-02 EMin= 1.85287394D-02
 Linear search not attempted -- first point.
 Iteration  1 RMS(Cart)=  0.02337405 RMS(Int)=  0.00011204
 Iteration  2 RMS(Cart)=  0.00018372 RMS(Int)=  0.00001430
 Iteration  3 RMS(Cart)=  0.00000002 RMS(Int)=  0.00001430
 Variable       Old X    -DE/DX   Delta X   Delta X   Delta X     New X
                                 (Linear)    (Quad)   (Total)
    R1        2.65547   0.02483   0.00000   0.05484   0.05482   2.71029
    R2        2.61291   0.03263   0.00000   0.06612   0.06612   2.67903
    R3        2.04421   0.00320   0.00000   0.00871   0.00871   2.05292
    R4        2.61557   0.02404   0.00000   0.04887   0.04885   2.66443
    R5        2.04411   0.00320   0.00000   0.00870   0.00870   2.05282
    R6        2.63373   0.01964   0.00000   0.04077   0.04077   2.67450
    R7        2.04534   0.00290   0.00000   0.00790   0.00790   2.05324
    R8        2.68058   0.03058   0.00000   0.06878   0.06878   2.74935
    R9        2.60126  -0.00290   0.00000  -0.00616  -0.00617   2.59509
   R10        2.64771   0.01311   0.00000   0.02804   0.02806   2.67576
   R11        2.70839  -0.01012   0.00000  -0.02415  -0.02416   2.68423
   R12        2.04526   0.00269   0.00000   0.00732   0.00732   2.05259
   R13        2.60573   0.00803   0.00000   0.01615   0.01617   2.62190
   R14        1.89542   0.00407   0.00000   0.00845   0.00845   1.90387
   R15        2.57870   0.02242   0.00000   0.04280   0.04282   2.62152
   R16        2.03419   0.00381   0.00000   0.01018   0.01018   2.04436
   R17        2.03430   0.00380   0.00000   0.01015   0.01015   2.04445
    A1        2.11420   0.00255   0.00000   0.01332   0.01330   2.12750
    A2        2.07986  -0.00148   0.00000  -0.00786  -0.00785   2.07201
    A3        2.08912  -0.00107   0.00000  -0.00546  -0.00545   2.08368
    A4        2.11523   0.00130   0.00000   0.00744   0.00740   2.12263
    A5        2.08365  -0.00062   0.00000  -0.00354  -0.00352   2.08014
    A6        2.08430  -0.00068   0.00000  -0.00390  -0.00388   2.08042
    A7        2.05144  -0.00496   0.00000  -0.02174  -0.02176   2.02968
    A8        2.11267   0.00256   0.00000   0.01132   0.01133   2.12400
    A9        2.11908   0.00240   0.00000   0.01042   0.01043   2.12951
   A10        2.13389   0.00389   0.00000   0.01450   0.01453   2.14842
   A11        2.27895  -0.00370   0.00000  -0.01237  -0.01236   2.26659
   A12        1.87035  -0.00019   0.00000  -0.00213  -0.00217   1.86818
   A13        2.07274   0.00292   0.00000   0.01056   0.01061   2.08335
   A14        1.86517  -0.00170   0.00000  -0.00698  -0.00702   1.85815
   A15        2.34527  -0.00123   0.00000  -0.00359  -0.00359   2.34168
   A16        2.07887  -0.00570   0.00000  -0.02409  -0.02408   2.05479
   A17        2.10306   0.00332   0.00000   0.01479   0.01478   2.11785
   A18        2.10125   0.00238   0.00000   0.00930   0.00930   2.11055
   A19        1.90743   0.00171   0.00000   0.00637   0.00638   1.91381
   A20        2.19023  -0.00094   0.00000  -0.00369  -0.00369   2.18653
   A21        2.18553  -0.00077   0.00000  -0.00268  -0.00269   2.18284
   A22        1.86968   0.00223   0.00000   0.01069   0.01071   1.88040
   A23        2.21717  -0.00140   0.00000  -0.00702  -0.00703   2.21014
   A24        2.19633  -0.00083   0.00000  -0.00367  -0.00368   2.19265
   A25        1.91215  -0.00206   0.00000  -0.00795  -0.00790   1.90424
   A26        2.10250   0.00086   0.00000   0.00298   0.00296   2.10546
   A27        2.26854   0.00120   0.00000   0.00497   0.00495   2.27348
    D1       -0.00001  -0.00000   0.00000  -0.00005  -0.00005  -0.00006
    D2       -3.14156  -0.00000   0.00000  -0.00007  -0.00007   3.14156
    D3        3.14152   0.00000   0.00000   0.00002   0.00002   3.14155
    D4       -0.00002   0.00000   0.00000   0.00000   0.00000  -0.00002
    D5       -0.00003   0.00000   0.00000   0.00012   0.00012   0.00009
    D6        3.14153   0.00000   0.00000   0.00009   0.00010  -3.14156
    D7       -3.14157   0.00000   0.00000   0.00005   0.00005  -3.14152
    D8       -0.00001   0.00000   0.00000   0.00002   0.00002   0.00002
    D9        0.00003  -0.00000   0.00000  -0.00005  -0.00005  -0.00002
   D10       -3.14154  -0.00000   0.00000  -0.00001  -0.00000  -3.14154
   D11        3.14158  -0.00000   0.00000  -0.00003  -0.00003   3.14155
   D12        0.00001   0.00000   0.00000   0.00002   0.00002   0.00002
   D13       -0.00001   0.00000   0.00000   0.00008   0.00008   0.00007
   D14       -3.14144  -0.00000   0.00000  -0.00004  -0.00004  -3.14148
   D15        3.14156   0.00000   0.00000   0.00003   0.00003   3.14159
   D16        0.00013  -0.00000   0.00000  -0.00009  -0.00009   0.00005
   D17       -0.00004   0.00000   0.00000  -0.00001  -0.00001  -0.00004
   D18       -3.14151  -0.00000   0.00000  -0.00015  -0.00016   3.14152
   D19        3.14143   0.00000   0.00000   0.00008   0.00009   3.14151
   D20       -0.00005  -0.00000   0.00000  -0.00006  -0.00006  -0.00011
   D21       -3.14124  -0.00001   0.00000  -0.00024  -0.00024  -3.14149
   D22       -0.00113   0.00000   0.00000   0.00005   0.00004  -0.00109
   D23        0.00049  -0.00001   0.00000  -0.00034  -0.00035   0.00015
   D24        3.14060  -0.00000   0.00000  -0.00006  -0.00006   3.14055
   D25        0.00005  -0.00000   0.00000  -0.00009  -0.00009  -0.00004
   D26       -3.14151  -0.00000   0.00000  -0.00007  -0.00007  -3.14158
   D27        3.14150   0.00000   0.00000   0.00010   0.00011  -3.14158
   D28       -0.00007   0.00000   0.00000   0.00013   0.00013   0.00006
   D29       -0.00041   0.00001   0.00000   0.00045   0.00045   0.00004
   D30        3.14139   0.00001   0.00000   0.00017   0.00017   3.14155
   D31        3.14132   0.00001   0.00000   0.00027   0.00027   3.14159
   D32       -0.00006  -0.00000   0.00000  -0.00002  -0.00002  -0.00008
   D33       -0.00077   0.00002   0.00000   0.00065   0.00065  -0.00012
   D34        3.14133   0.00001   0.00000   0.00020   0.00019   3.14152
   D35       -3.14089   0.00001   0.00000   0.00037   0.00036  -3.14053
   D36        0.00121  -0.00000   0.00000  -0.00009  -0.00009   0.00112
   D37        0.00072  -0.00002   0.00000  -0.00067  -0.00067   0.00005
   D38       -3.14144  -0.00000   0.00000  -0.00016  -0.00016   3.14158
   D39       -3.14107  -0.00001   0.00000  -0.00039  -0.00039  -3.14147
   D40       -0.00005   0.00000   0.00000   0.00012   0.00012   0.00007
         Item               Value     Threshold  Converged?
 Maximum Force            0.032626     0.000450     NO 
 RMS     Force            0.007456     0.000300     NO 
 Maximum Displacement     0.093748     0.001800     NO 
 RMS     Displacement     0.023371     0.001200     NO 
 Predicted change in Energy=-5.213056D-03
 GradGradGradGradGradGradGradGradGradGradGradGradGradGradGradGradGradGrad

                          Input orientation:                          
 ---------------------------------------------------------------------
 Center     Atomic      Atomic             Coordinates (Angstroms)
 Number     Number       Type             X           Y           Z
 ---------------------------------------------------------------------
      1          6           0       -2.167396    0.700842   -0.000007
      2          6           0       -2.144312   -0.733196    0.000038
      3          6           0       -0.931903   -1.452941    0.000042
      4          6           0        0.254888   -0.681861   -0.000024
      5          6           0        0.256992    0.773033   -0.000007
      6          6           0       -0.975997    1.469209    0.000025
      7          7           0        1.567290   -1.086148   -0.000160
      8          6           0        1.619764    1.173641    0.000017
      9          6           0        2.397915    0.025190   -0.000039
     10          1           0        1.881256   -2.043463    0.000659
     11          1           0        1.994204    2.188605   -0.000000
     12          1           0        3.473585   -0.090541   -0.000050
     13          1           0       -3.084080   -1.278074    0.000044
     14          1           0       -0.912929   -2.539302    0.000028
     15          1           0       -3.128413    1.207423   -0.000051
     16          1           0       -1.003964    2.555030    0.000022
 ---------------------------------------------------------------------
                    Distance matrix (angstroms):
                    1          2          3          4          5
     1  C    0.000000
     2  C    1.434224   0.000000
     3  C    2.482987   1.409953   0.000000
     4  C    2.789145   2.399749   1.415287   0.000000
     5  C    2.425463   2.834605   2.523575   1.454895   0.000000
     6  C    1.417681   2.493100   2.922482   2.478342   1.415953
     7  N    4.140196   3.728346   2.525966   1.373262   2.274519
     8  C    3.816558   4.219513   3.661958   2.303426   1.420434
     9  C    4.615038   4.605104   3.643153   2.256654   2.267779
    10  H    4.891094   4.233438   2.874471   2.121093   3.251290
    11  H    4.419543   5.065988   4.671505   3.356307   2.240926
    12  H    5.696223   5.654536   4.611340   3.272563   3.330500
    13  H    2.180922   1.086304   2.159269   3.391781   3.920434
    14  H    3.474511   2.185938   1.086528   2.194057   3.512873
    15  H    1.086359   2.175881   3.449955   3.875064   3.413160
    16  H    2.188970   3.480349   4.008619   3.473064   2.183008
                    6          7          8          9         10
     6  C    0.000000
     7  N    3.605296   0.000000
     8  C    2.612534   2.260399   0.000000
     9  C    3.669942   1.387448   1.387249   0.000000
    10  H    4.527997   1.007485   3.227714   2.132197   0.000000
    11  H    3.056080   3.302463   1.081831   2.200760   4.233575
    12  H    4.715040   2.150627   2.243839   1.081878   2.519805
    13  H    3.462886   4.655328   5.304437   5.634782   5.023981
    14  H    4.009007   2.874568   4.494494   4.187877   2.837838
    15  H    2.168277   5.225906   4.748297   5.651370   5.972022
    16  H    1.086182   4.457525   2.965161   4.239443   5.428687
                   11         12         13         14         15
    11  H    0.000000
    12  H    2.717181   0.000000
    13  H    6.148726   6.664324   0.000000
    14  H    5.550183   5.023737   2.510895   0.000000
    15  H    5.215738   6.728380   2.485893   4.352737   0.000000
    16  H    3.020477   5.200721   4.361144   5.095146   2.515816
                   16
    16  H    0.000000
 Stoichiometry    C8H7N
 Framework group  C1[X(C8H7N)]
 Deg. of freedom    42
 Full point group                 C1      NOp   1
 Largest Abelian subgroup         C1      NOp   1
 Largest concise Abelian subgroup C1      NOp   1
                         Standard orientation:                         
 ---------------------------------------------------------------------
 Center     Atomic      Atomic             Coordinates (Angstroms)
 Number     Number       Type             X           Y           Z
 ---------------------------------------------------------------------
      1          6           0       -2.168470    0.699386   -0.000004
      2          6           0       -2.144851   -0.734644    0.000041
      3          6           0       -0.932174   -1.453936    0.000045
      4          6           0        0.254330   -0.682413   -0.000021
      5          6           0        0.255891    0.772481   -0.000004
      6          6           0       -0.977357    1.468197    0.000028
      7          7           0        1.566883   -1.086212   -0.000157
      8          6           0        1.618513    1.173597    0.000020
      9          6           0        2.397093    0.025437   -0.000035
     10          1           0        1.881206   -2.043409    0.000662
     11          1           0        1.992575    2.188701    0.000003
     12          1           0        3.472806   -0.089893   -0.000047
     13          1           0       -3.084416   -1.279873    0.000047
     14          1           0       -0.912794   -2.540291    0.000032
     15          1           0       -3.129676    1.205608   -0.000048
     16          1           0       -1.005729    2.554008    0.000025
 ---------------------------------------------------------------------
 Rotational constants (GHZ):           3.7539965           1.6256028           1.1343795
 Standard basis: 6-31+G(d) (6D, 7F)
 There are   185 symmetry adapted cartesian basis functions of A   symmetry.
 There are   185 symmetry adapted basis functions of A   symmetry.
   185 basis functions,   316 primitive gaussians,   185 cartesian basis functions
    31 alpha electrons       31 beta electrons
       nuclear repulsion energy       396.9432406823 Hartrees.
 NAtoms=   16 NActive=   16 NUniq=   16 SFac= 1.00D+00 NAtFMM=   60 NAOKFM=F Big=F
 Integral buffers will be    131072 words long.
 Regular integral format.
 Two-electron integral symmetry is turned on.
 One-electron integrals computed using PRISM.
 NBasis=   185 RedAO= T EigKep=  1.46D-06  NBF=   185
 NBsUse=   185 1.00D-06 EigRej= -1.00D+00 NBFU=   185
 Initial guess from the checkpoint file:  "FuncsPBE1PBE-V-2nd.chk"
 B after Tr=     0.000000   -0.000000    0.000000
         Rot=    1.000000    0.000004    0.000001   -0.000153 Ang=   0.02 deg.
 ExpMin= 4.38D-02 ExpMax= 4.17D+03 ExpMxC= 6.27D+02 IAcc=3 IRadAn=         5 AccDes= 0.00D+00
 Harris functional with IExCor= 1009 and IRadAn=       5 diagonalized for initial guess.
 HarFok:  IExCor= 1009 AccDes= 0.00D+00 IRadAn=         5 IDoV= 1 UseB2=F ITyADJ=14
 ICtDFT=  3500011 ScaDFX=  1.000000  1.000000  1.000000  1.000000
 FoFCou: FMM=F IPFlag=           0 FMFlag=      100000 FMFlg1=           0
         NFxFlg=           0 DoJE=T BraDBF=F KetDBF=T FulRan=T
         wScrn=  0.000000 ICntrl=       500 IOpCl=  0 I1Cent=   200000004 NGrid=           0
         NMat0=    1 NMatS0=      1 NMatT0=    0 NMatD0=    1 NMtDS0=    0 NMtDT0=    0
 Petite list used in FoFCou.
 Keep R1 ints in memory in canonical form, NReq=152071459.
 Requested convergence on RMS density matrix=1.00D-08 within 128 cycles.
 Requested convergence on MAX density matrix=1.00D-06.
 Requested convergence on             energy=1.00D-06.
 No special actions if energy rises.
 SCF Done:  E(RPBE1PBE) =  -363.399976874     A.U. after   12 cycles
            NFock= 12  Conv=0.61D-08     -V/T= 2.0100
 DoSCS=F DFT=T ScalE2(SS,OS)=  1.000000  1.000000
 ExpMin= 4.38D-02 ExpMax= 4.17D+03 ExpMxC= 6.27D+02 IAcc=3 IRadAn=         5 AccDes= 0.00D+00
 HarFok:  IExCor=  205 AccDes= 0.00D+00 IRadAn=         5 IDoV=-2 UseB2=F ITyADJ=14
 ICtDFT= 12500011 ScaDFX=  1.000000  1.000000  1.000000  1.000000
 Range of M.O.s used for correlation:    10   185
 NBasis=   185 NAE=    31 NBE=    31 NFC=     9 NFV=     0
 NROrb=    176 NOA=    22 NOB=    22 NVA=   154 NVB=   154

 **** Warning!!: The largest alpha MO coefficient is  0.16740980D+03

 Orbital symmetries:
       Occupied  (A) (A) (A) (A) (A) (A) (A) (A) (A) (A) (A) (A)
                 (A) (A) (A) (A) (A) (A) (A) (A) (A) (A) (A) (A)
                 (A) (A) (A) (A) (A) (A) (A)
       Virtual   (A) (A) (A) (A) (A) (A) (A) (A) (A) (A) (A) (A)
                 (A) (A) (A) (A) (A) (A) (A) (A) (A) (A) (A) (A)
                 (A) (A) (A) (A) (A) (A) (A) (A) (A) (A) (A) (A)
                 (A) (A) (A) (A) (A) (A) (A) (A) (A) (A) (A) (A)
                 (A) (A) (A) (A) (A) (A) (A) (A) (A) (A) (A) (A)
                 (A) (A) (A) (A) (A) (A) (A) (A) (A) (A) (A) (A)
                 (A) (A) (A) (A) (A) (A) (A) (A) (A) (A) (A) (A)
                 (A) (A) (A) (A) (A) (A) (A) (A) (A) (A) (A) (A)
                 (A) (A) (A) (A) (A) (A) (A) (A) (A) (A) (A) (A)
                 (A) (A) (A) (A) (A) (A) (A) (A) (A) (A) (A) (A)
                 (A) (A) (A) (A) (A) (A) (A) (A) (A) (A) (A) (A)
                 (A) (A) (A) (A) (A) (A) (A) (A) (A) (A) (A) (A)
                 (A) (A) (A) (A) (A) (A) (A) (A) (A) (A)
 Generating guess from densities on rwf.
 Convergence on wavefunction:    0.000001000000000
 Iteration     1 Dimension    12 NMult     0 NNew     12
 CISAX will form    12 AO SS matrices at one time.
 Iteration     2 Dimension    24 NMult    12 NNew     12
 Iteration     3 Dimension    36 NMult    24 NNew     12
 Iteration     4 Dimension    48 NMult    36 NNew     12
 Iteration     5 Dimension    60 NMult    48 NNew     12
 Iteration     6 Dimension    72 NMult    60 NNew     12
 Iteration     7 Dimension    84 NMult    72 NNew     12
 Iteration     8 Dimension    96 NMult    84 NNew     12
 Iteration     9 Dimension   108 NMult    96 NNew     12
 Iteration    10 Dimension   112 NMult   108 NNew      4
 Iteration    11 Dimension   114 NMult   112 NNew      2
 ***********************************************************************
 Excited states from <AA,BB:AA,BB> singles matrix:
 ***********************************************************************
 
 Ground to excited state transition densities written to RWF  633
 Ground to excited state transition electric dipole moments (Au):
       state          X           Y           Z        Dip. S.      Osc.
         1        -0.6495      0.6327     -0.0000      0.8221      0.0952
         2        -0.5368     -0.2027     -0.0000      0.3293      0.0385
         3         0.0005     -0.0001     -0.1454      0.0212      0.0026
         4        -0.0003      0.0000     -0.1167      0.0136      0.0018
         5         0.0001     -0.0000      0.0010      0.0000      0.0000
         6         0.0003      0.0001      0.1073      0.0115      0.0016
 Ground to excited state transition velocity dipole moments (Au):
       state          X           Y           Z        Dip. S.      Osc.
         1         0.1029     -0.1182      0.0000      0.0246      0.0943
         2         0.0898      0.0373      0.0000      0.0095      0.0359
         3        -0.0001      0.0000      0.0189      0.0004      0.0013
         4         0.0001     -0.0000      0.0258      0.0007      0.0022
         5        -0.0000      0.0000      0.0010      0.0000      0.0000
         6        -0.0001     -0.0000     -0.0219      0.0005      0.0015
 Ground to excited state transition magnetic dipole moments (Au):
       state          X           Y           Z
         1         0.0001      0.0000      0.1780
         2        -0.0001     -0.0001     -0.0666
         3         0.1186     -0.0913      0.0002
         4         0.0379     -0.2287     -0.0001
         5         0.3010     -0.2020      0.0001
         6         0.1347      0.3561      0.0003
 Ground to excited state transition velocity quadrupole moments (Au):
       state          XX          YY          ZZ          XY          XZ          YZ
         1         0.2131     -0.1344      0.0140      0.0467      0.0000     -0.0000
         2         0.0401     -0.0964      0.0196     -0.0115      0.0000     -0.0000
         3        -0.0001      0.0001      0.0001      0.0001      0.0745      0.0396
         4         0.0001     -0.0001     -0.0000     -0.0000      0.1461     -0.0157
         5         0.0000     -0.0000      0.0000      0.0000      0.2293      0.2606
         6        -0.0000      0.0001      0.0000      0.0002     -0.3084      0.0326
 <0|del|b> * <b|rxdel|0> + <0|del|b> * <b|delr+rdel|0>
 Rotatory Strengths (R) in cgs (10**-40 erg-esu-cm/Gauss)
       state          XX          YY          ZZ    R(velocity)    E-M Angle
         1        -0.0040      0.0131      0.0081      0.0057       90.00
         2        -0.0099     -0.0160     -0.0128     -0.0129       90.00
         3         0.0002     -0.0212     -0.0130     -0.0113       90.00
         4        -0.0012      0.0015      0.0068      0.0024       90.00
         5        -0.0017     -0.0223     -0.0015     -0.0085       90.00
         6        -0.0387     -0.0199     -0.0115     -0.0234       90.00
 1/2[<0|r|b>*<b|rxdel|0> + (<0|rxdel|b>*<b|r|0>)*]
 Rotatory Strengths (R) in cgs (10**-40 erg-esu-cm/Gauss)
       state          XX          YY          ZZ     R(length)
         1         0.0377     -0.0179      0.0053      0.0084
         2        -0.0248     -0.0123     -0.0022     -0.0131
         3        -0.0412     -0.0071      0.0156     -0.0109
         4         0.0082      0.0067     -0.0053      0.0032
         5        -0.0262     -0.0021     -0.0001     -0.0095
         6        -0.0284     -0.0274     -0.0215     -0.0258
  1/2[<0|del|b>*<b|r|0> + (<0|r|b>*<b|del|0>)*] (Au)
       state          X           Y           Z        Dip. S.   Osc.(frdel)
         1        -0.0668     -0.0748     -0.0000      0.1416      0.0944
         2        -0.0482     -0.0076     -0.0000      0.0558      0.0372
         3        -0.0000     -0.0000     -0.0028      0.0028      0.0018
         4        -0.0000     -0.0000     -0.0030      0.0030      0.0020
         5        -0.0000     -0.0000      0.0000     -0.0000     -0.0000
         6        -0.0000     -0.0000     -0.0023      0.0023      0.0016

 Excitation energies and oscillator strengths:
 
 Excited State   1:      Singlet-A      4.7257 eV  262.36 nm  f=0.0952  <S**2>=0.000
      30 -> 34         0.16720
      31 -> 32         0.66720
 
 Excited State   2:      Singlet-A      4.7772 eV  259.53 nm  f=0.0385  <S**2>=0.000
      30 -> 32         0.58361
      31 -> 34        -0.38158
 This state for optimization and/or second-order correction.
 Total Energy, E(TD-HF/TD-DFT) =  -363.224417890    
 Copying the excited state density for this state as the 1-particle RhoCI density.
 
 Excited State   3:      Singlet-A      5.0711 eV  244.49 nm  f=0.0026  <S**2>=0.000
      31 -> 33         0.70289
 
 Excited State   4:      Singlet-A      5.4801 eV  226.24 nm  f=0.0018  <S**2>=0.000
      30 -> 33         0.69601
 
 Excited State   5:      Singlet-A      5.6692 eV  218.70 nm  f=0.0000  <S**2>=0.000
      31 -> 35         0.69380
 
 Excited State   6:      Singlet-A      5.7684 eV  214.94 nm  f=0.0016  <S**2>=0.000
      31 -> 36         0.69401
 SavETr:  write IOETrn=   770 NScale= 10 NData=  16 NLR=1 NState=    6 LETran=     118.
          IDoAtm=1111111111111111
          Differentiating once with respect to electric field.
                with respect to dipole field.
          Differentiating once with respect to nuclear coordinates.
 Keep R1 ints in memory in canonical form, NReq=152083851.
          There are     1 degrees of freedom in the 1st order CPHF.  IDoFFX=0 NUNeed=     1.
 LinEq1:  Iter=  0 NonCon=     1 RMS=4.93D-03 Max=1.28D-01 NDo=     1
 AX will form     1 AO Fock derivatives at one time.
 LinEq1:  Iter=  1 NonCon=     1 RMS=1.87D-03 Max=5.49D-02 NDo=     1
 LinEq1:  Iter=  2 NonCon=     1 RMS=1.65D-03 Max=6.19D-02 NDo=     1
 LinEq1:  Iter=  3 NonCon=     1 RMS=6.66D-04 Max=1.49D-02 NDo=     1
 LinEq1:  Iter=  4 NonCon=     1 RMS=3.17D-04 Max=1.08D-02 NDo=     1
 LinEq1:  Iter=  5 NonCon=     1 RMS=1.88D-04 Max=4.43D-03 NDo=     1
 LinEq1:  Iter=  6 NonCon=     1 RMS=1.06D-04 Max=2.08D-03 NDo=     1
 LinEq1:  Iter=  7 NonCon=     1 RMS=4.84D-05 Max=1.06D-03 NDo=     1
 LinEq1:  Iter=  8 NonCon=     1 RMS=3.33D-05 Max=7.26D-04 NDo=     1
 LinEq1:  Iter=  9 NonCon=     1 RMS=1.25D-05 Max=2.62D-04 NDo=     1
 LinEq1:  Iter= 10 NonCon=     1 RMS=9.44D-06 Max=2.38D-04 NDo=     1
 LinEq1:  Iter= 11 NonCon=     1 RMS=2.59D-06 Max=6.60D-05 NDo=     1
 LinEq1:  Iter= 12 NonCon=     1 RMS=1.56D-06 Max=2.69D-05 NDo=     1
 LinEq1:  Iter= 13 NonCon=     1 RMS=6.81D-07 Max=1.47D-05 NDo=     1
 LinEq1:  Iter= 14 NonCon=     1 RMS=2.31D-07 Max=3.89D-06 NDo=     1
 LinEq1:  Iter= 15 NonCon=     1 RMS=1.45D-07 Max=2.69D-06 NDo=     1
 LinEq1:  Iter= 16 NonCon=     1 RMS=3.28D-08 Max=5.53D-07 NDo=     1
 LinEq1:  Iter= 17 NonCon=     1 RMS=1.64D-08 Max=3.61D-07 NDo=     1
 LinEq1:  Iter= 18 NonCon=     1 RMS=6.09D-09 Max=8.66D-08 NDo=     1
 LinEq1:  Iter= 19 NonCon=     1 RMS=1.30D-09 Max=2.28D-08 NDo=     1
 LinEq1:  Iter= 20 NonCon=     1 RMS=1.93D-10 Max=3.11D-09 NDo=     1
 LinEq1:  Iter= 21 NonCon=     0 RMS=3.20D-11 Max=3.92D-10 NDo=     1
 Linear equations converged to 1.000D-10 1.000D-09 after    21 iterations.
 End of Minotr F.D. properties file   721 does not exist.
 End of Minotr F.D. properties file   722 does not exist.
 End of Minotr F.D. properties file   788 does not exist.
 Calling FoFJK, ICntrl=  10005127 FMM=F ISym2X=0 I1Cent= 0 IOpClX= 0 NMat=1 NMatS=1 NMatT=0.
 ***** Axes restored to original set *****
 -------------------------------------------------------------------
 Center     Atomic                   Forces (Hartrees/Bohr)
 Number     Number              X              Y              Z
 -------------------------------------------------------------------
      1        6           0.000270354   -0.004352835    0.000001722
      2        6          -0.000622430    0.000945744    0.000000095
      3        6           0.000192884   -0.000085654    0.000001263
      4        6           0.002522310   -0.007153863   -0.000001157
      5        6           0.000371657    0.003965791   -0.000000389
      6        6           0.004394968    0.000269122   -0.000002101
      7        7          -0.012876373    0.003543684    0.000005529
      8        6          -0.000531197   -0.004458851   -0.000005947
      9        6           0.007085907    0.007023433    0.000008670
     10        1          -0.000211257   -0.000170027   -0.000006278
     11        1           0.000500397   -0.000148470   -0.000000318
     12        1          -0.000648327    0.000085550   -0.000000687
     13        1           0.000023135    0.000913442    0.000000035
     14        1          -0.000059916    0.000825697   -0.000000864
     15        1           0.000046768   -0.000288941    0.000000062
     16        1          -0.000458880   -0.000913821    0.000000365
 -------------------------------------------------------------------
 Cartesian Forces:  Max     0.012876373 RMS     0.002939057

 GradGradGradGradGradGradGradGradGradGradGradGradGradGradGradGradGradGrad
 Berny optimization.
 Using GEDIIS/GDIIS optimizer.
 FormGI is forming the generalized inverse of G from B-inverse, IUseBI=4.
 Internal  Forces:  Max     0.007753375 RMS     0.001582641
 Search for a local minimum.
 Step number   2 out of a maximum of   94
 All quantities printed in internal units (Hartrees-Bohrs-Radians)
 Mixed Optimization -- RFO/linear search
 Update second derivatives using D2CorX and points    1    2
 DE= -4.99D-03 DEPred=-5.21D-03 R= 9.57D-01
 TightC=F SS=  1.41D+00  RLast= 1.52D-01 DXNew= 5.0454D-01 4.5528D-01
 Trust test= 9.57D-01 RLast= 1.52D-01 DXMaxT set to 4.55D-01
 ITU=  1  0
 Use linear search instead of GDIIS.
     Eigenvalues ---    0.01853   0.01932   0.01986   0.02011   0.02071
     Eigenvalues ---    0.02113   0.02148   0.02153   0.02171   0.02209
     Eigenvalues ---    0.02234   0.02248   0.02339   0.15985   0.16000
     Eigenvalues ---    0.16000   0.16000   0.16000   0.16000   0.16010
     Eigenvalues ---    0.20915   0.22021   0.22893   0.24053   0.24638
     Eigenvalues ---    0.35714   0.35726   0.35784   0.35841   0.36407
     Eigenvalues ---    0.36466   0.36976   0.38287   0.42131   0.42966
     Eigenvalues ---    0.44353   0.46596   0.46871   0.47172   0.47605
     Eigenvalues ---    0.48470   0.58974
 RFO step:  Lambda=-5.83658389D-04 EMin= 1.85283352D-02
 Quartic linear search produced a step of -0.00333.
 Iteration  1 RMS(Cart)=  0.00635168 RMS(Int)=  0.00002416
 Iteration  2 RMS(Cart)=  0.00003021 RMS(Int)=  0.00000886
 Iteration  3 RMS(Cart)=  0.00000000 RMS(Int)=  0.00000886
 Variable       Old X    -DE/DX   Delta X   Delta X   Delta X     New X
                                 (Linear)    (Quad)   (Total)
    R1        2.71029  -0.00296  -0.00018  -0.00337  -0.00355   2.70674
    R2        2.67903   0.00185  -0.00022   0.00767   0.00745   2.68648
    R3        2.05292  -0.00018  -0.00003   0.00003   0.00000   2.05293
    R4        2.66443  -0.00125  -0.00016   0.00036   0.00020   2.66462
    R5        2.05282  -0.00048  -0.00003  -0.00081  -0.00084   2.05198
    R6        2.67450  -0.00061  -0.00014   0.00124   0.00110   2.67561
    R7        2.05324  -0.00083  -0.00003  -0.00183  -0.00185   2.05138
    R8        2.74935   0.00173  -0.00023   0.00792   0.00766   2.75702
    R9        2.59509  -0.00775   0.00002  -0.01625  -0.01623   2.57886
   R10        2.67576  -0.00363  -0.00009  -0.00626  -0.00635   2.66941
   R11        2.68423  -0.00030   0.00008  -0.00195  -0.00189   2.68235
   R12        2.05259  -0.00090  -0.00002  -0.00207  -0.00210   2.05049
   R13        2.62190   0.00595  -0.00005   0.01307   0.01304   2.63493
   R14        1.90387   0.00010  -0.00003   0.00071   0.00068   1.90455
   R15        2.62152  -0.00408  -0.00014  -0.00484  -0.00497   2.61655
   R16        2.04436   0.00003  -0.00003   0.00070   0.00067   2.04503
   R17        2.04445  -0.00065  -0.00003  -0.00118  -0.00121   2.04324
    A1        2.12750   0.00185  -0.00004   0.00861   0.00857   2.13607
    A2        2.07201  -0.00117   0.00003  -0.00587  -0.00584   2.06617
    A3        2.08368  -0.00069   0.00002  -0.00275  -0.00273   2.08095
    A4        2.12263  -0.00099  -0.00002  -0.00438  -0.00441   2.11822
    A5        2.08014  -0.00030   0.00001  -0.00276  -0.00275   2.07739
    A6        2.08042   0.00129   0.00001   0.00714   0.00715   2.08758
    A7        2.02968  -0.00065   0.00007  -0.00419  -0.00413   2.02555
    A8        2.12400   0.00028  -0.00004   0.00183   0.00180   2.12580
    A9        2.12951   0.00037  -0.00003   0.00236   0.00233   2.13184
   A10        2.14842   0.00187  -0.00005   0.00924   0.00919   2.15761
   A11        2.26659   0.00077   0.00004   0.00290   0.00296   2.26954
   A12        1.86818  -0.00264   0.00001  -0.01214  -0.01215   1.85603
   A13        2.08335  -0.00194  -0.00004  -0.00685  -0.00687   2.07648
   A14        1.85815   0.00143   0.00002   0.00487   0.00486   1.86301
   A15        2.34168   0.00051   0.00001   0.00198   0.00201   2.34369
   A16        2.05479  -0.00014   0.00008  -0.00243  -0.00235   2.05244
   A17        2.11785  -0.00042  -0.00005  -0.00169  -0.00174   2.11611
   A18        2.11055   0.00057  -0.00003   0.00412   0.00409   2.11464
   A19        1.91381   0.00386  -0.00002   0.01707   0.01707   1.93088
   A20        2.18653  -0.00217   0.00001  -0.01007  -0.01006   2.17647
   A21        2.18284  -0.00169   0.00001  -0.00701  -0.00701   2.17583
   A22        1.88040   0.00059  -0.00004   0.00444   0.00440   1.88480
   A23        2.21014   0.00024   0.00002   0.00099   0.00101   2.21115
   A24        2.19265  -0.00083   0.00001  -0.00542  -0.00541   2.18724
   A25        1.90424  -0.00324   0.00003  -0.01424  -0.01418   1.89006
   A26        2.10546   0.00164  -0.00001   0.00716   0.00714   2.11260
   A27        2.27348   0.00161  -0.00002   0.00708   0.00705   2.28053
    D1       -0.00006   0.00000   0.00000   0.00001   0.00001  -0.00005
    D2        3.14156   0.00000   0.00000   0.00002   0.00002   3.14158
    D3        3.14155  -0.00000  -0.00000  -0.00000  -0.00000   3.14154
    D4       -0.00002   0.00000  -0.00000   0.00000   0.00000  -0.00002
    D5        0.00009  -0.00000  -0.00000  -0.00004  -0.00004   0.00005
    D6       -3.14156  -0.00000  -0.00000  -0.00000  -0.00000  -3.14156
    D7       -3.14152  -0.00000  -0.00000  -0.00002  -0.00002  -3.14154
    D8        0.00002   0.00000  -0.00000   0.00002   0.00002   0.00003
    D9       -0.00002   0.00000   0.00000   0.00002   0.00002   0.00000
   D10       -3.14154   0.00000   0.00000   0.00002   0.00002  -3.14153
   D11        3.14155   0.00000   0.00000   0.00001   0.00001   3.14156
   D12        0.00002   0.00000  -0.00000   0.00001   0.00001   0.00003
   D13        0.00007  -0.00000  -0.00000  -0.00003  -0.00003   0.00004
   D14       -3.14148  -0.00000   0.00000  -0.00002  -0.00002  -3.14150
   D15        3.14159  -0.00000  -0.00000  -0.00003  -0.00003   3.14156
   D16        0.00005  -0.00000   0.00000  -0.00002  -0.00002   0.00003
   D17       -0.00004   0.00000   0.00000   0.00001   0.00001  -0.00003
   D18        3.14152   0.00000   0.00000   0.00001   0.00001   3.14153
   D19        3.14151  -0.00000  -0.00000   0.00000   0.00000   3.14152
   D20       -0.00011   0.00000   0.00000   0.00000   0.00000  -0.00011
   D21       -3.14149   0.00000   0.00000   0.00003   0.00003  -3.14145
   D22       -0.00109   0.00000  -0.00000   0.00014   0.00014  -0.00095
   D23        0.00015   0.00000   0.00000   0.00004   0.00004   0.00019
   D24        3.14055   0.00000   0.00000   0.00015   0.00015   3.14069
   D25       -0.00004   0.00000   0.00000   0.00002   0.00002  -0.00001
   D26       -3.14158  -0.00000   0.00000  -0.00001  -0.00001  -3.14158
   D27       -3.14158   0.00000  -0.00000   0.00002   0.00002  -3.14156
   D28        0.00006  -0.00000  -0.00000  -0.00001  -0.00001   0.00005
   D29        0.00004  -0.00000  -0.00000  -0.00005  -0.00005  -0.00001
   D30        3.14155  -0.00000  -0.00000  -0.00002  -0.00002   3.14154
   D31        3.14159  -0.00000  -0.00000  -0.00004  -0.00005   3.14155
   D32       -0.00008  -0.00000   0.00000  -0.00001  -0.00001  -0.00010
   D33       -0.00012  -0.00000  -0.00000  -0.00007  -0.00007  -0.00020
   D34        3.14152   0.00000  -0.00000   0.00002   0.00002   3.14154
   D35       -3.14053  -0.00000  -0.00000  -0.00017  -0.00017  -3.14070
   D36        0.00112  -0.00000   0.00000  -0.00008  -0.00008   0.00104
   D37        0.00005   0.00000   0.00000   0.00007   0.00007   0.00012
   D38        3.14158  -0.00000   0.00000  -0.00003  -0.00003   3.14155
   D39       -3.14147   0.00000   0.00000   0.00004   0.00004  -3.14143
   D40        0.00007  -0.00000  -0.00000  -0.00006  -0.00006   0.00000
         Item               Value     Threshold  Converged?
 Maximum Force            0.007753     0.000450     NO 
 RMS     Force            0.001583     0.000300     NO 
 Maximum Displacement     0.026220     0.001800     NO 
 RMS     Displacement     0.006353     0.001200     NO 
 Predicted change in Energy=-2.925616D-04
 GradGradGradGradGradGradGradGradGradGradGradGradGradGradGradGradGradGrad

                          Input orientation:                          
 ---------------------------------------------------------------------
 Center     Atomic      Atomic             Coordinates (Angstroms)
 Number     Number       Type             X           Y           Z
 ---------------------------------------------------------------------
      1          6           0       -2.161937    0.694434    0.000007
      2          6           0       -2.146374   -0.737825    0.000051
      3          6           0       -0.934466   -1.458618    0.000038
      4          6           0        0.250254   -0.683294   -0.000019
      5          6           0        0.260946    0.775617   -0.000018
      6          6           0       -0.969803    1.468924    0.000004
      7          7           0        1.556941   -1.076873   -0.000143
      8          6           0        1.623169    1.174550    0.000003
      9          6           0        2.403715    0.030907    0.000024
     10          1           0        1.867381   -2.035716    0.000574
     11          1           0        1.999795    2.189084   -0.000038
     12          1           0        3.478317   -0.088701    0.000009
     13          1           0       -3.090073   -1.274972    0.000065
     14          1           0       -0.914444   -2.543980    0.000010
     15          1           0       -3.123266    1.200428   -0.000028
     16          1           0       -1.003252    2.553481   -0.000002
 ---------------------------------------------------------------------
                    Distance matrix (angstroms):
                    1          2          3          4          5
     1  C    0.000000
     2  C    1.432344   0.000000
     3  C    2.478371   1.410059   0.000000
     4  C    2.777913   2.397248   1.415870   0.000000
[...]
 ! D8    D(15,1,6,16)            0.0008         -DE/DX =    0.0                 !
 ! D9    D(1,2,3,4)             -0.0001         -DE/DX =    0.0                 !
 ! D10   D(1,2,3,14)          -179.9964         -DE/DX =    0.0                 !
 ! D11   D(13,2,3,4)           179.999          -DE/DX =    0.0                 !
 ! D12   D(13,2,3,14)            0.0026         -DE/DX =    0.0                 !
 ! D13   D(2,3,4,5)              0.0017         -DE/DX =    0.0                 !
 ! D14   D(2,3,4,7)           -179.9974         -DE/DX =    0.0                 !
 ! D15   D(14,3,4,5)           179.998          -DE/DX =    0.0                 !
 ! D16   D(14,3,4,7)            -0.0011         -DE/DX =    0.0                 !
 ! D17   D(3,4,5,6)             -0.0021         -DE/DX =    0.0                 !
 ! D18   D(3,4,5,8)            179.9962         -DE/DX =    0.0                 !
 ! D19   D(7,4,5,6)            179.9971         -DE/DX =    0.0                 !
 ! D20   D(7,4,5,8)             -0.0045         -DE/DX =    0.0                 !
 ! D21   D(3,4,7,9)           -179.9935         -DE/DX =    0.0                 !
 ! D22   D(3,4,7,10)            -0.0349         -DE/DX =    0.0                 !
 ! D23   D(5,4,7,9)              0.0073         -DE/DX =    0.0                 !
 ! D24   D(5,4,7,10)           179.9659         -DE/DX =    0.0                 !
 ! D25   D(4,5,6,1)              0.0009         -DE/DX =    0.0                 !
 ! D26   D(4,5,6,16)          -179.9993         -DE/DX =    0.0                 !
 ! D27   D(8,5,6,1)           -179.9969         -DE/DX =    0.0                 !
 ! D28   D(8,5,6,16)             0.0029         -DE/DX =    0.0                 !
 ! D29   D(4,5,8,9)              0.0002         -DE/DX =    0.0                 !
 ! D30   D(4,5,8,11)           179.9983         -DE/DX =    0.0                 !
 ! D31   D(6,5,8,9)            179.9981         -DE/DX =    0.0                 !
 ! D32   D(6,5,8,11)            -0.0037         -DE/DX =    0.0                 !
 ! D33   D(4,7,9,8)             -0.0074         -DE/DX =    0.0                 !
 ! D34   D(4,7,9,12)           179.9999         -DE/DX =    0.0                 !
 ! D35   D(10,7,9,8)          -179.9661         -DE/DX =    0.0                 !
 ! D36   D(10,7,9,12)            0.0412         -DE/DX =    0.0                 !
 ! D37   D(5,8,9,7)              0.0042         -DE/DX =    0.0                 !
 ! D38   D(5,8,9,12)           179.996          -DE/DX =    0.0                 !
 ! D39   D(11,8,9,7)          -179.994          -DE/DX =    0.0                 !
 ! D40   D(11,8,9,12)           -0.0023         -DE/DX =    0.0                 !
 --------------------------------------------------------------------------------
 GradGradGradGradGradGradGradGradGradGradGradGradGradGradGradGradGradGrad

                          Input orientation:                          
 ---------------------------------------------------------------------
 Center     Atomic      Atomic             Coordinates (Angstroms)
 Number     Number       Type             X           Y           Z
 ---------------------------------------------------------------------
      1          6           0       -2.159614    0.697029    0.000002
      2          6           0       -2.138030   -0.733300    0.000052
      3          6           0       -0.930986   -1.458416    0.000054
      4          6           0        0.252987   -0.682662   -0.000001
      5          6           0        0.258625    0.776957   -0.000020
      6          6           0       -0.973678    1.472899   -0.000028
      7          7           0        1.559305   -1.080604   -0.000062
      8          6           0        1.616480    1.172289    0.000014
      9          6           0        2.400233    0.026654    0.000048
     10          1           0        1.871113   -2.038910    0.000426
     11          1           0        1.995002    2.186029   -0.000013
     12          1           0        3.474378   -0.093293    0.000021
     13          1           0       -3.082807   -1.268814    0.000075
     14          1           0       -0.911919   -2.543295    0.000035
     15          1           0       -3.123457    1.197988   -0.000014
     16          1           0       -1.010731    2.556896   -0.000054
 ---------------------------------------------------------------------
                    Distance matrix (angstroms):
                    1          2          3          4          5
     1  C    0.000000
     2  C    1.430492   0.000000
     3  C    2.481022   1.408101   0.000000
     4  C    2.779242   2.391552   1.415480   0.000000
     5  C    2.419559   2.832813   2.532206   1.459630   0.000000
     6  C    1.417187   2.494600   2.931626   2.480151   1.415240
     7  N    4.121934   3.713611   2.518788   1.365586   2.267665
     8  C    3.805885   4.210418   3.661993   2.302164   1.414235
     9  C    4.608862   4.601452   3.647253   2.261371   2.269238
    10  H    4.871563   4.216378   2.861597   2.111337   3.244877
    11  H    4.413384   5.060083   4.673691   3.356190   2.236178
    12  H    5.689154   5.648782   4.612027   3.274862   3.331427
    13  H    2.171826   1.085993   2.160158   3.386900   3.917952
    14  H    3.472240   2.186191   1.085047   2.195213   3.520547
    15  H    1.086256   2.168165   3.444330   3.864869   3.408188
    16  H    2.186101   3.477958   4.016103   3.477315   2.186194
                    6          7          8          9         10
     6  C    0.000000
     7  N    3.596718   0.000000
     8  C    2.607544   2.253619   0.000000
     9  C    3.670817   1.390388   1.388074   0.000000
    10  H    4.519473   1.007758   3.221280   2.132258   0.000000
    11  H    3.053132   3.295561   1.082103   2.197070   4.226756
    12  H    4.715735   2.154597   2.247996   1.080821   2.521088
    13  H    3.459107   4.645926   5.295497   5.634001   5.013420
    14  H    4.016669   2.871657   4.494260   4.192254   2.828369
    15  H    2.167286   5.207710   4.740007   5.646519   5.951743
    16  H    1.084630   4.453818   2.969743   4.246975   5.424616
                   11         12         13         14         15
    11  H    0.000000
    12  H    2.717327   0.000000
    13  H    6.141669   6.661722   0.000000
    14  H    5.551279   5.024153   2.517352   0.000000
    15  H    5.212950   6.723008   2.467137   4.346044   0.000000
    16  H    3.028526   5.209578   4.350811   5.101148   2.512020
                   16
    16  H    0.000000
 Stoichiometry    C8H7N
 Framework group  C1[X(C8H7N)]
 Deg. of freedom    42
 Full point group                 C1      NOp   1
 Largest Abelian subgroup         C1      NOp   1
 Largest concise Abelian subgroup C1      NOp   1
                         Standard orientation:                         
 ---------------------------------------------------------------------
 Center     Atomic      Atomic             Coordinates (Angstroms)
 Number     Number       Type             X           Y           Z
 ---------------------------------------------------------------------
      1          6           0       -2.159693    0.699934   -0.000011
      2          6           0       -2.140684   -0.730431    0.000040
      3          6           0       -0.934948   -1.457720    0.000041
      4          6           0        0.250419   -0.684099   -0.000013
      5          6           0        0.258686    0.775507   -0.000032
      6          6           0       -0.972361    1.473667   -0.000041
      7          7           0        1.556019   -1.084393   -0.000074
      8          6           0        1.617251    1.168394    0.000002
      9          6           0        2.398940    0.021349    0.000035
     10          1           0        1.866101   -2.043259    0.000414
     11          1           0        1.997598    2.181451   -0.000026
     12          1           0        3.472867   -0.100532    0.000009
     13          1           0       -3.086425   -1.264243    0.000063
     14          1           0       -0.917835   -2.542632    0.000022
     15          1           0       -3.122632    1.202628   -0.000027
     16          1           0       -1.007462    2.557729   -0.000066
 ---------------------------------------------------------------------
 Rotational constants (GHZ):           3.7513794           1.6319271           1.1372152

 **********************************************************************

            Population analysis using the CI Density.

 **********************************************************************

 Orbital symmetries:
       Occupied  (A) (A) (A) (A) (A) (A) (A) (A) (A) (A) (A) (A)
                 (A) (A) (A) (A) (A) (A) (A) (A) (A) (A) (A) (A)
                 (A) (A) (A) (A) (A) (A) (A)
       Virtual   (A) (A) (A) (A) (A) (A) (A) (A) (A) (A) (A) (A)
                 (A) (A) (A) (A) (A) (A) (A) (A) (A) (A) (A) (A)
                 (A) (A) (A) (A) (A) (A) (A) (A) (A) (A) (A) (A)
                 (A) (A) (A) (A) (A) (A) (A) (A) (A) (A) (A) (A)
                 (A) (A) (A) (A) (A) (A) (A) (A) (A) (A) (A) (A)
                 (A) (A) (A) (A) (A) (A) (A) (A) (A) (A) (A) (A)
                 (A) (A) (A) (A) (A) (A) (A) (A) (A) (A) (A) (A)
                 (A) (A) (A) (A) (A) (A) (A) (A) (A) (A) (A) (A)
                 (A) (A) (A) (A) (A) (A) (A) (A) (A) (A) (A) (A)
                 (A) (A) (A) (A) (A) (A) (A) (A) (A) (A) (A) (A)
                 (A) (A) (A) (A) (A) (A) (A) (A) (A) (A) (A) (A)
                 (A) (A) (A) (A) (A) (A) (A) (A) (A) (A) (A) (A)
                 (A) (A) (A) (A) (A) (A) (A) (A) (A) (A)
 The electronic state is 1-A.
 Alpha  occ. eigenvalues --  -14.45568 -10.27707 -10.27659 -10.24696 -10.24238
 Alpha  occ. eigenvalues --  -10.24171 -10.24149 -10.23694 -10.23077  -1.01337
 Alpha  occ. eigenvalues --   -0.85692  -0.80936  -0.75462  -0.73857  -0.64550
 Alpha  occ. eigenvalues --   -0.61717  -0.59861  -0.55590  -0.50477  -0.48454
 Alpha  occ. eigenvalues --   -0.45071  -0.44744  -0.43780  -0.42165  -0.40700
 Alpha  occ. eigenvalues --   -0.36740  -0.35091  -0.34345  -0.29470  -0.23043
 Alpha  occ. eigenvalues --   -0.21686
 Alpha virt. eigenvalues --   -0.01833   0.00538   0.02022   0.02483   0.02997
 Alpha virt. eigenvalues --    0.04502   0.04625   0.05111   0.06701   0.06872
 Alpha virt. eigenvalues --    0.07377   0.07434   0.09265   0.09673   0.11462
 Alpha virt. eigenvalues --    0.11467   0.12011   0.13380   0.14226   0.14589
 Alpha virt. eigenvalues --    0.16168   0.16447   0.17283   0.17349   0.17918
 Alpha virt. eigenvalues --    0.19049   0.19453   0.19502   0.20331   0.20592
 Alpha virt. eigenvalues --    0.20784   0.20901   0.22532   0.23206   0.23853
 Alpha virt. eigenvalues --    0.24265   0.24617   0.25095   0.26400   0.26951
 Alpha virt. eigenvalues --    0.27797   0.28067   0.28761   0.30101   0.30450
 Alpha virt. eigenvalues --    0.31402   0.32387   0.33791   0.35056   0.37252
 Alpha virt. eigenvalues --    0.38084   0.40258   0.43758   0.45961   0.51897
 Alpha virt. eigenvalues --    0.57328   0.60940   0.68852   0.69186   0.71653
 Alpha virt. eigenvalues --    0.72524   0.73838   0.74573   0.75205   0.75501
 Alpha virt. eigenvalues --    0.76972   0.77084   0.79266   0.80687   0.80914
 Alpha virt. eigenvalues --    0.82631   0.86825   0.90756   0.91341   0.92636
 Alpha virt. eigenvalues --    0.95516   0.96172   0.96859   0.97615   1.00230
 Alpha virt. eigenvalues --    1.01129   1.04575   1.06414   1.07642   1.10320
 Alpha virt. eigenvalues --    1.12391   1.12572   1.18258   1.19100   1.21489
 Alpha virt. eigenvalues --    1.23650   1.24644   1.25391   1.32927   1.33100
 Alpha virt. eigenvalues --    1.35371   1.37757   1.41189   1.41798   1.44982
 Alpha virt. eigenvalues --    1.46983   1.48411   1.50454   1.50767   1.55045
 Alpha virt. eigenvalues --    1.59826   1.65450   1.79433   1.83577   1.90038
 Alpha virt. eigenvalues --    1.90557   1.91365   1.93574   2.00021   2.00936
 Alpha virt. eigenvalues --    2.02141   2.05413   2.06899   2.13987   2.15335
 Alpha virt. eigenvalues --    2.16405   2.20023   2.23705   2.25145   2.27154
 Alpha virt. eigenvalues --    2.27842   2.31261   2.37963   2.41959   2.46191
 Alpha virt. eigenvalues --    2.54772   2.56117   2.63761   2.64031   2.66272
 Alpha virt. eigenvalues --    2.69218   2.72986   2.80607   2.84416   2.85072
 Alpha virt. eigenvalues --    2.97510   2.98313   3.10974   3.24167   3.39852
 Alpha virt. eigenvalues --    4.17083   4.26961   4.32354   4.34526   4.38581
 Alpha virt. eigenvalues --    4.42771   4.50424   4.54519   4.79569
          Condensed to atoms (all electrons):
               1          2          3          4          5          6
     1  C    5.868527   0.259134   0.286799  -0.501083  -0.062833  -0.172974
     2  C    0.259134   5.984475  -0.087559   0.182781  -0.696648   0.757584
     3  C    0.286799  -0.087559  12.309903  -1.283825  -3.442742  -2.925507
     4  C   -0.501083   0.182781  -1.283825  12.361308  -3.870687  -0.839293
     5  C   -0.062833  -0.696648  -3.442742  -3.870687  14.087496   0.209539
     6  C   -0.172974   0.757584  -2.925507  -0.839293   0.209539  12.487855
     7  N   -0.035585   0.008297  -0.559965  -0.375456   0.948878   0.161111
     8  C    0.128569  -0.302130   2.861684   2.044422  -4.497659  -4.052385
     9  C   -0.080284   0.024519  -0.981239  -0.774431   1.636210   0.982510
    10  H   -0.003259  -0.006360  -0.135579  -0.057480   0.164879   0.025012
    11  H    0.001748   0.001109   0.003074   0.030629  -0.000210   0.000629
    12  H    0.001318   0.000060   0.034912   0.100643  -0.106514  -0.019445
    13  H    0.028510   0.255788   0.014519   0.002677   0.016960  -0.010832
    14  H    0.007106   0.056937   0.224487   0.038408  -0.008788  -0.015322
    15  H    0.269404   0.023681   0.012701  -0.015066   0.026562  -0.017151
    16  H    0.027467   0.004208  -0.019154   0.016038   0.075044   0.216697
               7          8          9         10         11         12
     1  C   -0.035585   0.128569  -0.080284  -0.003259   0.001748   0.001318
     2  C    0.008297  -0.302130   0.024519  -0.006360   0.001109   0.000060
     3  C   -0.559965   2.861684  -0.981239  -0.135579   0.003074   0.034912
     4  C   -0.375456   2.044422  -0.774431  -0.057480   0.030629   0.100643
     5  C    0.948878  -4.497659   1.636210   0.164879  -0.000210  -0.106514
     6  C    0.161111  -4.052385   0.982510   0.025012   0.000629  -0.019445
     7  N    7.292643  -0.795354   0.567045   0.278051   0.006468  -0.058195
     8  C   -0.795354  11.936031  -1.706348  -0.017093   0.283338   0.064282
     9  C    0.567045  -1.706348   6.328290  -0.009859  -0.022013   0.298663
    10  H    0.278051  -0.017093  -0.009859   0.316739  -0.000074  -0.002069
    11  H    0.006468   0.283338  -0.022013  -0.000074   0.467157  -0.000703
    12  H   -0.058195   0.064282   0.298663  -0.002069  -0.000703   0.456214
    13  H   -0.000472   0.001114   0.001050  -0.000002   0.000000  -0.000000
    14  H   -0.007247  -0.000083   0.004240   0.001853   0.000002   0.000002
    15  H    0.000274   0.008848  -0.000047  -0.000000  -0.000001  -0.000000
    16  H   -0.000892  -0.022295   0.002947   0.000003   0.001253  -0.000001
              13         14         15         16
     1  C    0.028510   0.007106   0.269404   0.027467
     2  C    0.255788   0.056937   0.023681   0.004208
     3  C    0.014519   0.224487   0.012701  -0.019154
     4  C    0.002677   0.038408  -0.015066   0.016038
     5  C    0.016960  -0.008788   0.026562   0.075044
     6  C   -0.010832  -0.015322  -0.017151   0.216697
     7  N   -0.000472  -0.007247   0.000274  -0.000892
     8  C    0.001114  -0.000083   0.008848  -0.022295
     9  C    0.001050   0.004240  -0.000047   0.002947
    10  H   -0.000002   0.001853  -0.000000   0.000003
    11  H    0.000000   0.000002  -0.000001   0.001253
    12  H   -0.000000   0.000002  -0.000000  -0.000001
    13  H    0.483692  -0.003163  -0.003673  -0.000106
    14  H   -0.003163   0.486663  -0.000112   0.000012
    15  H   -0.003673  -0.000112   0.484404  -0.003009
    16  H   -0.000106   0.000012  -0.003009   0.483748
 Mulliken charges:
               1
     1  C   -0.022565
     2  C   -0.465876
     3  C   -0.312508
     4  C   -1.059584
     5  C    1.520514
     6  C   -0.788026
     7  N   -0.429598
     8  C    0.065060
     9  C   -0.271255
    10  H    0.445239
    11  H    0.227595
    12  H    0.230832
    13  H    0.213938
    14  H    0.215008
    15  H    0.213186
    16  H    0.218040
 Sum of Mulliken charges =  -0.00000
 Mulliken charges with hydrogens summed into heavy atoms:
               1
     1  C    0.190621
     2  C   -0.251938
     3  C   -0.097500
     4  C   -1.059584
     5  C    1.520514
     6  C   -0.569986
     7  N    0.015641
     8  C    0.292655
     9  C   -0.040423
 Electronic spatial extent (au):  <R**2>=           1022.2621
 Charge=             -0.0000 electrons
 Dipole moment (field-independent basis, Debye):
    X=              2.1014    Y=             -1.4452    Z=              0.0003  Tot=              2.5504
 Quadrupole moment (field-independent basis, Debye-Ang):
   XX=            -45.3862   YY=            -45.6758   ZZ=            -60.1932
   XY=             -3.0374   XZ=              0.0009   YZ=             -0.0014
 Traceless Quadrupole moment (field-independent basis, Debye-Ang):
   XX=              5.0321   YY=              4.7426   ZZ=             -9.7748
   XY=             -3.0374   XZ=              0.0009   YZ=             -0.0014
 Octapole moment (field-independent basis, Debye-Ang**2):
  XXX=             16.3789  YYY=             -9.5533  ZZZ=             -0.0019  XYY=             10.9515
  XXY=             -7.2214  XXZ=              0.0006  XZZ=              3.0022  YZZ=             -1.3750
  YYZ=              0.0016  XYZ=             -0.0030
 Hexadecapole moment (field-independent basis, Debye-Ang**3):
 XXXX=           -831.2628 YYYY=           -392.3312 ZZZZ=            -81.7937 XXXY=            -20.1420
 XXXZ=             -0.0032 YYYX=            -18.9240 YYYZ=             -0.0005 ZZZX=             -0.0027
 ZZZY=              0.0070 XXYY=           -200.0461 XXZZ=           -199.6846 YYZZ=           -103.2628
 XXYZ=             -0.0036 YYXZ=              0.0064 ZZXY=             -3.3413
 N-N= 3.973211664296D+02 E-N=-1.636506166663D+03  KE= 3.600269535714D+02
 Unable to Open any file for archive entry.
 1\1\GINC-EXP-2-22\FOpt\RPBE1PBE TD-FC\6-31+G(d)\C8H7N1\CWALDT\23-Jun-2
 021\0\\# td= (nstates=6, root=2) PBE1PBE/6-31+G* Opt density=current\\
 FuncsPBE1PBE-V-2nd\\0,1\C,-2.1596137531,0.6970293244,0.0000018311\C,-2
 .1380297725,-0.7333000159,0.000052409\C,-0.9309861718,-1.4584157878,0.
 0000535177\C,0.2529865075,-0.6826622323,-0.0000005622\C,0.2586247138,0
 .7769570157,-0.0000196486\C,-0.9736775148,1.4728989191,-0.0000280797\N
 ,1.5593052559,-1.0806040856,-0.000061571\C,1.6164802563,1.1722894088,0
 .000014135\C,2.4002332867,0.0266536289,0.0000477833\H,1.871113175,-2.0
 389103812,0.0004262414\H,1.9950022873,2.1860292279,-0.0000133935\H,3.4
 74378372,-0.0932931384,0.0000211703\H,-3.0828073617,-1.2688140304,0.00
 00751966\H,-0.9119188503,-2.5432954626,0.0000346329\H,-3.1234568298,1.
 1979876906,-0.0000141255\H,-1.0107306007,2.5568959189,-0.0000535369\\V
 ersion=AS64L-G16RevC.01\State=1-A\HF=-363.3996177\RMSD=6.269e-09\RMSF=
 4.235e-05\Dipole=0.8267408,-0.5685891,0.0001369\Quadrupole=3.7412784,3
 .5260213,-7.2672997,-2.2582651,0.0006493,-0.0010139\PG=C01 [X(C8H7N1)]
 \\@
 The archive entry for this job was punched.


 ABALONE: AN EXPRESSION OF DISBELIEF.
 Job cpu time:       0 days  2 hours 49 minutes 27.5 seconds.
 Elapsed time:       0 days  0 hours 43 minutes 51.6 seconds.
 File lengths (MBytes):  RWF=    238 Int=      0 D2E=      0 Chk=     11 Scr=      1
 Normal termination of Gaussian 16 at Wed Jun 23 08:45:40 2021.
