 Entering Gaussian System, Link 0=/opt/gaussian/16.C.01/g16/g16
 Initial command:
 /opt/gaussian/16.C.01/g16/l1.exe "/scratch/scaparas/38762242/Gau-31523.inp" -scrdir="/scratch/scaparas/38762242/"
 Entering Link 1 = /opt/gaussian/16.C.01/g16/l1.exe PID=     31524.
  
 Copyright (c) 1988-2019, Gaussian, Inc.  All Rights Reserved.
  
 This is part of the Gaussian(R) 16 program.  It is based on
 the Gaussian(R) 09 system (copyright 2009, Gaussian, Inc.),
 the Gaussian(R) 03 system (copyright 2003, Gaussian, Inc.),
 the Gaussian(R) 98 system (copyright 1998, Gaussian, Inc.),
 the Gaussian(R) 94 system (copyright 1995, Gaussian, Inc.),
 the Gaussian 92(TM) system (copyright 1992, Gaussian, Inc.),
 the Gaussian 90(TM) system (copyright 1990, Gaussian, Inc.),
 the Gaussian 88(TM) system (copyright 1988, Gaussian, Inc.),
 the Gaussian 86(TM) system (copyright 1986, Carnegie Mellon
 University), and the Gaussian 82(TM) system (copyright 1983,
 Carnegie Mellon University). Gaussian is a federally registered
 trademark of Gaussian, Inc.
  
 This software contains proprietary and confidential information,
 including trade secrets, belonging to Gaussian, Inc.
  
 This software is provided under written license and may be
 used, copied, transmitted, or stored only in accord with that
 written license.
  
 The following legend is applicable only to US Government
 contracts under FAR:
  
                    RESTRICTED RIGHTS LEGEND
  
 Use, reproduction and disclosure by the US Government is
 subject to restrictions as set forth in subparagraphs (a)
 and (c) of the Commercial Computer Software - Restricted
 Rights clause in FAR 52.227-19.
  
 Gaussian, Inc.
 340 Quinnipiac St., Bldg. 40, Wallingford CT 06492
  
  
 ---------------------------------------------------------------
 Warning -- This program may not be used in any manner that
 competes with the business of Gaussian, Inc. or will provide
 assistance to any competitor of Gaussian, Inc.  The licensee
 of this program is prohibited from giving any competitor of
 Gaussian, Inc. access to this program.  By using this program,
 the user acknowledges that Gaussian, Inc. is engaged in the
 business of creating and licensing software in the field of
 computational chemistry and represents and warrants to the
 licensee that it is not a competitor of Gaussian, Inc. and that
 it will not use this program in any manner prohibited above.
 ---------------------------------------------------------------
  

 Cite this work as:
 Gaussian 16, Revision C.01,
 M. J. Frisch, G. W. Trucks, H. B. Schlegel, G. E. Scuseria, 
 M. A. Robb, J. R. Cheeseman, G. Scalmani, V. Barone, 
 G. A. Petersson, H. Nakatsuji, X. Li, M. Caricato, A. V. Marenich, 
 J. Bloino, B. G. Janesko, R. Gomperts, B. Mennucci, H. P. Hratchian, 
 J. V. Ortiz, A. F. Izmaylov, J. L. Sonnenberg, D. Williams-Young, 
 F. Ding, F. Lipparini, F. Egidi, J. Goings, B. Peng, A. Petrone, 
 T. Henderson, D. Ranasinghe, V. G. Zakrzewski, J. Gao, N. Rega, 
 G. Zheng, W. Liang, M. Hada, M. Ehara, K. Toyota, R. Fukuda, 
 J. Hasegawa, M. Ishida, T. Nakajima, Y. Honda, O. Kitao, H. Nakai, 
 T. Vreven, K. Throssell, J. A. Montgomery, Jr., J. E. Peralta, 
 F. Ogliaro, M. J. Bearpark, J. J. Heyd, E. N. Brothers, K. N. Kudin, 
 V. N. Staroverov, T. A. Keith, R. Kobayashi, J. Normand, 
 K. Raghavachari, A. P. Rendell, J. C. Burant, S. S. Iyengar, 
 J. Tomasi, M. Cossi, J. M. Millam, M. Klene, C. Adamo, R. Cammi, 
 J. W. Ochterski, R. L. Martin, K. Morokuma, O. Farkas, 
 J. B. Foresman, and D. J. Fox, Gaussian, Inc., Wallingford CT, 2019.
 
 ******************************************
 Gaussian 16:  ES64L-G16RevC.01  3-Jul-2019
                 4-Mar-2021 
 ******************************************
 %NProcShared=2
 Will use up to    2 processors via shared memory.
 %Chk=FuncsSOGGA11X2nd.chk
 ---------------------------------------------------------------
 # td= (nstates=6, root=2) SOGGA11X/6-31G(d) Opt density=current
 ---------------------------------------------------------------
 1/18=20,19=15,26=3,38=1/1,3;
 2/9=110,12=2,17=6,18=5,40=1/2;
 3/5=1,6=6,7=1,11=9,25=1,30=1,71=1,74=-65/1,2,3,8;
 4//1;
 5/5=2,38=5/2;
 8/6=1,10=2,107=2,108=6/1;
 9/8=2,15=2,41=6,42=1,70=2/14;
 10/5=4,28=2/2;
 6/7=2,8=2,9=2,10=2,22=-1/1;
 7/12=6,13=5,14=2/1,2,3,16;
 1/18=20,19=15,26=3/3(2);
 2/9=110/2;
 99//99;
 2/9=110/2;
 3/5=1,6=6,7=1,11=9,25=1,30=1,71=1,74=-65/1,2,3,8;
 4/5=5,16=3,69=1/1;
 5/5=2,38=5/2;
 8/6=1,10=2,107=2,108=6/1;
 9/8=2,15=2,41=6,42=1,49=4,70=2/14;
 10/5=4,28=2/2;
 7/12=6,13=5,14=2/1,2,3,16;
 1/18=20,19=15,26=3/3(-8);
 2/9=110/2;
 6/7=2,8=2,9=2,10=2,22=-1/1;
 99/9=10/99;
 ----------------
 FuncsSOGGA11X2nd
 ----------------
 Symbolic Z-matrix:
 Charge =  0 Multiplicity = 1
 C                    -2.15886   0.68918   0.02974 
 C                    -2.1332   -0.71621  -0.0157 
 C                    -0.93572  -1.41751  -0.00819 
 C                     0.2487   -0.67115   0.00319 
 C                     0.25025   0.7522   -0.00266 
 C                    -0.98322   1.4256   -0.0173 
 N                     1.5657   -1.08029   0.00974 
 C                     1.62609   1.16684  -0.00626 
 C                     2.39038   0.03059   0.00688 
 H                     1.87967  -2.03756   0.01447 
 H                     1.9972    2.18233  -0.0192 
 H                     3.46481  -0.08787   0.00753 
 H                    -3.075    -1.264    -0.03434 
 H                    -0.91687  -2.50699  -0.02386 
 H                    -3.12254   1.20382   0.09559 
 H                    -1.01374   2.5151   -0.04664 
 

 GradGradGradGradGradGradGradGradGradGradGradGradGradGradGradGradGradGrad
 Berny optimization.
 Initialization pass.
                           ----------------------------
                           !    Initial Parameters    !
                           ! (Angstroms and Degrees)  !
 --------------------------                            --------------------------
 ! Name  Definition              Value          Derivative Info.                !
 --------------------------------------------------------------------------------
 ! R1    R(1,2)                  1.4064         estimate D2E/DX2                !
 ! R2    R(1,6)                  1.388          estimate D2E/DX2                !
 ! R3    R(1,15)                 1.0945         estimate D2E/DX2                !
 ! R4    R(2,3)                  1.3877         estimate D2E/DX2                !
 ! R5    R(2,13)                 1.0897         estimate D2E/DX2                !
 ! R6    R(3,4)                  1.4            estimate D2E/DX2                !
 ! R7    R(3,14)                 1.0898         estimate D2E/DX2                !
 ! R8    R(4,5)                  1.4234         estimate D2E/DX2                !
 ! R9    R(4,7)                  1.3791         estimate D2E/DX2                !
 ! R10   R(5,6)                  1.4054         estimate D2E/DX2                !
 ! R11   R(5,8)                  1.437          estimate D2E/DX2                !
 ! R12   R(6,16)                 1.0903         estimate D2E/DX2                !
 ! R13   R(7,9)                  1.3835         estimate D2E/DX2                !
 ! R14   R(7,10)                 1.0075         estimate D2E/DX2                !
 ! R15   R(8,9)                  1.3694         estimate D2E/DX2                !
 ! R16   R(8,11)                 1.0813         estimate D2E/DX2                !
 ! R17   R(9,12)                 1.0809         estimate D2E/DX2                !
 ! A1    A(2,1,6)              120.9061         estimate D2E/DX2                !
 ! A2    A(2,1,15)             119.2028         estimate D2E/DX2                !
 ! A3    A(6,1,15)             119.8895         estimate D2E/DX2                !
 ! A4    A(1,2,3)              121.3707         estimate D2E/DX2                !
 ! A5    A(1,2,13)             119.153          estimate D2E/DX2                !
 ! A6    A(3,2,13)             119.4616         estimate D2E/DX2                !
 ! A7    A(2,3,4)              117.4292         estimate D2E/DX2                !
 ! A8    A(2,3,14)             121.3371         estimate D2E/DX2                !
 ! A9    A(4,3,14)             121.2289         estimate D2E/DX2                !
 ! A10   A(3,4,5)              122.2756         estimate D2E/DX2                !
 ! A11   A(3,4,7)              130.5258         estimate D2E/DX2                !
 ! A12   A(5,4,7)              107.1964         estimate D2E/DX2                !
 ! A13   A(4,5,6)              118.5703         estimate D2E/DX2                !
 ! A14   A(4,5,8)              106.8342         estimate D2E/DX2                !
 ! A15   A(6,5,8)              134.5914         estimate D2E/DX2                !
 ! A16   A(1,6,5)              119.2617         estimate D2E/DX2                !
 ! A17   A(1,6,16)             120.4875         estimate D2E/DX2                !
 ! A18   A(5,6,16)             120.2412         estimate D2E/DX2                !
 ! A19   A(4,7,9)              109.3301         estimate D2E/DX2                !
 ! A20   A(4,7,10)             125.4173         estimate D2E/DX2                !
 ! A21   A(9,7,10)             125.2525         estimate D2E/DX2                !
 ! A22   A(5,8,9)              107.1528         estimate D2E/DX2                !
 ! A23   A(5,8,11)             126.8451         estimate D2E/DX2                !
 ! A24   A(9,8,11)             126.002          estimate D2E/DX2                !
 ! A25   A(7,9,8)              109.4848         estimate D2E/DX2                !
 ! A26   A(7,9,12)             120.2971         estimate D2E/DX2                !
 ! A27   A(8,9,12)             130.2163         estimate D2E/DX2                !
 ! D1    D(6,1,2,3)              4.8678         estimate D2E/DX2                !
 ! D2    D(6,1,2,13)          -176.5353         estimate D2E/DX2                !
 ! D3    D(15,1,2,3)          -175.5899         estimate D2E/DX2                !
 ! D4    D(15,1,2,13)            3.0069         estimate D2E/DX2                !
 ! D5    D(2,1,6,5)             -5.0972         estimate D2E/DX2                !
 ! D6    D(2,1,6,16)           176.0299         estimate D2E/DX2                !
 ! D7    D(15,1,6,5)           175.3637         estimate D2E/DX2                !
 ! D8    D(15,1,6,16)           -3.5093         estimate D2E/DX2                !
 ! D9    D(1,2,3,4)             -1.9941         estimate D2E/DX2                !
 ! D10   D(1,2,3,14)           178.7955         estimate D2E/DX2                !
 ! D11   D(13,2,3,4)           179.4132         estimate D2E/DX2                !
 ! D12   D(13,2,3,14)            0.2029         estimate D2E/DX2                !
 ! D13   D(2,3,4,5)             -0.4651         estimate D2E/DX2                !
 ! D14   D(2,3,4,7)           -179.8522         estimate D2E/DX2                !
 ! D15   D(14,3,4,5)           178.7462         estimate D2E/DX2                !
 ! D16   D(14,3,4,7)            -0.641          estimate D2E/DX2                !
 ! D17   D(3,4,5,6)              0.1482         estimate D2E/DX2                !
 ! D18   D(3,4,5,8)           -179.2217         estimate D2E/DX2                !
 ! D19   D(7,4,5,6)            179.6606         estimate D2E/DX2                !
 ! D20   D(7,4,5,8)              0.2907         estimate D2E/DX2                !
 ! D21   D(3,4,7,9)            179.3989         estimate D2E/DX2                !
 ! D22   D(3,4,7,10)            -0.5167         estimate D2E/DX2                !
 ! D23   D(5,4,7,9)             -0.0587         estimate D2E/DX2                !
 ! D24   D(5,4,7,10)          -179.9743         estimate D2E/DX2                !
 ! D25   D(4,5,6,1)              2.618          estimate D2E/DX2                !
 ! D26   D(4,5,6,16)          -178.5062         estimate D2E/DX2                !
 ! D27   D(8,5,6,1)           -178.2289         estimate D2E/DX2                !
 ! D28   D(8,5,6,16)             0.6469         estimate D2E/DX2                !
 ! D29   D(4,5,8,9)             -0.4171         estimate D2E/DX2                !
 ! D30   D(4,5,8,11)           179.4533         estimate D2E/DX2                !
 ! D31   D(6,5,8,9)           -179.64           estimate D2E/DX2                !
 ! D32   D(6,5,8,11)             0.2304         estimate D2E/DX2                !
 ! D33   D(4,7,9,8)             -0.2113         estimate D2E/DX2                !
 ! D34   D(4,7,9,12)          -179.7792         estimate D2E/DX2                !
 ! D35   D(10,7,9,8)           179.7044         estimate D2E/DX2                !
 ! D36   D(10,7,9,12)            0.1366         estimate D2E/DX2                !
 ! D37   D(5,8,9,7)              0.3888         estimate D2E/DX2                !
 ! D38   D(5,8,9,12)           179.9002         estimate D2E/DX2                !
 ! D39   D(11,8,9,7)          -179.483          estimate D2E/DX2                !
 ! D40   D(11,8,9,12)            0.0284         estimate D2E/DX2                !
 --------------------------------------------------------------------------------
 Trust Radius=3.00D-01 FncErr=1.00D-07 GrdErr=1.00D-06 EigMax=2.50D+02 EigMin=1.00D-04
 Number of steps in this run=     94 maximum allowed number of steps=    100.
 GradGradGradGradGradGradGradGradGradGradGradGradGradGradGradGradGradGrad

                          Input orientation:                          
 ---------------------------------------------------------------------
 Center     Atomic      Atomic             Coordinates (Angstroms)
 Number     Number       Type             X           Y           Z
 ---------------------------------------------------------------------
      1          6           0       -2.158860    0.689180    0.029740
      2          6           0       -2.133200   -0.716210   -0.015700
      3          6           0       -0.935720   -1.417510   -0.008190
      4          6           0        0.248700   -0.671150    0.003190
      5          6           0        0.250250    0.752200   -0.002660
      6          6           0       -0.983220    1.425600   -0.017300
      7          7           0        1.565700   -1.080290    0.009740
      8          6           0        1.626090    1.166840   -0.006260
      9          6           0        2.390380    0.030590    0.006880
     10          1           0        1.879670   -2.037560    0.014470
     11          1           0        1.997200    2.182330   -0.019200
     12          1           0        3.464810   -0.087870    0.007530
     13          1           0       -3.075000   -1.264000   -0.034340
     14          1           0       -0.916870   -2.506990   -0.023860
     15          1           0       -3.122540    1.203820    0.095590
     16          1           0       -1.013740    2.515100   -0.046640
 ---------------------------------------------------------------------
                    Distance matrix (angstroms):
                    1          2          3          4          5
     1  C    0.000000
     2  C    1.406359   0.000000
     3  C    2.436320   1.387745   0.000000
     4  C    2.765420   2.382401   1.400012   0.000000
     5  C    2.410152   2.799506   2.472690   1.423363   0.000000
     6  C    1.388041   2.431009   2.843521   2.431955   1.405393
     7  N    4.123563   3.716862   2.524112   1.379104   2.255789
     8  C    3.815141   4.204548   3.638920   2.296846   1.436967
     9  C    4.596721   4.584866   3.627694   2.253718   2.258532
    10  H    4.872891   4.224926   2.882949   2.127737   3.230799
    11  H    4.416416   5.045964   4.643381   3.346655   2.257738
    12  H    5.677144   5.633211   4.597048   3.268577   3.322532
    13  H    2.158317   1.089683   2.144940   3.376368   3.888876
    14  H    3.429419   2.164814   1.089756   2.174763   3.461927
    15  H    1.094472   2.162798   3.415307   3.858667   3.404310
    16  H    2.156645   3.419870   3.933572   3.427598   2.169659
                    6          7          8          9         10
     6  C    0.000000
     7  N    3.574522   0.000000
     8  C    2.622132   2.247998   0.000000
     9  C    3.650728   1.383532   1.369444   0.000000
    10  H    4.493398   1.007455   3.214485   2.130288   0.000000
    11  H    3.074987   3.291158   1.081254   2.187523   4.221661
    12  H    4.698529   2.142784   2.226068   1.080941   2.512769
    13  H    3.407313   4.644544   5.292449   5.616764   5.014931
    14  H    3.933155   2.863522   4.468107   4.168712   2.835925
    15  H    2.153746   5.215757   4.749866   5.637076   5.961143
    16  H    1.090322   4.425327   2.964479   4.214699   5.394652
                   11         12         13         14         15
    11  H    0.000000
    12  H    2.703406   0.000000
    13  H    6.132262   6.644859   0.000000
    14  H    5.521010   5.005222   2.490514   0.000000
    15  H    5.213674   6.713375   2.471695   4.318490   0.000000
    16  H    3.029397   5.180328   4.304711   5.023076   2.487312
                   16
    16  H    0.000000
 Stoichiometry    C8H7N
 Framework group  C1[X(C8H7N)]
 Deg. of freedom    42
 Full point group                 C1      NOp   1
 Largest Abelian subgroup         C1      NOp   1
 Largest concise Abelian subgroup C1      NOp   1
                         Standard orientation:                         
 ---------------------------------------------------------------------
 Center     Atomic      Atomic             Coordinates (Angstroms)
 Number     Number       Type             X           Y           Z
 ---------------------------------------------------------------------
      1          6           0       -2.158858    0.689183    0.029741
      2          6           0       -2.133200   -0.716207   -0.015699
      3          6           0       -0.935722   -1.417509   -0.008189
      4          6           0        0.248700   -0.671151    0.003191
      5          6           0        0.250252    0.752199   -0.002659
      6          6           0       -0.983217    1.425601   -0.017299
      7          7           0        1.565699   -1.080293    0.009741
      8          6           0        1.626093    1.166837   -0.006259
      9          6           0        2.390381    0.030585    0.006881
     10          1           0        1.879667   -2.037564    0.014471
     11          1           0        1.997205    2.182326   -0.019199
     12          1           0        3.464811   -0.087877    0.007531
     13          1           0       -3.075001   -1.263995   -0.034339
     14          1           0       -0.916873   -2.506989   -0.023859
     15          1           0       -3.122537    1.203825    0.095591
     16          1           0       -1.013735    2.515101   -0.046639
 ---------------------------------------------------------------------
 Rotational constants (GHZ):           3.8861076           1.6317910           1.1494058
 Standard basis: 6-31G(d) (6D, 7F)
 There are   149 symmetry adapted cartesian basis functions of A   symmetry.
 There are   149 symmetry adapted basis functions of A   symmetry.
   149 basis functions,   280 primitive gaussians,   149 cartesian basis functions
    31 alpha electrons       31 beta electrons
       nuclear repulsion energy       400.0099183022 Hartrees.
 NAtoms=   16 NActive=   16 NUniq=   16 SFac= 1.00D+00 NAtFMM=   60 NAOKFM=F Big=F
 Integral buffers will be    131072 words long.
 Regular integral format.
 Two-electron integral symmetry is turned on.
 One-electron integrals computed using PRISM.
 NBasis=   149 RedAO= T EigKep=  4.13D-04  NBF=   149
 NBsUse=   149 1.00D-06 EigRej= -1.00D+00 NBFU=   149
 ExpMin= 1.61D-01 ExpMax= 4.17D+03 ExpMxC= 6.27D+02 IAcc=3 IRadAn=         5 AccDes= 0.00D+00
 Harris functional with IExCor= 5143 and IRadAn=       5 diagonalized for initial guess.
 HarFok:  IExCor= 5143 AccDes= 0.00D+00 IRadAn=         5 IDoV= 1 UseB2=F ITyADJ=14
 ICtDFT=  3500011 ScaDFX=  1.000000  1.000000  1.000000  1.000000
 FoFCou: FMM=F IPFlag=           0 FMFlag=      100000 FMFlg1=           0
         NFxFlg=           0 DoJE=T BraDBF=F KetDBF=T FulRan=T
         wScrn=  0.000000 ICntrl=       500 IOpCl=  0 I1Cent=   200000004 NGrid=           0
         NMat0=    1 NMatS0=      1 NMatT0=    0 NMatD0=    1 NMtDS0=    0 NMtDT0=    0
 Petite list used in FoFCou.
 Keep R1 ints in memory in canonical form, NReq=64400683.
 Requested convergence on RMS density matrix=1.00D-08 within 128 cycles.
 Requested convergence on MAX density matrix=1.00D-06.
 Requested convergence on             energy=1.00D-06.
 No special actions if energy rises.
 Integral accuracy reduced to 1.0D-05 until final iterations.
 Initial convergence to 1.0D-05 achieved.  Increase integral accuracy.
 SCF Done:  E(RSOGGA11X) =  -363.717358798     A.U. after   15 cycles
            NFock= 15  Conv=0.53D-08     -V/T= 2.0084
 DoSCS=F DFT=T ScalE2(SS,OS)=  1.000000  1.000000
 ExpMin= 1.61D-01 ExpMax= 4.17D+03 ExpMxC= 6.27D+02 IAcc=3 IRadAn=         5 AccDes= 0.00D+00
 HarFok:  IExCor=  205 AccDes= 0.00D+00 IRadAn=         5 IDoV=-2 UseB2=F ITyADJ=14
 ICtDFT= 12500011 ScaDFX=  1.000000  1.000000  1.000000  1.000000
 Range of M.O.s used for correlation:    10   149
 NBasis=   149 NAE=    31 NBE=    31 NFC=     9 NFV=     0
 NROrb=    140 NOA=    22 NOB=    22 NVA=   118 NVB=   118
 Orbital symmetries:
       Occupied  (A) (A) (A) (A) (A) (A) (A) (A) (A) (A) (A) (A)
                 (A) (A) (A) (A) (A) (A) (A) (A) (A) (A) (A) (A)
                 (A) (A) (A) (A) (A) (A) (A)
       Virtual   (A) (A) (A) (A) (A) (A) (A) (A) (A) (A) (A) (A)
                 (A) (A) (A) (A) (A) (A) (A) (A) (A) (A) (A) (A)
                 (A) (A) (A) (A) (A) (A) (A) (A) (A) (A) (A) (A)
                 (A) (A) (A) (A) (A) (A) (A) (A) (A) (A) (A) (A)
                 (A) (A) (A) (A) (A) (A) (A) (A) (A) (A) (A) (A)
                 (A) (A) (A) (A) (A) (A) (A) (A) (A) (A) (A) (A)
                 (A) (A) (A) (A) (A) (A) (A) (A) (A) (A) (A) (A)
                 (A) (A) (A) (A) (A) (A) (A) (A) (A) (A) (A) (A)
                 (A) (A) (A) (A) (A) (A) (A) (A) (A) (A) (A) (A)
                 (A) (A) (A) (A) (A) (A) (A) (A) (A) (A)
    24 initial guesses have been made.
 Convergence on wavefunction:    0.000001000000000
 Iteration     1 Dimension    24 NMult     0 NNew     24
 CISAX will form    24 AO SS matrices at one time.
 New state      1 was old state      2
 New state      2 was old state      1
 New state      3 was old state      5
 New state      4 was old state      7
 New state      5 was old state      3
 New state      6 was old state      4
 Iteration     2 Dimension    36 NMult    24 NNew     12
 New state      4 was old state      5
 New state      5 was old state      4
 Iteration     3 Dimension    48 NMult    36 NNew     12
 Iteration     4 Dimension    60 NMult    48 NNew     12
 Iteration     5 Dimension    72 NMult    60 NNew     12
 Iteration     6 Dimension    84 NMult    72 NNew     12
 Iteration     7 Dimension    96 NMult    84 NNew     12
 Iteration     8 Dimension   108 NMult    96 NNew     12
 Iteration     9 Dimension   118 NMult   108 NNew     10
 Iteration    10 Dimension   124 NMult   118 NNew      6
 Iteration    11 Dimension   126 NMult   124 NNew      2
 ***********************************************************************
 Excited states from <AA,BB:AA,BB> singles matrix:
 ***********************************************************************
 
 Ground to excited state transition densities written to RWF  633
 Ground to excited state transition electric dipole moments (Au):
       state          X           Y           Z        Dip. S.      Osc.
         1        -0.2182      0.6478     -0.0130      0.4674      0.0597
         2        -0.7712      0.2058     -0.0115      0.6372      0.0823
         3        -1.5649     -0.7190     -0.0073      2.9659      0.4812
         4         1.5237     -0.3209     -0.0144      2.4249      0.4099
         5         0.0651     -0.0138      0.0345      0.0056      0.0010
         6         0.5412     -0.9390     -0.0063      1.1746      0.2113
 Ground to excited state transition velocity dipole moments (Au):
       state          X           Y           Z        Dip. S.      Osc.
         1         0.0364     -0.1351      0.0035      0.0196      0.0682
         2         0.1419     -0.0443      0.0028      0.0221      0.0761
         3         0.3766      0.1808      0.0017      0.1745      0.4780
         4        -0.3785      0.0859      0.0062      0.1507      0.3962
         5        -0.0171      0.0043     -0.0245      0.0009      0.0023
         6        -0.1493      0.2523      0.0015      0.0859      0.2124
 Ground to excited state transition magnetic dipole moments (Au):
       state          X           Y           Z
         1         0.0014      0.0073      0.0744
         2         0.0053     -0.0005     -0.0497
         3        -0.0012      0.0000     -0.5693
         4        -0.0014      0.0098      0.2339
         5         0.2314      0.0257      0.0284
         6         0.0045      0.0047     -0.4900
 Ground to excited state transition velocity quadrupole moments (Au):
       state          XX          YY          ZZ          XY          XZ          YZ
         1         0.1479     -0.0428     -0.0111     -0.0380     -0.0102      0.0024
         2         0.1744     -0.2009      0.0040     -0.0287     -0.0030      0.0078
         3         0.1203     -0.0775     -0.0078     -0.4257     -0.0049     -0.0054
         4         0.4037     -0.0119      0.0433     -0.0123     -0.0205      0.0070
         5        -0.0005      0.0025     -0.0008      0.0139     -0.0826      0.1444
         6         0.4513     -0.0305      0.0037     -0.5207     -0.0002     -0.0038
 <0|del|b> * <b|rxdel|0> + <0|del|b> * <b|delr+rdel|0>
 Rotatory Strengths (R) in cgs (10**-40 erg-esu-cm/Gauss)
       state          XX          YY          ZZ    R(velocity)    E-M Angle
         1        -4.1387      0.9940      0.6728     -0.8240       93.67
         2        -0.6056      3.2868     -0.3485      0.7776       85.07
         3        -1.1017     -3.9555      1.0777     -1.3265       90.33
         4         5.5351     -0.8418      3.1906      2.6279       88.22
         5        -0.7507     -8.8968     -2.2737     -3.9737      129.94
         6        -0.3666     -0.0822     -0.1201     -0.1896       90.09
 1/2[<0|r|b>*<b|rxdel|0> + (<0|rxdel|b>*<b|r|0>)*]
 Rotatory Strengths (R) in cgs (10**-40 erg-esu-cm/Gauss)
       state          XX          YY          ZZ     R(length)
         1         0.2222     -3.3363      0.6832     -0.8103
         2         2.9094      0.0661     -0.4028      0.8576
         3        -1.2729      0.0251     -2.9569     -1.4016
         4         1.5424      2.2162      2.3831      2.0472
         5       -10.6545      0.2498     -0.6938     -3.6995
         6        -1.7129      3.1035     -2.1751     -0.2615
  1/2[<0|del|b>*<b|r|0> + (<0|r|b>*<b|del|0>)*] (Au)
       state          X           Y           Z        Dip. S.   Osc.(frdel)
         1        -0.0079     -0.0875     -0.0000      0.0955      0.0637
         2        -0.1094     -0.0091     -0.0000      0.1186      0.0790
         3        -0.5893     -0.1300     -0.0000      0.7193      0.4795
         4        -0.5767     -0.0276     -0.0001      0.6044      0.4029
         5        -0.0011     -0.0001     -0.0008      0.0020      0.0013
         6        -0.0808     -0.2369     -0.0000      0.3177      0.2118

 Excitation energies and oscillator strengths:
 
 Excited State   1:      Singlet-A      5.2089 eV  238.02 nm  f=0.0597  <S**2>=0.000
      30 -> 32        -0.39672
      30 -> 33         0.15303
      31 -> 32         0.51561
      31 -> 33         0.20633
 
 Excited State   2:      Singlet-A      5.2721 eV  235.17 nm  f=0.0823  <S**2>=0.000
      30 -> 32         0.43209
      30 -> 33         0.13266
      31 -> 32         0.42601
      31 -> 33        -0.32595
 This state for optimization and/or second-order correction.
 Total Energy, E(TD-HF/TD-DFT) =  -363.523611372    
 Copying the excited state density for this state as the 1-particle RhoCI density.
 
 Excited State   3:      Singlet-A      6.6228 eV  187.21 nm  f=0.4812  <S**2>=0.000
      29 -> 32        -0.14736
      30 -> 32         0.33893
      30 -> 33         0.21010
      31 -> 33         0.54816
 
 Excited State   4:      Singlet-A      6.8993 eV  179.70 nm  f=0.4099  <S**2>=0.000
      29 -> 32        -0.28642
      30 -> 32        -0.14685
      30 -> 33         0.55871
      31 -> 32        -0.16076
      31 -> 33        -0.20691
 
 Excited State   5:      Singlet-A      7.3354 eV  169.02 nm  f=0.0010  <S**2>=0.000
      29 -> 35         0.12215
      31 -> 35         0.68580
 
 Excited State   6:      Singlet-A      7.3422 eV  168.87 nm  f=0.2113  <S**2>=0.000
      29 -> 32         0.57894
      30 -> 33         0.30047
      31 -> 32        -0.14848
      31 -> 34         0.18613
 SavETr:  write IOETrn=   770 NScale= 10 NData=  16 NLR=1 NState=    6 LETran=     118.
          IDoAtm=1111111111111111
          Differentiating once with respect to electric field.
                with respect to dipole field.
          Differentiating once with respect to nuclear coordinates.
 Keep R1 ints in memory in canonical form, NReq=64412969.
          There are     1 degrees of freedom in the 1st order CPHF.  IDoFFX=0 NUNeed=     1.
 LinEq1:  Iter=  0 NonCon=     1 RMS=7.55D-03 Max=2.07D-01 NDo=     1
 AX will form     1 AO Fock derivatives at one time.
 LinEq1:  Iter=  1 NonCon=     1 RMS=2.70D-03 Max=6.36D-02 NDo=     1
 LinEq1:  Iter=  2 NonCon=     1 RMS=1.65D-03 Max=4.70D-02 NDo=     1
 LinEq1:  Iter=  3 NonCon=     1 RMS=6.85D-04 Max=1.44D-02 NDo=     1
 LinEq1:  Iter=  4 NonCon=     1 RMS=2.77D-04 Max=7.77D-03 NDo=     1
 LinEq1:  Iter=  5 NonCon=     1 RMS=1.40D-04 Max=3.33D-03 NDo=     1
 LinEq1:  Iter=  6 NonCon=     1 RMS=6.49D-05 Max=1.76D-03 NDo=     1
 LinEq1:  Iter=  7 NonCon=     1 RMS=3.18D-05 Max=5.01D-04 NDo=     1
 LinEq1:  Iter=  8 NonCon=     1 RMS=1.18D-05 Max=3.28D-04 NDo=     1
 LinEq1:  Iter=  9 NonCon=     1 RMS=5.87D-06 Max=1.26D-04 NDo=     1
 LinEq1:  Iter= 10 NonCon=     1 RMS=1.94D-06 Max=3.15D-05 NDo=     1
 LinEq1:  Iter= 11 NonCon=     1 RMS=1.03D-06 Max=2.29D-05 NDo=     1
 LinEq1:  Iter= 12 NonCon=     1 RMS=4.97D-07 Max=1.09D-05 NDo=     1
 LinEq1:  Iter= 13 NonCon=     1 RMS=2.27D-07 Max=3.06D-06 NDo=     1
 LinEq1:  Iter= 14 NonCon=     1 RMS=7.82D-08 Max=1.17D-06 NDo=     1
 LinEq1:  Iter= 15 NonCon=     1 RMS=3.63D-08 Max=5.72D-07 NDo=     1
 LinEq1:  Iter= 16 NonCon=     1 RMS=1.09D-08 Max=1.55D-07 NDo=     1
 LinEq1:  Iter= 17 NonCon=     1 RMS=2.38D-09 Max=4.01D-08 NDo=     1
 LinEq1:  Iter= 18 NonCon=     1 RMS=1.03D-09 Max=1.92D-08 NDo=     1
 LinEq1:  Iter= 19 NonCon=     1 RMS=4.94D-10 Max=8.06D-09 NDo=     1
 LinEq1:  Iter= 20 NonCon=     1 RMS=1.36D-10 Max=2.00D-09 NDo=     1
 LinEq1:  Iter= 21 NonCon=     0 RMS=3.95D-11 Max=3.63D-10 NDo=     1
 Linear equations converged to 1.000D-10 1.000D-09 after    21 iterations.
 End of Minotr F.D. properties file   721 does not exist.
 End of Minotr F.D. properties file   722 does not exist.
 End of Minotr F.D. properties file   788 does not exist.

 **********************************************************************

            Population analysis using the CI Density.

 **********************************************************************

 Orbital symmetries:
       Occupied  (A) (A) (A) (A) (A) (A) (A) (A) (A) (A) (A) (A)
                 (A) (A) (A) (A) (A) (A) (A) (A) (A) (A) (A) (A)
                 (A) (A) (A) (A) (A) (A) (A)
       Virtual   (A) (A) (A) (A) (A) (A) (A) (A) (A) (A) (A) (A)
                 (A) (A) (A) (A) (A) (A) (A) (A) (A) (A) (A) (A)
                 (A) (A) (A) (A) (A) (A) (A) (A) (A) (A) (A) (A)
                 (A) (A) (A) (A) (A) (A) (A) (A) (A) (A) (A) (A)
                 (A) (A) (A) (A) (A) (A) (A) (A) (A) (A) (A) (A)
                 (A) (A) (A) (A) (A) (A) (A) (A) (A) (A) (A) (A)
                 (A) (A) (A) (A) (A) (A) (A) (A) (A) (A) (A) (A)
                 (A) (A) (A) (A) (A) (A) (A) (A) (A) (A) (A) (A)
                 (A) (A) (A) (A) (A) (A) (A) (A) (A) (A) (A) (A)
                 (A) (A) (A) (A) (A) (A) (A) (A) (A) (A)
 The electronic state is 1-A.
 Alpha  occ. eigenvalues --  -14.70031 -10.48646 -10.48223 -10.45254 -10.44803
 Alpha  occ. eigenvalues --  -10.44716 -10.44693 -10.44226 -10.43917  -1.07620
 Alpha  occ. eigenvalues --   -0.92494  -0.86402  -0.81301  -0.79414  -0.68837
 Alpha  occ. eigenvalues --   -0.65754  -0.64203  -0.59393  -0.53423  -0.52113
 Alpha  occ. eigenvalues --   -0.48271  -0.47490  -0.46773  -0.45591  -0.43511
 Alpha  occ. eigenvalues --   -0.39664  -0.37455  -0.37148  -0.31079  -0.24721
 Alpha  occ. eigenvalues --   -0.23056
 Alpha virt. eigenvalues --    0.02013   0.06027   0.10811   0.11476   0.14135
 Alpha virt. eigenvalues --    0.17332   0.18443   0.20592   0.21946   0.22717
 Alpha virt. eigenvalues --    0.23230   0.26127   0.29198   0.30479   0.33944
 Alpha virt. eigenvalues --    0.37462   0.38977   0.42992   0.47885   0.55103
 Alpha virt. eigenvalues --    0.57042   0.57775   0.58479   0.61354   0.61946
 Alpha virt. eigenvalues --    0.62966   0.64190   0.65291   0.66392   0.67214
 Alpha virt. eigenvalues --    0.68425   0.68478   0.69049   0.70885   0.71589
 Alpha virt. eigenvalues --    0.76079   0.77744   0.84231   0.88008   0.88213
 Alpha virt. eigenvalues --    0.89908   0.91361   0.92385   0.93400   0.94007
 Alpha virt. eigenvalues --    0.95689   0.97718   1.00764   1.03896   1.04455
 Alpha virt. eigenvalues --    1.04794   1.10539   1.12441   1.17479   1.19265
 Alpha virt. eigenvalues --    1.26302   1.28523   1.31882   1.35277   1.37416
 Alpha virt. eigenvalues --    1.38990   1.43273   1.46652   1.49573   1.51255
 Alpha virt. eigenvalues --    1.52087   1.54895   1.56460   1.57130   1.61548
 Alpha virt. eigenvalues --    1.66522   1.80720   1.86475   1.88495   1.94441
 Alpha virt. eigenvalues --    1.95325   1.97254   2.01177   2.02472   2.06056
 Alpha virt. eigenvalues --    2.06993   2.12079   2.16764   2.19804   2.21084
 Alpha virt. eigenvalues --    2.23079   2.28930   2.30945   2.31898   2.32758
 Alpha virt. eigenvalues --    2.35415   2.44453   2.45372   2.47092   2.55512
 Alpha virt. eigenvalues --    2.62864   2.65703   2.69211   2.73839   2.74570
 Alpha virt. eigenvalues --    2.79736   2.84879   2.86872   2.91865   2.97546
 Alpha virt. eigenvalues --    3.03797   3.15651   3.30954   3.51581   4.10318
 Alpha virt. eigenvalues --    4.21409   4.22624   4.27304   4.32288   4.44081
 Alpha virt. eigenvalues --    4.51765   4.57266   4.87600
          Condensed to atoms (all electrons):
               1          2          3          4          5          6
     1  C    5.030365   0.519688  -0.067137  -0.020549  -0.026662   0.458559
     2  C    0.519688   4.984311   0.461342  -0.017597  -0.020261  -0.051786
     3  C   -0.067137   0.461342   5.174844   0.483640  -0.063428  -0.025130
     4  C   -0.020549  -0.017597   0.483640   4.742388   0.510915  -0.067619
     5  C   -0.026662  -0.020261  -0.063428   0.510915   4.730929   0.489984
     6  C    0.458559  -0.051786  -0.025130  -0.067619   0.489984   5.168349
     7  N   -0.000027   0.004856  -0.070284   0.252940  -0.059043   0.008229
     8  C    0.006252  -0.000157   0.008904  -0.048577   0.513148  -0.067263
     9  C   -0.000513  -0.000224   0.005054  -0.110816  -0.054608   0.009291
    10  H    0.000001  -0.000007  -0.001597  -0.021517   0.004950  -0.000106
    11  H    0.000018   0.000002  -0.000111   0.004781  -0.022622  -0.002564
    12  H    0.000004   0.000002  -0.000047   0.005144   0.001744  -0.000113
    13  H   -0.030533   0.370067  -0.034416   0.002330   0.000782   0.003301
    14  H    0.003336  -0.029270   0.366394  -0.035037   0.003216   0.000299
    15  H    0.372636  -0.034922   0.003614   0.000688   0.002299  -0.030313
    16  H   -0.034924   0.003908   0.000334   0.004021  -0.035873   0.371129
               7          8          9         10         11         12
     1  C   -0.000027   0.006252  -0.000513   0.000001   0.000018   0.000004
     2  C    0.004856  -0.000157  -0.000224  -0.000007   0.000002   0.000002
     3  C   -0.070284   0.008904   0.005054  -0.001597  -0.000111  -0.000047
     4  C    0.252940  -0.048577  -0.110816  -0.021517   0.004781   0.005144
     5  C   -0.059043   0.513148  -0.054608   0.004950  -0.022622   0.001744
     6  C    0.008229  -0.067263   0.009291  -0.000106  -0.002564  -0.000113
     7  N    7.047838  -0.080810   0.348077   0.323637   0.003382  -0.040643
     8  C   -0.080810   5.064177   0.507217   0.003697   0.372458  -0.023559
     9  C    0.348077   0.507217   4.933624  -0.024415  -0.038521   0.376962
    10  H    0.323637   0.003697  -0.024415   0.337913  -0.000063  -0.001400
    11  H    0.003382   0.372458  -0.038521  -0.000063   0.472174  -0.000338
    12  H   -0.040643  -0.023559   0.376962  -0.001400  -0.000338   0.464407
    13  H   -0.000089   0.000009   0.000003  -0.000001  -0.000000  -0.000000
    14  H   -0.003882  -0.000248  -0.000003   0.002118   0.000002   0.000002
    15  H    0.000003  -0.000121   0.000004  -0.000000  -0.000001  -0.000000
    16  H   -0.000120  -0.003863  -0.000002   0.000004   0.001563  -0.000000
              13         14         15         16
     1  C   -0.030533   0.003336   0.372636  -0.034924
     2  C    0.370067  -0.029270  -0.034922   0.003908
     3  C   -0.034416   0.366394   0.003614   0.000334
     4  C    0.002330  -0.035037   0.000688   0.004021
     5  C    0.000782   0.003216   0.002299  -0.035873
     6  C    0.003301   0.000299  -0.030313   0.371129
     7  N   -0.000089  -0.003882   0.000003  -0.000120
     8  C    0.000009  -0.000248  -0.000121  -0.003863
     9  C    0.000003  -0.000003   0.000004  -0.000002
    10  H   -0.000001   0.002118  -0.000000   0.000004
    11  H   -0.000000   0.000002  -0.000001   0.001563
    12  H   -0.000000   0.000002  -0.000000  -0.000000
    13  H    0.512285  -0.003424  -0.003195  -0.000141
    14  H   -0.003424   0.522697  -0.000132   0.000014
    15  H   -0.003195  -0.000132   0.519307  -0.003441
    16  H   -0.000141   0.000014  -0.003441   0.528625
 Mulliken charges:
               1
     1  C   -0.210514
     2  C   -0.189950
     3  C   -0.241975
     4  C    0.314863
     5  C    0.024531
     6  C   -0.264249
     7  N   -0.734064
     8  C   -0.251263
     9  C    0.048870
    10  H    0.376788
    11  H    0.209841
    12  H    0.217837
    13  H    0.183020
    14  H    0.173920
    15  H    0.173576
    16  H    0.168769
 Sum of Mulliken charges =  -0.00000
 Mulliken charges with hydrogens summed into heavy atoms:
               1
     1  C   -0.036937
     2  C   -0.006930
     3  C   -0.068055
     4  C    0.314863
     5  C    0.024531
     6  C   -0.095480
     7  N   -0.357276
     8  C   -0.041422
     9  C    0.266707
 Electronic spatial extent (au):  <R**2>=           1008.4647
 Charge=              0.0000 electrons
 Dipole moment (field-independent basis, Debye):
    X=              2.9584    Y=             -1.7111    Z=              0.0117  Tot=              3.4176
 Quadrupole moment (field-independent basis, Debye-Ang):
   XX=            -42.5658   YY=            -44.8828   ZZ=            -57.6033
   XY=             -2.0176   XZ=             -0.0649   YZ=              0.0060
 Traceless Quadrupole moment (field-independent basis, Debye-Ang):
   XX=              5.7848   YY=              3.4679   ZZ=             -9.2526
   XY=             -2.0176   XZ=             -0.0649   YZ=              0.0060
 Octapole moment (field-independent basis, Debye-Ang**2):
  XXX=             22.2303  YYY=            -10.6418  ZZZ=              0.0507  XYY=             11.4957
  XXY=             -8.0550  XXZ=              0.4201  XZZ=              3.1870  YZZ=             -1.9229
  YYZ=             -0.2007  XYZ=             -0.4580
 Hexadecapole moment (field-independent basis, Debye-Ang**3):
 XXXX=           -778.1573 YYYY=           -363.0267 ZZZZ=            -60.4619 XXXY=            -14.3425
 XXXZ=             -1.1291 YYYX=            -16.4041 YYYZ=             -0.4959 ZZZX=             -0.0118
 ZZZY=             -0.0106 XXYY=           -188.1957 XXZZ=           -178.9776 YYZZ=            -89.3498
 XXYZ=              0.7512 YYXZ=              0.0621 ZZXY=             -2.2419
 N-N= 4.000099183022D+02 E-N=-1.642911916325D+03  KE= 3.609049092523D+02
 Calling FoFJK, ICntrl=  10005127 FMM=F ISym2X=0 I1Cent= 0 IOpClX= 0 NMat=1 NMatS=1 NMatT=0.
 ***** Axes restored to original set *****
 -------------------------------------------------------------------
 Center     Atomic                   Forces (Hartrees/Bohr)
 Number     Number              X              Y              Z
 -------------------------------------------------------------------
      1        6          -0.026538276   -0.000839296   -0.000921281
      2        6          -0.024651799    0.007345126    0.003177187
      3        6           0.018433676   -0.035406003   -0.001465016
      4        6           0.003974629   -0.005317192    0.000520179
      5        6           0.025961414    0.013957384   -0.002460487
      6        6           0.003893500    0.037963632    0.001134127
      7        7           0.014460221    0.006119068    0.000345532
      8        6          -0.040147855    0.016979960    0.000415472
      9        6           0.016139786   -0.038939407   -0.000180125
     10        1           0.000074395    0.001494837    0.000072845
     11        1           0.000275383   -0.000163600    0.000286486
     12        1           0.000001505   -0.000213724   -0.000087024
     13        1           0.002300001    0.000560802    0.000443689
     14        1           0.000053065    0.002935956   -0.000189713
     15        1           0.005238345   -0.003131211   -0.001953559
     16        1           0.000532007   -0.003346333    0.000861690
 -------------------------------------------------------------------
 Cartesian Forces:  Max     0.040147855 RMS     0.013952326

 GradGradGradGradGradGradGradGradGradGradGradGradGradGradGradGradGradGrad
 Berny optimization.
 FormGI is forming the generalized inverse of G from B-inverse, IUseBI=4.
 Internal  Forces:  Max     0.034647425 RMS     0.007844818
 Search for a local minimum.
 Step number   1 out of a maximum of   94
 All quantities printed in internal units (Hartrees-Bohrs-Radians)
 Mixed Optimization -- RFO/linear search
 Second derivative matrix not updated -- first step.
 ITU=  0
     Eigenvalues ---    0.01796   0.01876   0.01936   0.01957   0.02014
     Eigenvalues ---    0.02077   0.02091   0.02104   0.02135   0.02150
     Eigenvalues ---    0.02171   0.02192   0.02277   0.15995   0.15997
     Eigenvalues ---    0.15999   0.15999   0.16000   0.16000   0.16000
     Eigenvalues ---    0.21967   0.22184   0.22640   0.24007   0.24641
     Eigenvalues ---    0.34301   0.34775   0.34841   0.34849   0.35843
     Eigenvalues ---    0.35881   0.36568   0.37979   0.41971   0.43107
     Eigenvalues ---    0.45016   0.46141   0.46401   0.46720   0.46776
     Eigenvalues ---    0.47290   0.50149
 RFO step:  Lambda=-1.18640059D-02 EMin= 1.79641872D-02
 Linear search not attempted -- first point.
 Iteration  1 RMS(Cart)=  0.02553938 RMS(Int)=  0.00033213
 Iteration  2 RMS(Cart)=  0.00039668 RMS(Int)=  0.00016219
 Iteration  3 RMS(Cart)=  0.00000015 RMS(Int)=  0.00016219
 Variable       Old X    -DE/DX   Delta X   Delta X   Delta X     New X
                                 (Linear)    (Quad)   (Total)
    R1        2.65763   0.01395   0.00000   0.03104   0.03097   2.68860
    R2        2.62302   0.02567   0.00000   0.05315   0.05311   2.67613
    R3        2.06825  -0.00620   0.00000  -0.01748  -0.01748   2.05078
    R4        2.62246   0.03224   0.00000   0.06589   0.06585   2.68831
    R5        2.05920  -0.00228   0.00000  -0.00632  -0.00632   2.05288
    R6        2.64564   0.01077   0.00000   0.02240   0.02244   2.66808
    R7        2.05934  -0.00293   0.00000  -0.00814  -0.00814   2.05120
    R8        2.68977   0.02134   0.00000   0.04851   0.04849   2.73826
    R9        2.60613   0.00866   0.00000   0.01667   0.01662   2.62275
   R10        2.65581   0.02085   0.00000   0.04547   0.04550   2.70131
   R11        2.71547  -0.01855   0.00000  -0.04463  -0.04463   2.67084
   R12        2.06041  -0.00338   0.00000  -0.00940  -0.00940   2.05101
   R13        2.61450  -0.01476   0.00000  -0.02973  -0.02967   2.58482
   R14        1.90381  -0.00140   0.00000  -0.00294  -0.00294   1.90088
   R15        2.58787   0.03465   0.00000   0.06677   0.06685   2.65472
   R16        2.04327  -0.00006   0.00000  -0.00017  -0.00017   2.04310
   R17        2.04268   0.00002   0.00000   0.00007   0.00007   2.04275
    A1        2.11021   0.00086   0.00000   0.00702   0.00674   2.11695
    A2        2.08048  -0.00073   0.00000  -0.00522  -0.00513   2.07536
    A3        2.09247  -0.00012   0.00000  -0.00170  -0.00161   2.09086
    A4        2.11832   0.00486   0.00000   0.02303   0.02272   2.14103
    A5        2.07961  -0.00174   0.00000  -0.00731  -0.00729   2.07232
    A6        2.08500  -0.00310   0.00000  -0.01519  -0.01517   2.06983
    A7        2.04953  -0.00605   0.00000  -0.02656  -0.02669   2.02284
    A8        2.11773   0.00313   0.00000   0.01390   0.01396   2.13169
    A9        2.11584   0.00292   0.00000   0.01271   0.01277   2.12861
   A10        2.13411   0.00146   0.00000   0.00525   0.00529   2.13940
   A11        2.27810  -0.00469   0.00000  -0.01637  -0.01628   2.26182
   A12        1.87093   0.00323   0.00000   0.01115   0.01102   1.88195
   A13        2.06944   0.00698   0.00000   0.02681   0.02681   2.09625
   A14        1.86461  -0.00554   0.00000  -0.02142  -0.02153   1.84308
   A15        2.34906  -0.00144   0.00000  -0.00526  -0.00520   2.34386
   A16        2.08151  -0.00800   0.00000  -0.03218  -0.03239   2.04912
   A17        2.10290   0.00444   0.00000   0.01873   0.01878   2.12169
   A18        2.09860   0.00358   0.00000   0.01372   0.01377   2.11237
   A19        1.90817   0.00038   0.00000   0.00021   0.00020   1.90837
   A20        2.18895   0.00032   0.00000   0.00287   0.00287   2.19182
   A21        2.18607  -0.00070   0.00000  -0.00308  -0.00307   2.18300
   A22        1.87017   0.00490   0.00000   0.02241   0.02246   1.89262
   A23        2.21386  -0.00213   0.00000  -0.00933  -0.00936   2.20451
   A24        2.19915  -0.00277   0.00000  -0.01309  -0.01311   2.18604
   A25        1.91087  -0.00297   0.00000  -0.01224  -0.01214   1.89873
   A26        2.09958   0.00127   0.00000   0.00489   0.00483   2.10441
   A27        2.27270   0.00170   0.00000   0.00740   0.00734   2.28004
    D1        0.08496  -0.00136   0.00000  -0.04581  -0.04631   0.03865
    D2       -3.08112  -0.00062   0.00000  -0.02108  -0.02130  -3.10243
    D3       -3.06462  -0.00091   0.00000  -0.03193  -0.03239  -3.09701
    D4        0.05248  -0.00016   0.00000  -0.00720  -0.00739   0.04509
    D5       -0.08896   0.00165   0.00000   0.04500   0.04461  -0.04435
    D6        3.07230   0.00103   0.00000   0.02936   0.02925   3.10155
    D7        3.06067   0.00120   0.00000   0.03105   0.03059   3.09126
    D8       -0.06125   0.00058   0.00000   0.01540   0.01523  -0.04602
    D9       -0.03480   0.00084   0.00000   0.02398   0.02378  -0.01102
   D10        3.12057   0.00060   0.00000   0.02011   0.02022   3.14079
   D11        3.13135   0.00007   0.00000  -0.00094  -0.00129   3.13006
   D12        0.00354  -0.00016   0.00000  -0.00481  -0.00486  -0.00131
   D13       -0.00812  -0.00016   0.00000  -0.00049  -0.00016  -0.00828
   D14       -3.13901  -0.00031   0.00000  -0.00460  -0.00425   3.13992
   D15        3.11971   0.00007   0.00000   0.00338   0.00341   3.12312
   D16       -0.01119  -0.00008   0.00000  -0.00072  -0.00068  -0.01187
   D17        0.00259  -0.00012   0.00000  -0.00188  -0.00172   0.00087
   D18       -3.12801  -0.00037   0.00000  -0.01166  -0.01164  -3.13965
   D19        3.13567  -0.00004   0.00000   0.00123   0.00145   3.13712
   D20        0.00507  -0.00029   0.00000  -0.00854  -0.00848  -0.00341
   D21        3.13110   0.00022   0.00000   0.00494   0.00479   3.13590
   D22       -0.00902   0.00018   0.00000   0.00405   0.00391  -0.00511
   D23       -0.00102   0.00009   0.00000   0.00131   0.00118   0.00015
   D24       -3.14114   0.00005   0.00000   0.00043   0.00029  -3.14085
   D25        0.04569  -0.00071   0.00000  -0.02052  -0.02046   0.02524
   D26       -3.11552  -0.00009   0.00000  -0.00486  -0.00512  -3.12064
   D27       -3.11068  -0.00038   0.00000  -0.00740  -0.00712  -3.11780
   D28        0.01129   0.00025   0.00000   0.00826   0.00822   0.01951
   D29       -0.00728   0.00046   0.00000   0.01277   0.01262   0.00534
   D30        3.13205   0.00032   0.00000   0.00906   0.00891   3.14096
   D31       -3.13531   0.00008   0.00000   0.00045   0.00035  -3.13496
   D32        0.00402  -0.00006   0.00000  -0.00326  -0.00336   0.00066
   D33       -0.00369   0.00025   0.00000   0.00707   0.00693   0.00324
   D34       -3.13774   0.00001   0.00000  -0.00034  -0.00048  -3.13822
   D35        3.13643   0.00029   0.00000   0.00795   0.00781  -3.13894
   D36        0.00238   0.00006   0.00000   0.00054   0.00041   0.00279
   D37        0.00679  -0.00037   0.00000  -0.01208  -0.01222  -0.00544
   D38        3.13985  -0.00011   0.00000  -0.00373  -0.00385   3.13600
   D39       -3.13257  -0.00023   0.00000  -0.00842  -0.00856  -3.14113
   D40        0.00050   0.00003   0.00000  -0.00007  -0.00019   0.00031
         Item               Value     Threshold  Converged?
 Maximum Force            0.034647     0.000450     NO 
 RMS     Force            0.007845     0.000300     NO 
 Maximum Displacement     0.098280     0.001800     NO 
 RMS     Displacement     0.025500     0.001200     NO 
 Predicted change in Energy=-6.154233D-03
 GradGradGradGradGradGradGradGradGradGradGradGradGradGradGradGradGradGrad

                          Input orientation:                          
 ---------------------------------------------------------------------
 Center     Atomic      Atomic             Coordinates (Angstroms)
 Number     Number       Type             X           Y           Z
 ---------------------------------------------------------------------
      1          6           0       -2.181712    0.707104    0.016475
      2          6           0       -2.140754   -0.714934   -0.002010
      3          6           0       -0.921671   -1.448152   -0.003221
      4          6           0        0.261427   -0.677646    0.001166
      5          6           0        0.248905    0.771317   -0.003520
      6          6           0       -0.993862    1.477608   -0.011875
      7          7           0        1.586303   -1.091126    0.003076
      8          6           0        1.606841    1.163172    0.000440
      9          6           0        2.403264    0.005924    0.000082
     10          1           0        1.901299   -2.046432    0.005691
     11          1           0        1.980399    2.177749   -0.001927
     12          1           0        3.478116   -0.108963   -0.002191
     13          1           0       -3.077852   -1.264275   -0.016257
     14          1           0       -0.900569   -2.533314   -0.016659
     15          1           0       -3.145739    1.203673    0.058676
     16          1           0       -1.020743    2.562375   -0.034955
 ---------------------------------------------------------------------
                    Distance matrix (angstroms):
                    1          2          3          4          5
     1  C    0.000000
     2  C    1.422748   0.000000
     3  C    2.496642   1.422594   0.000000
     4  C    2.808325   2.402472   1.411885   0.000000
     5  C    2.431547   2.814145   2.509241   1.449024   0.000000
     6  C    1.416145   2.474408   2.926663   2.494201   1.429471
     7  N    4.175135   3.745998   2.533267   1.387900   2.292896
     8  C    3.815939   4.191868   3.634887   2.280077   1.413350
     9  C    4.638311   4.600841   3.628987   2.248274   2.286286
    10  H    4.924739   4.255718   2.885685   2.136066   3.266527
    11  H    4.414329   5.035029   4.644262   3.332890   2.230723
    12  H    5.718388   5.651451   4.599082   3.266573   3.347043
    13  H    2.165750   1.086339   2.164047   3.390460   3.900142
    14  H    3.484642   2.201086   1.085450   2.189533   3.498863
    15  H    1.085224   2.166733   3.461573   3.892486   3.422632
    16  H    2.189183   3.463562   4.011876   3.484680   2.195651
                    6          7          8          9         10
     6  C    0.000000
     7  N    3.640861   0.000000
     8  C    2.619672   2.254394   0.000000
     9  C    3.702224   1.367829   1.404818   0.000000
    10  H    4.560825   1.005902   3.223087   2.112858   0.000000
    11  H    3.055573   3.292550   1.081165   2.212610   4.224929
    12  H    4.745091   2.131579   2.262742   1.080976   2.498040
    13  H    3.443973   4.667408   5.276280   5.626394   5.040258
    14  H    4.012009   2.874861   4.466700   4.166932   2.843943
    15  H    2.170390   5.259412   4.753110   5.677101   6.003214
    16  H    1.085346   4.488453   2.977117   4.273230   5.457205
                   11         12         13         14         15
    11  H    0.000000
    12  H    2.733534   0.000000
    13  H    6.118303   6.657001   0.000000
    14  H    5.522165   5.005054   2.520124   0.000000
    15  H    5.218217   6.752938   2.470018   4.360222   0.000000
    16  H    3.025869   5.232289   4.344571   5.097138   2.523974
                   16
    16  H    0.000000
 Stoichiometry    C8H7N
 Framework group  C1[X(C8H7N)]
 Deg. of freedom    42
 Full point group                 C1      NOp   1
 Largest Abelian subgroup         C1      NOp   1
 Largest concise Abelian subgroup C1      NOp   1
                         Standard orientation:                         
 ---------------------------------------------------------------------
 Center     Atomic      Atomic             Coordinates (Angstroms)
 Number     Number       Type             X           Y           Z
 ---------------------------------------------------------------------
      1          6           0       -2.194600    0.665775    0.014756
      2          6           0       -2.127402   -0.755262   -0.003936
      3          6           0       -0.895000   -1.465867   -0.004236
      4          6           0        0.273679   -0.673668    0.001286
      5          6           0        0.234435    0.774817   -0.003163
      6          6           0       -1.021142    1.458065   -0.012454
      7          7           0        1.605955   -1.062640    0.004251
      8          6           0        1.584908    1.191655    0.002016
      9          6           0        2.402542    0.049295    0.002137
     10          1           0        1.938517   -2.011973    0.006971
     11          1           0        1.939688    2.212950    0.000139
     12          1           0        3.479332   -0.045744    0.000757
     13          1           0       -3.054195   -1.321792   -0.019072
     14          1           0       -0.853872   -2.550452   -0.017842
     15          1           0       -3.167659    1.144469    0.056223
     16          1           0       -1.068010    2.542156   -0.035372
 ---------------------------------------------------------------------
 Rotational constants (GHZ):           3.7667001           1.6172305           1.1314986
 Standard basis: 6-31G(d) (6D, 7F)
 There are   149 symmetry adapted cartesian basis functions of A   symmetry.
 There are   149 symmetry adapted basis functions of A   symmetry.
   149 basis functions,   280 primitive gaussians,   149 cartesian basis functions
    31 alpha electrons       31 beta electrons
       nuclear repulsion energy       396.6749759475 Hartrees.
 NAtoms=   16 NActive=   16 NUniq=   16 SFac= 1.00D+00 NAtFMM=   60 NAOKFM=F Big=F
 Integral buffers will be    131072 words long.
 Regular integral format.
 Two-electron integral symmetry is turned on.
 One-electron integrals computed using PRISM.
 NBasis=   149 RedAO= T EigKep=  4.78D-04  NBF=   149
 NBsUse=   149 1.00D-06 EigRej= -1.00D+00 NBFU=   149
 Initial guess from the checkpoint file:  "FuncsSOGGA11X2nd.chk"
 B after Tr=    -0.000000    0.000000   -0.000000
         Rot=    0.999961   -0.000055    0.000009   -0.008809 Ang=  -1.01 deg.
 ExpMin= 1.61D-01 ExpMax= 4.17D+03 ExpMxC= 6.27D+02 IAcc=3 IRadAn=         5 AccDes= 0.00D+00
 Harris functional with IExCor= 5143 and IRadAn=       5 diagonalized for initial guess.
 HarFok:  IExCor= 5143 AccDes= 0.00D+00 IRadAn=         5 IDoV= 1 UseB2=F ITyADJ=14
 ICtDFT=  3500011 ScaDFX=  1.000000  1.000000  1.000000  1.000000
 FoFCou: FMM=F IPFlag=           0 FMFlag=      100000 FMFlg1=           0
         NFxFlg=           0 DoJE=T BraDBF=F KetDBF=T FulRan=T
         wScrn=  0.000000 ICntrl=       500 IOpCl=  0 I1Cent=   200000004 NGrid=           0
         NMat0=    1 NMatS0=      1 NMatT0=    0 NMatD0=    1 NMtDS0=    0 NMtDT0=    0
 Petite list used in FoFCou.
 Keep R1 ints in memory in canonical form, NReq=64400683.
 Requested convergence on RMS density matrix=1.00D-08 within 128 cycles.
 Requested convergence on MAX density matrix=1.00D-06.
 Requested convergence on             energy=1.00D-06.
 No special actions if energy rises.
 Integral accuracy reduced to 1.0D-05 until final iterations.
 Initial convergence to 1.0D-05 achieved.  Increase integral accuracy.
 SCF Done:  E(RSOGGA11X) =  -363.712209038     A.U. after   13 cycles
            NFock= 13  Conv=0.45D-08     -V/T= 2.0093
 DoSCS=F DFT=T ScalE2(SS,OS)=  1.000000  1.000000
 ExpMin= 1.61D-01 ExpMax= 4.17D+03 ExpMxC= 6.27D+02 IAcc=3 IRadAn=         5 AccDes= 0.00D+00
 HarFok:  IExCor=  205 AccDes= 0.00D+00 IRadAn=         5 IDoV=-2 UseB2=F ITyADJ=14
 ICtDFT= 12500011 ScaDFX=  1.000000  1.000000  1.000000  1.000000
 Range of M.O.s used for correlation:    10   149
 NBasis=   149 NAE=    31 NBE=    31 NFC=     9 NFV=     0
 NROrb=    140 NOA=    22 NOB=    22 NVA=   118 NVB=   118
 Orbital symmetries:
       Occupied  (A) (A) (A) (A) (A) (A) (A) (A) (A) (A) (A) (A)
                 (A) (A) (A) (A) (A) (A) (A) (A) (A) (A) (A) (A)
                 (A) (A) (A) (A) (A) (A) (A)
       Virtual   (A) (A) (A) (A) (A) (A) (A) (A) (A) (A) (A) (A)
                 (A) (A) (A) (A) (A) (A) (A) (A) (A) (A) (A) (A)
                 (A) (A) (A) (A) (A) (A) (A) (A) (A) (A) (A) (A)
                 (A) (A) (A) (A) (A) (A) (A) (A) (A) (A) (A) (A)
                 (A) (A) (A) (A) (A) (A) (A) (A) (A) (A) (A) (A)
                 (A) (A) (A) (A) (A) (A) (A) (A) (A) (A) (A) (A)
                 (A) (A) (A) (A) (A) (A) (A) (A) (A) (A) (A) (A)
                 (A) (A) (A) (A) (A) (A) (A) (A) (A) (A) (A) (A)
                 (A) (A) (A) (A) (A) (A) (A) (A) (A) (A) (A) (A)
                 (A) (A) (A) (A) (A) (A) (A) (A) (A) (A)
 Generating guess from densities on rwf.
 Convergence on wavefunction:    0.000001000000000
 Iteration     1 Dimension    12 NMult     0 NNew     12
 CISAX will form    12 AO SS matrices at one time.
 New state      1 was old state      2
 New state      2 was old state      1
 New state      5 was old state      6
 New state      6 was old state      5
 Iteration     2 Dimension    24 NMult    12 NNew     12
 Iteration     3 Dimension    36 NMult    24 NNew     12
 Iteration     4 Dimension    48 NMult    36 NNew     12
 Iteration     5 Dimension    60 NMult    48 NNew     12
 Iteration     6 Dimension    72 NMult    60 NNew     12
 Iteration     7 Dimension    84 NMult    72 NNew     12
 Iteration     8 Dimension    94 NMult    84 NNew     10
 Iteration     9 Dimension   102 NMult    94 NNew      8
 Iteration    10 Dimension   106 NMult   102 NNew      4
 Iteration    11 Dimension   110 NMult   106 NNew      4
 Iteration    12 Dimension   112 NMult   110 NNew      2
 ***********************************************************************
 Excited states from <AA,BB:AA,BB> singles matrix:
 ***********************************************************************
 
 Ground to excited state transition densities written to RWF  633
 Ground to excited state transition electric dipole moments (Au):
       state          X           Y           Z        Dip. S.      Osc.
         1         0.1745      0.3737     -0.0024      0.1701      0.0211
         2        -0.8961      0.5771     -0.0052      1.1361      0.1368
         3        -1.5893     -0.7524      0.0001      3.0921      0.4828
         4         1.3745     -0.0987     -0.0062      1.8991      0.3153
         5         0.1444     -0.1954      0.0260      0.0597      0.0104
         6         0.6785     -0.9751     -0.0077      1.4113      0.2467
 Ground to excited state transition velocity dipole moments (Au):
       state          X           Y           Z        Dip. S.      Osc.
         1        -0.0329     -0.0748      0.0008      0.0067      0.0239
         2         0.1523     -0.1144      0.0014      0.0363      0.1339
         3         0.3675      0.1824     -0.0002      0.1683      0.4790
         4        -0.3341      0.0292      0.0027      0.1125      0.3011
         5        -0.0376      0.0515     -0.0178      0.0044      0.0112
         6        -0.1794      0.2550      0.0045      0.0972      0.2471
 Ground to excited state transition magnetic dipole moments (Au):
       state          X           Y           Z
         1         0.0003      0.0031      0.0062
         2         0.0020      0.0017      0.0609
         3        -0.0028     -0.0029     -0.5965
         4        -0.0034      0.0026      0.3089
         5         0.2188     -0.0311      0.0055
         6        -0.0377      0.0047     -0.2734
 Ground to excited state transition velocity quadrupole moments (Au):
       state          XX          YY          ZZ          XY          XZ          YZ
         1         0.0464      0.0681     -0.0102     -0.0325     -0.0035     -0.0011
         2         0.2098     -0.1902     -0.0033     -0.0124     -0.0033      0.0036
         3         0.1648     -0.0934     -0.0068     -0.4262      0.0002     -0.0031
         4         0.3462     -0.0029      0.0368      0.0609     -0.0087      0.0032
         5         0.0315      0.0153      0.0024     -0.0417     -0.0585      0.1196
         6         0.4170     -0.0161      0.0138     -0.3996      0.0106     -0.0242
 <0|del|b> * <b|rxdel|0> + <0|del|b> * <b|delr+rdel|0>
 Rotatory Strengths (R) in cgs (10**-40 erg-esu-cm/Gauss)
       state          XX          YY          ZZ    R(velocity)    E-M Angle
         1        -0.9712      0.1091     -0.0250     -0.2957      114.38
         2        -1.0068      1.8588     -0.1270      0.2416       89.09
         3        -0.6161     -3.1815     -0.5867     -1.4614       90.34
         4         1.9050      1.0265      2.8904      1.9407       88.87
         5         2.7785    -18.3399    -11.2796     -8.9470      132.73
         6        -6.1615     15.7280      8.5203      6.0289       85.53
 1/2[<0|r|b>*<b|rxdel|0> + (<0|rxdel|b>*<b|r|0>)*]
 Rotatory Strengths (R) in cgs (10**-40 erg-esu-cm/Gauss)
       state          XX          YY          ZZ     R(length)
         1        -0.0365     -0.8077      0.0103     -0.2780
         2         1.2477     -0.7125      0.2245      0.2532
         3        -3.1016     -1.5616      0.0395     -1.5413
         4         3.2829      0.1813      1.3570      1.6071
         5       -22.3389     -4.2930     -0.1021     -8.9113
         6        18.0743      3.2110     -1.4960      6.5964
  1/2[<0|del|b>*<b|r|0> + (<0|r|b>*<b|del|0>)*] (Au)
       state          X           Y           Z        Dip. S.   Osc.(frdel)
         1        -0.0057     -0.0280     -0.0000      0.0337      0.0225
         2        -0.1365     -0.0660     -0.0000      0.2025      0.1350
         3        -0.5840     -0.1372     -0.0000      0.7213      0.4808
         4        -0.4593     -0.0029     -0.0000      0.4622      0.3081
         5        -0.0054     -0.0101     -0.0005      0.0159      0.0106
         6        -0.1217     -0.2487     -0.0000      0.3704      0.2469

 Excitation energies and oscillator strengths:
 
 Excited State   1:      Singlet-A      5.0671 eV  244.69 nm  f=0.0211  <S**2>=0.000
      30 -> 32        -0.57237
      31 -> 32         0.10226
      31 -> 33         0.38808
 
 Excited State   2:      Singlet-A      4.9154 eV  252.24 nm  f=0.1368  <S**2>=0.000
      30 -> 33         0.17792
      31 -> 32         0.66761
      31 -> 33        -0.11187
 This state for optimization and/or second-order correction.
 Total Energy, E(TD-HF/TD-DFT) =  -363.531572584    
 Copying the excited state density for this state as the 1-particle RhoCI density.
 
 Excited State   3:      Singlet-A      6.3738 eV  194.52 nm  f=0.4828  <S**2>=0.000
      29 -> 32        -0.14849
      30 -> 32         0.36028
      30 -> 33         0.13867
      31 -> 33         0.55395
      31 -> 34        -0.10777
 
 Excited State   4:      Singlet-A      6.7776 eV  182.93 nm  f=0.3153  <S**2>=0.000
      29 -> 32        -0.37256
      30 -> 32        -0.14183
      30 -> 33         0.53725
      31 -> 32        -0.12160
      31 -> 33        -0.14689
 
 Excited State   5:      Singlet-A      7.1173 eV  174.20 nm  f=0.0104  <S**2>=0.000
      29 -> 35         0.10805
      31 -> 34         0.10786
      31 -> 35         0.67521
 
 Excited State   6:      Singlet-A      7.1362 eV  173.74 nm  f=0.2467  <S**2>=0.000
      29 -> 32         0.48905
      30 -> 33         0.37299
      31 -> 32        -0.14760
      31 -> 34         0.24607
      31 -> 35        -0.14448
 SavETr:  write IOETrn=   770 NScale= 10 NData=  16 NLR=1 NState=    6 LETran=     118.
          IDoAtm=1111111111111111
          Differentiating once with respect to electric field.
                with respect to dipole field.
          Differentiating once with respect to nuclear coordinates.
 Keep R1 ints in memory in canonical form, NReq=64412969.
          There are     1 degrees of freedom in the 1st order CPHF.  IDoFFX=0 NUNeed=     1.
 LinEq1:  Iter=  0 NonCon=     1 RMS=1.00D-02 Max=2.67D-01 NDo=     1
 AX will form     1 AO Fock derivatives at one time.
 LinEq1:  Iter=  1 NonCon=     1 RMS=3.65D-03 Max=9.44D-02 NDo=     1
 LinEq1:  Iter=  2 NonCon=     1 RMS=2.23D-03 Max=6.61D-02 NDo=     1
 LinEq1:  Iter=  3 NonCon=     1 RMS=9.50D-04 Max=1.48D-02 NDo=     1
 LinEq1:  Iter=  4 NonCon=     1 RMS=4.50D-04 Max=1.22D-02 NDo=     1
 LinEq1:  Iter=  5 NonCon=     1 RMS=2.10D-04 Max=5.13D-03 NDo=     1
 LinEq1:  Iter=  6 NonCon=     1 RMS=1.09D-04 Max=2.09D-03 NDo=     1
 LinEq1:  Iter=  7 NonCon=     1 RMS=4.92D-05 Max=8.36D-04 NDo=     1
 LinEq1:  Iter=  8 NonCon=     1 RMS=2.01D-05 Max=4.47D-04 NDo=     1
 LinEq1:  Iter=  9 NonCon=     1 RMS=1.11D-05 Max=2.55D-04 NDo=     1
 LinEq1:  Iter= 10 NonCon=     1 RMS=4.90D-06 Max=8.20D-05 NDo=     1
 LinEq1:  Iter= 11 NonCon=     1 RMS=2.31D-06 Max=4.68D-05 NDo=     1
 LinEq1:  Iter= 12 NonCon=     1 RMS=1.12D-06 Max=1.81D-05 NDo=     1
 LinEq1:  Iter= 13 NonCon=     1 RMS=4.05D-07 Max=6.04D-06 NDo=     1
 LinEq1:  Iter= 14 NonCon=     1 RMS=1.38D-07 Max=3.59D-06 NDo=     1
 LinEq1:  Iter= 15 NonCon=     1 RMS=7.59D-08 Max=1.50D-06 NDo=     1
 LinEq1:  Iter= 16 NonCon=     1 RMS=1.94D-08 Max=3.12D-07 NDo=     1
 LinEq1:  Iter= 17 NonCon=     1 RMS=4.18D-09 Max=5.09D-08 NDo=     1
 LinEq1:  Iter= 18 NonCon=     1 RMS=2.35D-09 Max=6.34D-08 NDo=     1
 LinEq1:  Iter= 19 NonCon=     1 RMS=8.94D-10 Max=1.36D-08 NDo=     1
 LinEq1:  Iter= 20 NonCon=     1 RMS=2.02D-10 Max=2.42D-09 NDo=     1
 LinEq1:  Iter= 21 NonCon=     0 RMS=5.74D-11 Max=6.84D-10 NDo=     1
 Linear equations converged to 1.000D-10 1.000D-09 after    21 iterations.
 End of Minotr F.D. properties file   721 does not exist.
 End of Minotr F.D. properties file   722 does not exist.
 End of Minotr F.D. properties file   788 does not exist.
 Calling FoFJK, ICntrl=  10005127 FMM=F ISym2X=0 I1Cent= 0 IOpClX= 0 NMat=1 NMatS=1 NMatT=0.
 ***** Axes restored to original set *****
 -------------------------------------------------------------------
 Center     Atomic                   Forces (Hartrees/Bohr)
 Number     Number              X              Y              Z
 -------------------------------------------------------------------
      1        6           0.001095595   -0.027302581   -0.000920304
      2        6          -0.013322366    0.034434624    0.001347378
      3        6           0.022959801   -0.004960168   -0.000983458
      4        6          -0.024192848    0.014778716   -0.000392465
      5        6           0.007986022   -0.023738972   -0.000594544
      6        6          -0.003346031    0.004292976    0.001616896
      7        7           0.013271751    0.025688858   -0.000006068
      8        6          -0.019498678    0.010362318   -0.000559992
      9        6           0.014402262   -0.032830952    0.000507295
     10        1           0.000203879   -0.001638575   -0.000095915
     11        1           0.002013188    0.000159835    0.000086955
     12        1          -0.000526716    0.001059253    0.000019550
     13        1          -0.000247507   -0.000005772    0.000953093
     14        1          -0.000772428    0.000678436    0.000108300
     15        1          -0.000462896   -0.000253719   -0.001567774
     16        1           0.000436972   -0.000724280    0.000481050
 -------------------------------------------------------------------
 Cartesian Forces:  Max     0.034434624 RMS     0.011860699

 GradGradGradGradGradGradGradGradGradGradGradGradGradGradGradGradGradGrad
 Berny optimization.
 Using GEDIIS/GDIIS optimizer.
 FormGI is forming the generalized inverse of G from B-inverse, IUseBI=4.
 Internal  Forces:  Max     0.026688395 RMS     0.005513501
 Search for a local minimum.
 Step number   2 out of a maximum of   94
 All quantities printed in internal units (Hartrees-Bohrs-Radians)
 Mixed Optimization -- RFO/linear search
 Update second derivatives using D2CorX and points    1    2
 DE= -7.96D-03 DEPred=-6.15D-03 R= 1.29D+00
 TightC=F SS=  1.41D+00  RLast= 1.94D-01 DXNew= 5.0454D-01 5.8087D-01
 Trust test= 1.29D+00 RLast= 1.94D-01 DXMaxT set to 5.05D-01
 ITU=  1  0
 Use linear search instead of GDIIS.
     Eigenvalues ---    0.01797   0.01879   0.01936   0.01953   0.02012
     Eigenvalues ---    0.02039   0.02091   0.02103   0.02128   0.02144
     Eigenvalues ---    0.02164   0.02190   0.02278   0.15289   0.15999
     Eigenvalues ---    0.16000   0.16000   0.16000   0.16000   0.16018
     Eigenvalues ---    0.16720   0.22002   0.23027   0.24642   0.24806
     Eigenvalues ---    0.29568   0.34434   0.34803   0.34848   0.34991
     Eigenvalues ---    0.35846   0.35882   0.37349   0.38614   0.42362
     Eigenvalues ---    0.44102   0.46004   0.46378   0.46435   0.46805
     Eigenvalues ---    0.48839   0.84773
 RFO step:  Lambda=-7.00154157D-03 EMin= 1.79704632D-02
 Quartic linear search produced a step of  0.08207.
 Iteration  1 RMS(Cart)=  0.02062468 RMS(Int)=  0.00026504
 Iteration  2 RMS(Cart)=  0.00028926 RMS(Int)=  0.00012321
 Iteration  3 RMS(Cart)=  0.00000005 RMS(Int)=  0.00012321
 Variable       Old X    -DE/DX   Delta X   Delta X   Delta X     New X
                                 (Linear)    (Quad)   (Total)
    R1        2.68860  -0.02669   0.00254  -0.04710  -0.04460   2.64400
    R2        2.67613   0.00093   0.00436   0.02869   0.03301   2.70913
    R3        2.05078   0.00023  -0.00143  -0.00760  -0.00903   2.04174
    R4        2.68831   0.01462   0.00540   0.06515   0.07055   2.75887
    R5        2.05288   0.00020  -0.00052  -0.00240  -0.00292   2.04996
    R6        2.66808  -0.01012   0.00184  -0.01262  -0.01074   2.65734
    R7        2.05120  -0.00069  -0.00067  -0.00597  -0.00663   2.04457
    R8        2.73826  -0.02048   0.00398  -0.03071  -0.02679   2.71147
    R9        2.62275   0.01049   0.00136   0.02873   0.03033   2.65308
   R10        2.70131   0.00432   0.00373   0.03226   0.03599   2.73730
   R11        2.67084  -0.00157  -0.00366  -0.02485  -0.02880   2.64204
   R12        2.05101  -0.00074  -0.00077  -0.00673  -0.00750   2.04351
   R13        2.58482  -0.01862  -0.00244  -0.05430  -0.05648   2.52834
   R14        1.90088   0.00162  -0.00024   0.00222   0.00198   1.90286
   R15        2.65472   0.01705   0.00549   0.07092   0.07632   2.73104
   R16        2.04310   0.00085  -0.00001   0.00239   0.00238   2.04548
   R17        2.04275  -0.00064   0.00001  -0.00183  -0.00182   2.04093
    A1        2.11695   0.00024   0.00055   0.00501   0.00541   2.12237
    A2        2.07536  -0.00056  -0.00042  -0.00603  -0.00638   2.06898
    A3        2.09086   0.00032  -0.00013   0.00103   0.00097   2.09183
    A4        2.14103  -0.00033   0.00186   0.00915   0.01091   2.15195
    A5        2.07232   0.00003  -0.00060  -0.00384  -0.00440   2.06793
    A6        2.06983   0.00029  -0.00125  -0.00531  -0.00651   2.06331
    A7        2.02284  -0.00146  -0.00219  -0.01969  -0.02189   2.00095
    A8        2.13169  -0.00005   0.00115   0.00513   0.00627   2.13796
    A9        2.12861   0.00151   0.00105   0.01463   0.01567   2.14428
   A10        2.13940   0.00266   0.00043   0.01487   0.01527   2.15466
   A11        2.26182  -0.00083  -0.00134  -0.00547  -0.00688   2.25494
   A12        1.88195  -0.00183   0.00090  -0.00937  -0.00837   1.87358
   A13        2.09625  -0.00046   0.00220   0.00922   0.01159   2.10784
   A14        1.84308   0.00200  -0.00177  -0.00327  -0.00541   1.83767
   A15        2.34386  -0.00154  -0.00043  -0.00596  -0.00618   2.33767
   A16        2.04912  -0.00062  -0.00266  -0.01790  -0.02070   2.02842
   A17        2.12169   0.00073   0.00154   0.01269   0.01426   2.13595
   A18        2.11237  -0.00012   0.00113   0.00526   0.00642   2.11880
   A19        1.90837   0.00885   0.00002   0.03876   0.03920   1.94757
   A20        2.19182  -0.00473   0.00024  -0.02014  -0.02011   2.17170
   A21        2.18300  -0.00412  -0.00025  -0.01862  -0.01909   2.16391
   A22        1.89262   0.00167   0.00184   0.02352   0.02501   1.91763
   A23        2.20451   0.00104  -0.00077   0.00099   0.00039   2.20489
   A24        2.18604  -0.00271  -0.00108  -0.02446  -0.02538   2.16066
   A25        1.89873  -0.01069  -0.00100  -0.04958  -0.05042   1.84831
   A26        2.10441   0.00636   0.00040   0.03081   0.03111   2.13552
   A27        2.28004   0.00432   0.00060   0.01878   0.01929   2.29934
    D1        0.03865  -0.00091  -0.00380  -0.01807  -0.02199   0.01666
    D2       -3.10243  -0.00077  -0.00175  -0.02111  -0.02289  -3.12532
    D3       -3.09701  -0.00088  -0.00266  -0.02154  -0.02431  -3.12133
    D4        0.04509  -0.00074  -0.00061  -0.02458  -0.02522   0.01988
    D5       -0.04435   0.00084   0.00366   0.01846   0.02202  -0.02233
    D6        3.10155   0.00044   0.00240   0.00790   0.01026   3.11181
    D7        3.09126   0.00080   0.00251   0.02194   0.02435   3.11561
    D8       -0.04602   0.00040   0.00125   0.01138   0.01259  -0.03344
    D9       -0.01102   0.00036   0.00195   0.00686   0.00880  -0.00223
   D10        3.14079   0.00014   0.00166  -0.00047   0.00129  -3.14110
   D11        3.13006   0.00022  -0.00011   0.00990   0.00970   3.13976
   D12       -0.00131  -0.00001  -0.00040   0.00257   0.00220   0.00088
   D13       -0.00828   0.00005  -0.00001   0.00297   0.00310  -0.00518
   D14        3.13992  -0.00018  -0.00035  -0.00501  -0.00519   3.13473
   D15        3.12312   0.00026   0.00028   0.01023   0.01057   3.13368
   D16       -0.01187   0.00003  -0.00006   0.00225   0.00228  -0.00959
   D17        0.00087  -0.00009  -0.00014  -0.00233  -0.00239  -0.00152
   D18       -3.13965  -0.00015  -0.00096  -0.00069  -0.00159  -3.14124
   D19        3.13712   0.00010   0.00012   0.00412   0.00432   3.14144
   D20       -0.00341   0.00004  -0.00070   0.00576   0.00513   0.00173
   D21        3.13590   0.00026   0.00039   0.00784   0.00822  -3.13907
   D22       -0.00511   0.00017   0.00032   0.00539   0.00572   0.00062
   D23        0.00015   0.00004   0.00010   0.00070   0.00090   0.00105
   D24       -3.14085  -0.00005   0.00002  -0.00174  -0.00160   3.14074
   D25        0.02524  -0.00043  -0.00168  -0.00859  -0.01020   0.01504
   D26       -3.12064  -0.00003  -0.00042   0.00194   0.00146  -3.11918
   D27       -3.11780  -0.00035  -0.00058  -0.01079  -0.01127  -3.12907
   D28        0.01951   0.00005   0.00067  -0.00027   0.00039   0.01990
   D29        0.00534  -0.00011   0.00104  -0.00997  -0.00907  -0.00373
   D30        3.14096   0.00006   0.00073  -0.00138  -0.00063   3.14032
   D31       -3.13496  -0.00018   0.00003  -0.00801  -0.00812   3.14011
   D32        0.00066  -0.00001  -0.00028   0.00059   0.00031   0.00097
   D33        0.00324  -0.00014   0.00057  -0.00720  -0.00651  -0.00327
   D34       -3.13822  -0.00006  -0.00004  -0.00185  -0.00182  -3.14004
   D35       -3.13894  -0.00005   0.00064  -0.00477  -0.00403   3.14021
   D36        0.00279   0.00002   0.00003   0.00058   0.00066   0.00344
   D37       -0.00544   0.00018  -0.00100   0.01087   0.00984   0.00440
   D38        3.13600   0.00009  -0.00032   0.00480   0.00453   3.14053
   D39       -3.14113  -0.00001  -0.00070   0.00229   0.00156  -3.13957
   D40        0.00031  -0.00009  -0.00002  -0.00378  -0.00375  -0.00344
         Item               Value     Threshold  Converged?
 Maximum Force            0.026688     0.000450     NO 
 RMS     Force            0.005514     0.000300     NO 
 Maximum Displacement     0.058360     0.001800     NO 
 RMS     Displacement     0.020620     0.001200     NO 
 Predicted change in Energy=-4.122212D-03
 GradGradGradGradGradGradGradGradGradGradGradGradGradGradGradGradGradGrad

                          Input orientation:                          
 ---------------------------------------------------------------------
 Center     Atomic      Atomic             Coordinates (Angstroms)
 Number     Number       Type             X           Y           Z
 ---------------------------------------------------------------------
      1          6           0       -2.201102    0.703047    0.011886
      2          6           0       -2.152854   -0.695231    0.001941
      3          6           0       -0.905688   -1.454125   -0.005044
      4          6           0        0.259650   -0.667109   -0.003842
      5          6           0        0.245120    0.767666   -0.002595
      6          6           0       -1.006920    1.496082   -0.004406
      7          7           0        1.603902   -1.072149   -0.001768
      8          6           0        1.589931    1.150009   -0.002148
      9          6           0        2.434147   -0.022980    0.001968
     10          1           0        1.909397   -2.031640   -0.001356
     11          1           0        1.968297    2.164147   -0.002341
     12          1           0        3.508245   -0.135857    0.002606
     13          1           0       -3.087932   -1.245142   -0.000357
     14          1           0       -0.883511   -2.535806   -0.013166
     15          1           0       -3.167236    1.186130    0.035791
     16          1           0       -1.029794    2.577038   -0.024179
 ---------------------------------------------------------------------
                    Distance matrix (angstroms):
                    1          2          3          4          5
     1  C    0.000000
     2  C    1.399145   0.000000
     3  C    2.516302   1.459929   0.000000
     4  C    2.816536   2.412675   1.406204   0.000000
     5  C    2.447118   2.808980   2.502144   1.434849   0.000000
     6  C    1.433610   2.472864   2.951944   2.506710   1.448515
[...]
 ! D1    D(6,1,2,3)              0.0178         -DE/DX =    0.0                 !
 ! D2    D(6,1,2,13)           179.9929         -DE/DX =    0.0                 !
 ! D3    D(15,1,2,3)          -179.9763         -DE/DX =    0.0                 !
 ! D4    D(15,1,2,13)           -0.0012         -DE/DX =    0.0                 !
 ! D5    D(2,1,6,5)             -0.0354         -DE/DX =    0.0                 !
 ! D6    D(2,1,6,16)           179.886          -DE/DX =    0.0                 !
 ! D7    D(15,1,6,5)           179.9587         -DE/DX =    0.0                 !
 ! D8    D(15,1,6,16)           -0.1199         -DE/DX =    0.0                 !
 ! D9    D(1,2,3,4)             -0.0075         -DE/DX =    0.0                 !
 ! D10   D(1,2,3,14)          -179.9668         -DE/DX =    0.0                 !
 ! D11   D(13,2,3,4)          -179.9829         -DE/DX =    0.0                 !
 ! D12   D(13,2,3,14)            0.0579         -DE/DX =    0.0                 !
 ! D13   D(2,3,4,5)              0.0174         -DE/DX =    0.0                 !
 ! D14   D(2,3,4,7)            179.8926         -DE/DX =    0.0                 !
 ! D15   D(14,3,4,5)           179.9761         -DE/DX =    0.0                 !
 ! D16   D(14,3,4,7)            -0.1487         -DE/DX =    0.0                 !
 ! D17   D(3,4,5,6)             -0.037          -DE/DX =    0.0                 !
 ! D18   D(3,4,5,8)            179.8807         -DE/DX =    0.0                 !
 ! D19   D(7,4,5,6)           -179.9359         -DE/DX =    0.0                 !
 ! D20   D(7,4,5,8)             -0.0182         -DE/DX =    0.0                 !
 ! D21   D(3,4,7,9)           -179.8703         -DE/DX =    0.0                 !
 ! D22   D(3,4,7,10)             0.1951         -DE/DX =    0.0                 !
 ! D23   D(5,4,7,9)              0.0219         -DE/DX =    0.0                 !
 ! D24   D(5,4,7,10)          -179.9127         -DE/DX =    0.0                 !
 ! D25   D(4,5,6,1)              0.0437         -DE/DX =    0.0                 !
 ! D26   D(4,5,6,16)          -179.8781         -DE/DX =    0.0                 !
 ! D27   D(8,5,6,1)           -179.8478         -DE/DX =    0.0                 !
 ! D28   D(8,5,6,16)             0.2304         -DE/DX =    0.0                 !
 ! D29   D(4,5,8,9)              0.0091         -DE/DX =    0.0                 !
 ! D30   D(4,5,8,11)          -179.9621         -DE/DX =    0.0                 !
 ! D31   D(6,5,8,9)            179.9109         -DE/DX =    0.0                 !
 ! D32   D(6,5,8,11)            -0.0603         -DE/DX =    0.0                 !
 ! D33   D(4,7,9,8)             -0.016          -DE/DX =    0.0                 !
 ! D34   D(4,7,9,12)          -179.8015         -DE/DX =    0.0                 !
 ! D35   D(10,7,9,8)           179.918          -DE/DX =    0.0                 !
 ! D36   D(10,7,9,12)            0.1325         -DE/DX =    0.0                 !
 ! D37   D(5,8,9,7)              0.0039         -DE/DX =    0.0                 !
 ! D38   D(5,8,9,12)           179.7639         -DE/DX =    0.0                 !
 ! D39   D(11,8,9,7)           179.9762         -DE/DX =    0.0                 !
 ! D40   D(11,8,9,12)           -0.2638         -DE/DX =    0.0                 !
 --------------------------------------------------------------------------------
 GradGradGradGradGradGradGradGradGradGradGradGradGradGradGradGradGradGrad

                          Input orientation:                          
 ---------------------------------------------------------------------
 Center     Atomic      Atomic             Coordinates (Angstroms)
 Number     Number       Type             X           Y           Z
 ---------------------------------------------------------------------
      1          6           0       -2.185656    0.683517    0.003530
      2          6           0       -2.156962   -0.696859    0.002803
      3          6           0       -0.910079   -1.441820   -0.000163
      4          6           0        0.244212   -0.657655   -0.002362
      5          6           0        0.245108    0.753983   -0.001484
      6          6           0       -0.993938    1.466138    0.001042
      7          7           0        1.588826   -1.060890   -0.003370
      8          6           0        1.604042    1.161355   -0.001565
      9          6           0        2.429139   -0.010292   -0.002713
     10          1           0        1.883018   -2.026591   -0.005417
     11          1           0        1.983108    2.175242   -0.000458
     12          1           0        3.501852   -0.123605   -0.006459
     13          1           0       -3.089506   -1.254143    0.004894
     14          1           0       -0.891130   -2.525431   -0.001260
     15          1           0       -3.146544    1.191357    0.006177
     16          1           0       -1.021837    2.549775   -0.000206
 ---------------------------------------------------------------------
                    Distance matrix (angstroms):
                    1          2          3          4          5
     1  C    0.000000
     2  C    1.380674   0.000000
     3  C    2.478743   1.452478   0.000000
     4  C    2.775434   2.401500   1.395460   0.000000
     5  C    2.431790   2.806225   2.481130   1.411638   0.000000
     6  C    1.425725   2.455847   2.909167   2.458358   1.429128
     7  N    4.158091   3.763441   2.527775   1.403776   2.258173
     8  C    3.819708   4.195013   3.619023   2.271108   1.418681
     9  C    4.666663   4.637212   3.633133   2.278812   2.313895
    10  H    4.888647   4.253198   2.853660   2.135340   3.227128
    11  H    4.427624   5.038765   4.631810   3.324013   2.245133
    12  H    5.744501   5.687784   4.604657   3.301127   3.372917
    13  H    2.138100   1.086373   2.187499   3.386669   3.892590
    14  H    3.460227   2.223966   1.083778   2.185770   3.470676
    15  H    1.086837   2.131817   3.454770   3.862143   3.419745
    16  H    2.199410   3.439353   3.993158   3.448259   2.197730
                    6          7          8          9         10
     6  C    0.000000
     7  N    3.613387   0.000000
     8  C    2.615799   2.222297   0.000000
     9  C    3.727911   1.345319   1.433019   0.000000
    10  H    4.525049   1.009520   3.200131   2.088951   0.000000
    11  H    3.060332   3.260064   1.082432   2.230585   4.203028
    12  H    4.768592   2.130300   2.291904   1.078687   2.498395
    13  H    3.433853   4.682329   5.278642   5.657090   5.032174
    14  H    3.992893   2.880116   4.451772   4.165347   2.818644
    15  H    2.170079   5.243705   4.750688   5.703708   5.970914
    16  H    1.083996   4.455611   2.970346   4.296881   5.420455
                   11         12         13         14         15
    11  H    0.000000
    12  H    2.755234   0.000000
    13  H    6.123081   6.687619   0.000000
    14  H    5.509770   5.006704   2.539502   0.000000
    15  H    5.223160   6.777201   2.446165   4.347581   0.000000
    16  H    3.028196   5.254594   4.329557   5.076889   2.521848
                   16
    16  H    0.000000
 Stoichiometry    C8H7N
 Framework group  C1[X(C8H7N)]
 Deg. of freedom    42
 Full point group                 C1      NOp   1
 Largest Abelian subgroup         C1      NOp   1
 Largest concise Abelian subgroup C1      NOp   1
                         Standard orientation:                         
 ---------------------------------------------------------------------
 Center     Atomic      Atomic             Coordinates (Angstroms)
 Number     Number       Type             X           Y           Z
 ---------------------------------------------------------------------
      1          6           0       -2.196265    0.646531    0.000574
      2          6           0       -2.145396   -0.733206    0.000644
      3          6           0       -0.886702   -1.458038   -0.000147
      4          6           0        0.254843   -0.655429   -0.001141
      5          6           0        0.233057    0.756041   -0.001037
      6          6           0       -1.017273    1.448197   -0.000656
      7          7           0        1.605762   -1.037009   -0.000024
      8          6           0        1.585270    1.185194    0.000583
      9          6           0        2.429086    0.026955    0.001246
     10          1           0        1.915434   -1.997859   -0.001125
     11          1           0        1.947996    2.205042    0.001671
     12          1           0        3.503485   -0.069109   -0.000918
     13          1           0       -3.068868   -1.305400    0.001720
     14          1           0       -0.850344   -2.541205   -0.000623
     15          1           0       -3.165191    1.138868    0.001581
     16          1           0       -1.062576    2.531245   -0.002538
 ---------------------------------------------------------------------
 Rotational constants (GHZ):           3.8578339           1.6053391           1.1336148

 **********************************************************************

            Population analysis using the CI Density.

 **********************************************************************

 Orbital symmetries:
       Occupied  (A) (A) (A) (A) (A) (A) (A) (A) (A) (A) (A) (A)
                 (A) (A) (A) (A) (A) (A) (A) (A) (A) (A) (A) (A)
                 (A) (A) (A) (A) (A) (A) (A)
       Virtual   (A) (A) (A) (A) (A) (A) (A) (A) (A) (A) (A) (A)
                 (A) (A) (A) (A) (A) (A) (A) (A) (A) (A) (A) (A)
                 (A) (A) (A) (A) (A) (A) (A) (A) (A) (A) (A) (A)
                 (A) (A) (A) (A) (A) (A) (A) (A) (A) (A) (A) (A)
                 (A) (A) (A) (A) (A) (A) (A) (A) (A) (A) (A) (A)
                 (A) (A) (A) (A) (A) (A) (A) (A) (A) (A) (A) (A)
                 (A) (A) (A) (A) (A) (A) (A) (A) (A) (A) (A) (A)
                 (A) (A) (A) (A) (A) (A) (A) (A) (A) (A) (A) (A)
                 (A) (A) (A) (A) (A) (A) (A) (A) (A) (A) (A) (A)
                 (A) (A) (A) (A) (A) (A) (A) (A) (A) (A)
 The electronic state is 1-A.
 Alpha  occ. eigenvalues --  -14.70272 -10.49221 -10.48424 -10.46081 -10.45427
 Alpha  occ. eigenvalues --  -10.45108 -10.44943 -10.44604 -10.43863  -1.07959
 Alpha  occ. eigenvalues --   -0.92099  -0.85583  -0.81812  -0.78237  -0.69337
 Alpha  occ. eigenvalues --   -0.65750  -0.63717  -0.59448  -0.53614  -0.52234
 Alpha  occ. eigenvalues --   -0.48300  -0.47701  -0.46792  -0.44633  -0.43581
 Alpha  occ. eigenvalues --   -0.38870  -0.38386  -0.37113  -0.30374  -0.25680
 Alpha  occ. eigenvalues --   -0.21641
 Alpha virt. eigenvalues --    0.00784   0.06279   0.10237   0.11390   0.14276
 Alpha virt. eigenvalues --    0.17218   0.18530   0.20473   0.21619   0.22544
 Alpha virt. eigenvalues --    0.22562   0.26071   0.28837   0.30410   0.32402
 Alpha virt. eigenvalues --    0.36593   0.37995   0.42048   0.48407   0.55386
 Alpha virt. eigenvalues --    0.56581   0.58626   0.58728   0.59315   0.62247
 Alpha virt. eigenvalues --    0.62681   0.63969   0.64997   0.65360   0.67444
 Alpha virt. eigenvalues --    0.67752   0.67927   0.68899   0.69660   0.71912
 Alpha virt. eigenvalues --    0.75648   0.77721   0.84066   0.87717   0.87952
 Alpha virt. eigenvalues --    0.88911   0.91491   0.93259   0.93466   0.94442
 Alpha virt. eigenvalues --    0.95781   0.97347   1.00448   1.02984   1.03127
 Alpha virt. eigenvalues --    1.04590   1.09344   1.12348   1.17087   1.18824
 Alpha virt. eigenvalues --    1.25605   1.28235   1.31915   1.34806   1.36815
 Alpha virt. eigenvalues --    1.39718   1.42541   1.45570   1.47721   1.52043
 Alpha virt. eigenvalues --    1.52930   1.54577   1.55496   1.56419   1.59476
 Alpha virt. eigenvalues --    1.65500   1.81235   1.83857   1.88563   1.94701
 Alpha virt. eigenvalues --    1.95123   1.98072   2.00699   2.02393   2.05383
 Alpha virt. eigenvalues --    2.05539   2.08026   2.15876   2.17953   2.20662
 Alpha virt. eigenvalues --    2.21088   2.27689   2.28295   2.30063   2.33534
 Alpha virt. eigenvalues --    2.33839   2.42813   2.45747   2.46296   2.53024
 Alpha virt. eigenvalues --    2.61947   2.65244   2.67451   2.70769   2.71254
 Alpha virt. eigenvalues --    2.78575   2.81826   2.85864   2.90182   2.97165
 Alpha virt. eigenvalues --    3.03114   3.12770   3.29900   3.47815   4.10409
 Alpha virt. eigenvalues --    4.19410   4.21335   4.25382   4.31958   4.44051
 Alpha virt. eigenvalues --    4.51383   4.56952   4.86587
          Condensed to atoms (all electrons):
               1          2          3          4          5          6
     1  C    4.923355   0.602730  -0.057792  -0.028347  -0.025572   0.459812
     2  C    0.602730   4.974979   0.405351  -0.015630  -0.024463  -0.056795
     3  C   -0.057792   0.405351   5.221149   0.520143  -0.064436  -0.019194
     4  C   -0.028347  -0.015630   0.520143   4.675882   0.564012  -0.056262
     5  C   -0.025572  -0.024463  -0.064436   0.564012   4.713457   0.474269
     6  C    0.459812  -0.056795  -0.019194  -0.056262   0.474269   5.182395
     7  N    0.000049   0.004458  -0.071154   0.250317  -0.050962   0.006026
     8  C    0.005925   0.000032   0.008198  -0.052072   0.495592  -0.063888
     9  C   -0.000367  -0.000215   0.005757  -0.112164  -0.074284   0.008460
    10  H    0.000002  -0.000022  -0.001190  -0.018790   0.004468  -0.000093
    11  H    0.000015   0.000003  -0.000118   0.004848  -0.020680  -0.002099
    12  H    0.000002   0.000001  -0.000054   0.003986   0.001362  -0.000072
    13  H   -0.031655   0.371230  -0.035464   0.002292   0.000781   0.003356
    14  H    0.002972  -0.026827   0.367316  -0.035244   0.003137   0.000345
    15  H    0.372188  -0.034364   0.003569   0.000689   0.002431  -0.033834
    16  H   -0.032181   0.003463   0.000356   0.003664  -0.035703   0.370134
               7          8          9         10         11         12
     1  C    0.000049   0.005925  -0.000367   0.000002   0.000015   0.000002
     2  C    0.004458   0.000032  -0.000215  -0.000022   0.000003   0.000001
     3  C   -0.071154   0.008198   0.005757  -0.001190  -0.000118  -0.000054
     4  C    0.250317  -0.052072  -0.112164  -0.018790   0.004848   0.003986
     5  C   -0.050962   0.495592  -0.074284   0.004468  -0.020680   0.001362
     6  C    0.006026  -0.063888   0.008460  -0.000093  -0.002099  -0.000072
     7  N    6.971929  -0.076186   0.359592   0.316537   0.003485  -0.038447
     8  C   -0.076186   5.135439   0.449644   0.004659   0.368112  -0.021667
     9  C    0.359592   0.449644   5.014513  -0.026329  -0.037115   0.380695
    10  H    0.316537   0.004659  -0.026329   0.332486  -0.000066  -0.001737
    11  H    0.003485   0.368112  -0.037115  -0.000066   0.461080  -0.000052
    12  H   -0.038447  -0.021667   0.380695  -0.001737  -0.000052   0.449204
    13  H   -0.000086   0.000007   0.000003  -0.000001  -0.000000  -0.000000
    14  H   -0.003856  -0.000254  -0.000013   0.002152   0.000002   0.000001
    15  H    0.000003  -0.000122   0.000003  -0.000000  -0.000001  -0.000000
    16  H   -0.000111  -0.003467  -0.000043   0.000003   0.001562  -0.000000
              13         14         15         16
     1  C   -0.031655   0.002972   0.372188  -0.032181
     2  C    0.371230  -0.026827  -0.034364   0.003463
     3  C   -0.035464   0.367316   0.003569   0.000356
     4  C    0.002292  -0.035244   0.000689   0.003664
     5  C    0.000781   0.003137   0.002431  -0.035703
     6  C    0.003356   0.000345  -0.033834   0.370134
     7  N   -0.000086  -0.003856   0.000003  -0.000111
     8  C    0.000007  -0.000254  -0.000122  -0.003467
     9  C    0.000003  -0.000013   0.000003  -0.000043
    10  H   -0.000001   0.002152  -0.000000   0.000003
    11  H   -0.000000   0.000002  -0.000001   0.001562
    12  H   -0.000000   0.000001  -0.000000  -0.000000
    13  H    0.525965  -0.002526  -0.003853  -0.000135
    14  H   -0.002526   0.524775  -0.000123   0.000011
    15  H   -0.003853  -0.000123   0.528175  -0.002705
    16  H   -0.000135   0.000011  -0.002705   0.526547
 Mulliken charges:
               1
     1  C   -0.191137
     2  C   -0.203930
     3  C   -0.282439
     4  C    0.292675
     5  C    0.036592
     6  C   -0.272562
     7  N   -0.671595
     8  C   -0.249955
     9  C    0.031863
    10  H    0.387919
    11  H    0.221024
    12  H    0.226776
    13  H    0.170085
    14  H    0.168133
    15  H    0.167943
    16  H    0.168606
 Sum of Mulliken charges =  -0.00000
 Mulliken charges with hydrogens summed into heavy atoms:
               1
     1  C   -0.023194
     2  C   -0.033845
     3  C   -0.114305
     4  C    0.292675
     5  C    0.036592
     6  C   -0.103956
     7  N   -0.283676
     8  C   -0.028931
     9  C    0.258639
 Electronic spatial extent (au):  <R**2>=           1020.0245
 Charge=             -0.0000 electrons
 Dipole moment (field-independent basis, Debye):
    X=              4.2062    Y=             -1.3522    Z=             -0.0029  Tot=              4.4182
 Quadrupole moment (field-independent basis, Debye-Ang):
   XX=            -42.4030   YY=            -44.3184   ZZ=            -57.9258
   XY=             -2.5396   XZ=             -0.0120   YZ=              0.0041
 Traceless Quadrupole moment (field-independent basis, Debye-Ang):
   XX=              5.8127   YY=              3.8973   ZZ=             -9.7100
   XY=             -2.5396   XZ=             -0.0120   YZ=              0.0041
 Octapole moment (field-independent basis, Debye-Ang**2):
  XXX=             28.6295  YYY=             -9.1835  ZZZ=             -0.0030  XYY=             13.6925
  XXY=             -7.1021  XXZ=             -0.0112  XZZ=              4.3507  YZZ=             -1.4836
  YYZ=             -0.0155  XYZ=              0.0183
 Hexadecapole moment (field-independent basis, Debye-Ang**3):
 XXXX=           -791.7537 YYYY=           -365.2737 ZZZZ=            -60.9912 XXXY=            -18.0843
 XXXZ=             -0.1529 YYYX=            -16.7196 YYYZ=              0.0120 ZZZX=             -0.0136
 ZZZY=              0.0048 XXYY=           -188.6568 XXZZ=           -182.1408 YYZZ=            -89.9347
 XXYZ=              0.0220 YYXZ=             -0.0029 ZZXY=             -2.5782
 N-N= 3.976093753417D+02 E-N=-1.637854848424D+03  KE= 3.606056726289D+02
 Unable to Open any file for archive entry.
 1\1\GINC-COMET-06-06\FOpt\RSOGGA11X TD-FC\6-31G(d)\C8H7N1\SCAPARAS\04-
 Mar-2021\0\\# td= (nstates=6, root=2) SOGGA11X/6-31G(d) Opt density=cu
 rrent\\FuncsSOGGA11X2nd\\0,1\C,-2.185656229,0.6835168481,0.0035302272\
 C,-2.1569624412,-0.6968592156,0.0028031766\C,-0.9100791994,-1.44181957
 09,-0.0001627588\C,0.2442121491,-0.6576546291,-0.0023615517\C,0.245107
 5502,0.7539826998,-0.0014842734\C,-0.9939384708,1.4661378865,0.0010424
 336\N,1.5888260823,-1.0608899867,-0.0033700317\C,1.6040421638,1.161354
 6159,-0.0015652132\C,2.4291392869,-0.0102920536,-0.0027130353\H,1.8830
 175827,-2.0265908392,-0.0054173142\H,1.9831077701,2.1752418329,-0.0004
 576816\H,3.5018516695,-0.1236050246,-0.0064586006\H,-3.0895062526,-1.2
 541427524,0.0048936514\H,-0.8911299699,-2.5254311779,-0.0012602036\H,-
 3.1465444126,1.191356848,0.0061770941\H,-1.0218372791,2.5497745189,-0.
 0002059186\\Version=ES64L-G16RevC.01\State=1-A\HF=-363.706386\RMSD=8.3
 12e-09\RMSF=4.583e-05\Dipole=1.6548343,-0.5320031,-0.0011341\Quadrupol
 e=4.3216077,2.8975725,-7.2191802,-1.8881252,-0.0088895,0.0030592\PG=C0
 1 [X(C8H7N1)]\\@
 The archive entry for this job was punched.


 KNOWING HOW CONTENTED, FREE, AND JOYFUL IS LIFE IN
 THE REALMS OF SCIENCE, ONE FERVENTLY WISHES THAT
 MANY WOULD ENTER HER PORTALS.
   --  DMITRI IVANOVICH MENDELEEV
 "FIRST PRINCIPLES OF CHEMISTRY", LONGMANS, GREEN,
 AND CO.  LONDON, 1891
 Job cpu time:       0 days  1 hours 23 minutes 53.0 seconds.
 Elapsed time:       0 days  0 hours 42 minutes 12.3 seconds.
 File lengths (MBytes):  RWF=    202 Int=      0 D2E=      0 Chk=      8 Scr=      1
 Normal termination of Gaussian 16 at Thu Mar  4 05:11:20 2021.
