 Entering Gaussian System, Link 0=/cm/shared/apps/spack/cpu/opt/spack/linux-centos8-zen/gcc-8.3.1/gaussian-16.C.01-po5bqktfeugvmjyga3v7eigbecnokxng/g16/g16
 Initial command:
 /cm/shared/apps/spack/cpu/opt/spack/linux-centos8-zen/gcc-8.3.1/gaussian-16.C.01-po5bqktfeugvmjyga3v7eigbecnokxng/g16/l1.exe "/scratch/scaparas/job_3431620/Gau-100565.inp" -scrdir="/scratch/scaparas/job_3431620/"
 Entering Link 1 = /cm/shared/apps/spack/cpu/opt/spack/linux-centos8-zen/gcc-8.3.1/gaussian-16.C.01-po5bqktfeugvmjyga3v7eigbecnokxng/g16/l1.exe PID=    100567.
  
 Copyright (c) 1988-2019, Gaussian, Inc.  All Rights Reserved.
  
 This is part of the Gaussian(R) 16 program.  It is based on
 the Gaussian(R) 09 system (copyright 2009, Gaussian, Inc.),
 the Gaussian(R) 03 system (copyright 2003, Gaussian, Inc.),
 the Gaussian(R) 98 system (copyright 1998, Gaussian, Inc.),
 the Gaussian(R) 94 system (copyright 1995, Gaussian, Inc.),
 the Gaussian 92(TM) system (copyright 1992, Gaussian, Inc.),
 the Gaussian 90(TM) system (copyright 1990, Gaussian, Inc.),
 the Gaussian 88(TM) system (copyright 1988, Gaussian, Inc.),
 the Gaussian 86(TM) system (copyright 1986, Carnegie Mellon
 University), and the Gaussian 82(TM) system (copyright 1983,
 Carnegie Mellon University). Gaussian is a federally registered
 trademark of Gaussian, Inc.
  
 This software contains proprietary and confidential information,
 including trade secrets, belonging to Gaussian, Inc.
  
 This software is provided under written license and may be
 used, copied, transmitted, or stored only in accord with that
 written license.
  
 The following legend is applicable only to US Government
 contracts under FAR:
  
                    RESTRICTED RIGHTS LEGEND
  
 Use, reproduction and disclosure by the US Government is
 subject to restrictions as set forth in subparagraphs (a)
 and (c) of the Commercial Computer Software - Restricted
 Rights clause in FAR 52.227-19.
  
 Gaussian, Inc.
 340 Quinnipiac St., Bldg. 40, Wallingford CT 06492
  
  
 ---------------------------------------------------------------
 Warning -- This program may not be used in any manner that
 competes with the business of Gaussian, Inc. or will provide
 assistance to any competitor of Gaussian, Inc.  The licensee
 of this program is prohibited from giving any competitor of
 Gaussian, Inc. access to this program.  By using this program,
 the user acknowledges that Gaussian, Inc. is engaged in the
 business of creating and licensing software in the field of
 computational chemistry and represents and warrants to the
 licensee that it is not a competitor of Gaussian, Inc. and that
 it will not use this program in any manner prohibited above.
 ---------------------------------------------------------------
  

 Cite this work as:
 Gaussian 16, Revision C.01,
 M. J. Frisch, G. W. Trucks, H. B. Schlegel, G. E. Scuseria, 
 M. A. Robb, J. R. Cheeseman, G. Scalmani, V. Barone, 
 G. A. Petersson, H. Nakatsuji, X. Li, M. Caricato, A. V. Marenich, 
 J. Bloino, B. G. Janesko, R. Gomperts, B. Mennucci, H. P. Hratchian, 
 J. V. Ortiz, A. F. Izmaylov, J. L. Sonnenberg, D. Williams-Young, 
 F. Ding, F. Lipparini, F. Egidi, J. Goings, B. Peng, A. Petrone, 
 T. Henderson, D. Ranasinghe, V. G. Zakrzewski, J. Gao, N. Rega, 
 G. Zheng, W. Liang, M. Hada, M. Ehara, K. Toyota, R. Fukuda, 
 J. Hasegawa, M. Ishida, T. Nakajima, Y. Honda, O. Kitao, H. Nakai, 
 T. Vreven, K. Throssell, J. A. Montgomery, Jr., J. E. Peralta, 
 F. Ogliaro, M. J. Bearpark, J. J. Heyd, E. N. Brothers, K. N. Kudin, 
 V. N. Staroverov, T. A. Keith, R. Kobayashi, J. Normand, 
 K. Raghavachari, A. P. Rendell, J. C. Burant, S. S. Iyengar, 
 J. Tomasi, M. Cossi, J. M. Millam, M. Klene, C. Adamo, R. Cammi, 
 J. W. Ochterski, R. L. Martin, K. Morokuma, O. Farkas, 
 J. B. Foresman, and D. J. Fox, Gaussian, Inc., Wallingford CT, 2019.
 
 ******************************************
 Gaussian 16:  AS64L-G16RevC.01  3-Jul-2019
                15-Jun-2021 
 ******************************************
 %nprocshared=4
 Will use up to    4 processors via shared memory.
 %chk=FuncsAPFD-V-3rd.chk
 %Mem=3GB
 ----------------------------------------------------------
 # td= (nstates=6, root=3) APFD/6-31+G* Opt density=current
 ----------------------------------------------------------
 1/18=20,19=15,26=3,38=1/1,3;
 2/9=110,12=2,17=6,18=5,40=1/2;
 3/5=1,6=6,7=11,11=9,25=1,30=1,71=1,74=-44/1,2,3,8;
 4//1;
 5/5=2,38=5/2;
 8/6=1,10=2,107=3,108=6/1;
 9/8=3,15=2,41=6,42=1,70=2/14;
 10/5=4,28=3/2;
 6/7=2,8=2,9=2,10=2,22=-1/1;
 7/12=6,13=5,14=3/1,2,3,16;
 1/18=20,19=15,26=3/3(2);
 2/9=110/2;
 99//99;
 2/9=110/2;
 3/5=1,6=6,7=11,11=9,25=1,30=1,71=1,74=-44/1,2,3,8;
 4/5=5,16=3,69=1/1;
 5/5=2,38=5/2;
 8/6=1,10=2,107=3,108=6/1;
 9/8=3,15=2,41=6,42=1,49=4,70=2/14;
 10/5=4,28=3/2;
 7/12=6,13=5,14=3/1,2,3,16;
 1/18=20,19=15,26=3/3(-8);
 2/9=110/2;
 6/7=2,8=2,9=2,10=2,22=-1/1;
 99/9=10/99;
 ---------------
 FuncsAPFD-V-3rd
 ---------------
 Symbolic Z-matrix:
 Charge =  0 Multiplicity = 1
 C                    -2.15106   0.68921   0.00009 
 C                    -2.12793  -0.71582   0.00008 
 C                    -0.9323   -1.4131   -0.00001 
 C                     0.24691  -0.6702   -0.00004 
 C                     0.24819   0.7483    0. 
 C                    -0.97947   1.42353   0.00003 
 N                     1.56177  -1.07759  -0.00029 
 C                     1.62013   1.1629   -0.00016 
 C                     2.38201   0.03081   0.00025 
 H                     1.87632  -2.03001   0.00044 
 H                     1.99217   2.17301  -0.00035 
 H                     3.45255  -0.08243   0.00041 
 H                    -3.06159  -1.26202   0.00009 
 H                    -0.91725  -2.49534  -0.00007 
 H                    -3.1042    1.20079   0.00009 
 H                    -1.00935   2.50542  -0.00002 
 

 GradGradGradGradGradGradGradGradGradGradGradGradGradGradGradGradGradGrad
 Berny optimization.
 Initialization pass.
                           ----------------------------
                           !    Initial Parameters    !
                           ! (Angstroms and Degrees)  !
 --------------------------                            --------------------------
 ! Name  Definition              Value          Derivative Info.                !
 --------------------------------------------------------------------------------
 ! R1    R(1,2)                  1.4052         estimate D2E/DX2                !
 ! R2    R(1,6)                  1.3827         estimate D2E/DX2                !
 ! R3    R(1,15)                 1.0818         estimate D2E/DX2                !
 ! R4    R(2,3)                  1.3841         estimate D2E/DX2                !
 ! R5    R(2,13)                 1.0817         estimate D2E/DX2                !
 ! R6    R(3,4)                  1.3937         estimate D2E/DX2                !
 ! R7    R(3,14)                 1.0823         estimate D2E/DX2                !
 ! R8    R(4,5)                  1.4185         estimate D2E/DX2                !
 ! R9    R(4,7)                  1.3765         estimate D2E/DX2                !
 ! R10   R(5,6)                  1.4011         estimate D2E/DX2                !
 ! R11   R(5,8)                  1.4332         estimate D2E/DX2                !
 ! R12   R(6,16)                 1.0823         estimate D2E/DX2                !
 ! R13   R(7,9)                  1.3789         estimate D2E/DX2                !
 ! R14   R(7,10)                 1.003          estimate D2E/DX2                !
 ! R15   R(8,9)                  1.3646         estimate D2E/DX2                !
 ! R16   R(8,11)                 1.0764         estimate D2E/DX2                !
 ! R17   R(9,12)                 1.0765         estimate D2E/DX2                !
 ! A1    A(2,1,6)              121.1349         estimate D2E/DX2                !
 ! A2    A(2,1,15)             119.1671         estimate D2E/DX2                !
 ! A3    A(6,1,15)             119.698          estimate D2E/DX2                !
 ! A4    A(1,2,3)              121.1938         estimate D2E/DX2                !
 ! A5    A(1,2,13)             119.3846         estimate D2E/DX2                !
 ! A6    A(3,2,13)             119.4217         estimate D2E/DX2                !
 ! A7    A(2,3,4)              117.5387         estimate D2E/DX2                !
 ! A8    A(2,3,14)             121.0469         estimate D2E/DX2                !
 ! A9    A(4,3,14)             121.4144         estimate D2E/DX2                !
 ! A10   A(3,4,5)              122.2626         estimate D2E/DX2                !
 ! A11   A(3,4,7)              130.5743         estimate D2E/DX2                !
 ! A12   A(5,4,7)              107.163          estimate D2E/DX2                !
 ! A13   A(4,5,6)              118.7594         estimate D2E/DX2                !
 ! A14   A(4,5,8)              106.8666         estimate D2E/DX2                !
 ! A15   A(6,5,8)              134.374          estimate D2E/DX2                !
 ! A16   A(1,6,5)              119.1105         estimate D2E/DX2                !
 ! A17   A(1,6,16)             120.4966         estimate D2E/DX2                !
 ! A18   A(5,6,16)             120.3928         estimate D2E/DX2                !
 ! A19   A(4,7,9)              109.2874         estimate D2E/DX2                !
 ! A20   A(4,7,10)             125.4909         estimate D2E/DX2                !
 ! A21   A(9,7,10)             125.2217         estimate D2E/DX2                !
 ! A22   A(5,8,9)              107.125          estimate D2E/DX2                !
 ! A23   A(5,8,11)             127.0344         estimate D2E/DX2                !
 ! A24   A(9,8,11)             125.8405         estimate D2E/DX2                !
 ! A25   A(7,9,8)              109.5578         estimate D2E/DX2                !
 ! A26   A(7,9,12)             120.4645         estimate D2E/DX2                !
 ! A27   A(8,9,12)             129.9776         estimate D2E/DX2                !
 ! D1    D(6,1,2,3)             -0.0008         estimate D2E/DX2                !
 ! D2    D(6,1,2,13)          -179.9981         estimate D2E/DX2                !
 ! D3    D(15,1,2,3)           179.996          estimate D2E/DX2                !
 ! D4    D(15,1,2,13)           -0.0013         estimate D2E/DX2                !
 ! D5    D(2,1,6,5)             -0.0018         estimate D2E/DX2                !
 ! D6    D(2,1,6,16)           179.9965         estimate D2E/DX2                !
 ! D7    D(15,1,6,5)          -179.9986         estimate D2E/DX2                !
 ! D8    D(15,1,6,16)           -0.0003         estimate D2E/DX2                !
 ! D9    D(1,2,3,4)              0.002          estimate D2E/DX2                !
 ! D10   D(1,2,3,14)          -179.9968         estimate D2E/DX2                !
 ! D11   D(13,2,3,4)           179.9992         estimate D2E/DX2                !
 ! D12   D(13,2,3,14)            0.0005         estimate D2E/DX2                !
 ! D13   D(2,3,4,5)             -0.0005         estimate D2E/DX2                !
 ! D14   D(2,3,4,7)           -179.9911         estimate D2E/DX2                !
 ! D15   D(14,3,4,5)           179.9982         estimate D2E/DX2                !
 ! D16   D(14,3,4,7)             0.0076         estimate D2E/DX2                !
 ! D17   D(3,4,5,6)             -0.002          estimate D2E/DX2                !
 ! D18   D(3,4,5,8)           -179.9955         estimate D2E/DX2                !
 ! D19   D(7,4,5,6)            179.9905         estimate D2E/DX2                !
 ! D20   D(7,4,5,8)             -0.003          estimate D2E/DX2                !
 ! D21   D(3,4,7,9)           -179.98           estimate D2E/DX2                !
 ! D22   D(3,4,7,10)            -0.0649         estimate D2E/DX2                !
 ! D23   D(5,4,7,9)              0.0284         estimate D2E/DX2                !
 ! D24   D(5,4,7,10)           179.9434         estimate D2E/DX2                !
 ! D25   D(4,5,6,1)              0.0031         estimate D2E/DX2                !
 ! D26   D(4,5,6,16)          -179.9951         estimate D2E/DX2                !
 ! D27   D(8,5,6,1)            179.9944         estimate D2E/DX2                !
 ! D28   D(8,5,6,16)            -0.0038         estimate D2E/DX2                !
 ! D29   D(4,5,8,9)             -0.0234         estimate D2E/DX2                !
 ! D30   D(4,5,8,11)           179.9883         estimate D2E/DX2                !
 ! D31   D(6,5,8,9)            179.9846         estimate D2E/DX2                !
 ! D32   D(6,5,8,11)            -0.0037         estimate D2E/DX2                !
 ! D33   D(4,7,9,8)             -0.0444         estimate D2E/DX2                !
 ! D34   D(4,7,9,12)           179.9847         estimate D2E/DX2                !
 ! D35   D(10,7,9,8)          -179.9597         estimate D2E/DX2                !
 ! D36   D(10,7,9,12)            0.0693         estimate D2E/DX2                !
 ! D37   D(5,8,9,7)              0.0414         estimate D2E/DX2                !
 ! D38   D(5,8,9,12)          -179.9913         estimate D2E/DX2                !
 ! D39   D(11,8,9,7)          -179.9702         estimate D2E/DX2                !
 ! D40   D(11,8,9,12)           -0.0029         estimate D2E/DX2                !
 --------------------------------------------------------------------------------
 Trust Radius=3.00D-01 FncErr=1.00D-07 GrdErr=1.00D-06 EigMax=2.50D+02 EigMin=1.00D-04
 Number of steps in this run=     94 maximum allowed number of steps=    100.
 GradGradGradGradGradGradGradGradGradGradGradGradGradGradGradGradGradGrad

                          Input orientation:                          
 ---------------------------------------------------------------------
 Center     Atomic      Atomic             Coordinates (Angstroms)
 Number     Number       Type             X           Y           Z
 ---------------------------------------------------------------------
      1          6           0       -2.151063    0.689208    0.000088
      2          6           0       -2.127927   -0.715818    0.000075
      3          6           0       -0.932297   -1.413100   -0.000011
      4          6           0        0.246911   -0.670201   -0.000042
      5          6           0        0.248193    0.748299    0.000000
      6          6           0       -0.979474    1.423526    0.000032
      7          7           0        1.561774   -1.077592   -0.000285
      8          6           0        1.620133    1.162900   -0.000157
      9          6           0        2.382013    0.030806    0.000248
     10          1           0        1.876315   -2.030011    0.000438
     11          1           0        1.992173    2.173010   -0.000348
     12          1           0        3.452549   -0.082425    0.000408
     13          1           0       -3.061594   -1.262020    0.000088
     14          1           0       -0.917252   -2.495342   -0.000073
     15          1           0       -3.104203    1.200785    0.000090
     16          1           0       -1.009348    2.505421   -0.000015
 ---------------------------------------------------------------------
                    Distance matrix (angstroms):
                    1          2          3          4          5
     1  C    0.000000
     2  C    1.405216   0.000000
     3  C    2.430039   1.384100   0.000000
     4  C    2.756496   2.375276   1.393711   0.000000
     5  C    2.399984   2.790983   2.462763   1.418501   0.000000
     6  C    1.382694   2.428114   2.837018   2.426461   1.401106
     7  N    4.111781   3.707395   2.516536   1.376529   2.249305
     8  C    3.800829   4.192557   3.626386   2.290414   1.433218
     9  C    4.580641   4.571324   3.615178   2.247236   2.251218
    10  H    4.859416   4.214387   2.875566   2.122273   3.220216
    11  H    4.400917   5.031953   4.627387   3.336134   2.251948
    12  H    5.656491   5.616307   4.582311   3.259079   3.310287
    13  H    2.153220   1.081698   2.134650   3.361020   3.872476
    14  H    3.415208   2.152310   1.082347   2.164813   3.446661
    15  H    1.081752   2.150926   3.398466   3.838040   3.382795
    16  H    2.145261   3.409927   3.919278   3.415079   2.160761
                    6          7          8          9         10
     6  C    0.000000
     7  N    3.565604   0.000000
     8  C    2.612639   2.241252   0.000000
     9  C    3.638580   1.378890   1.364587   0.000000
    10  H    4.481345   1.003015   3.203172   2.121956   0.000000
    11  H    3.064704   3.278972   1.076446   2.177387   4.204618
    12  H    4.680888   2.136677   2.215532   1.076508   2.505515
    13  H    3.398144   4.627045   5.272457   5.595021   4.997275
    14  H    3.919362   2.855798   4.452085   4.155307   2.832058
    15  H    2.136372   5.192528   4.724488   5.609583   5.936632
    16  H    1.082307   4.410062   2.952378   4.198220   5.375611
                   11         12         13         14         15
    11  H    0.000000
    12  H    2.686947   0.000000
    13  H    6.110646   6.620083   0.000000
    14  H    5.500751   4.991726   2.473719   0.000000
    15  H    5.188282   6.681139   2.463174   4.294661   0.000000
    16  H    3.019872   5.158049   4.290143   5.001611   2.467892
                   16
    16  H    0.000000
 Stoichiometry    C8H7N
 Framework group  C1[X(C8H7N)]
 Deg. of freedom    42
 Full point group                 C1      NOp   1
 Largest Abelian subgroup         C1      NOp   1
 Largest concise Abelian subgroup C1      NOp   1
                         Standard orientation:                         
 ---------------------------------------------------------------------
 Center     Atomic      Atomic             Coordinates (Angstroms)
 Number     Number       Type             X           Y           Z
 ---------------------------------------------------------------------
      1          6           0       -2.151063    0.689208    0.000088
      2          6           0       -2.127927   -0.715818    0.000075
      3          6           0       -0.932297   -1.413100   -0.000011
      4          6           0        0.246911   -0.670201   -0.000042
      5          6           0        0.248193    0.748299    0.000000
      6          6           0       -0.979474    1.423526    0.000032
      7          7           0        1.561774   -1.077592   -0.000285
      8          6           0        1.620133    1.162900   -0.000157
      9          6           0        2.382013    0.030806    0.000248
     10          1           0        1.876315   -2.030011    0.000438
     11          1           0        1.992173    2.173010   -0.000348
     12          1           0        3.452549   -0.082425    0.000408
     13          1           0       -3.061594   -1.262020    0.000088
     14          1           0       -0.917252   -2.495342   -0.000073
     15          1           0       -3.104203    1.200785    0.000090
     16          1           0       -1.009348    2.505421   -0.000015
 ---------------------------------------------------------------------
 Rotational constants (GHZ):           3.9080822           1.6429452           1.1566805
 Standard basis: 6-31+G(d) (6D, 7F)
 There are   185 symmetry adapted cartesian basis functions of A   symmetry.
 There are   185 symmetry adapted basis functions of A   symmetry.
   185 basis functions,   316 primitive gaussians,   185 cartesian basis functions
    31 alpha electrons       31 beta electrons
       nuclear repulsion energy       401.3368668897 Hartrees.
 NAtoms=   16 NActive=   16 NUniq=   16 SFac= 1.00D+00 NAtFMM=   60 NAOKFM=F Big=F
 Integral buffers will be    131072 words long.
 Regular integral format.
 Two-electron integral symmetry is turned on.
 R6APFD:  NTU= -4 IXU= 1 FactS= 1.050
 Nuclear repulsion after empirical dispersion term =      401.3295037918 Hartrees.
 One-electron integrals computed using PRISM.
 NBasis=   185 RedAO= T EigKep=  1.26D-06  NBF=   185
 NBsUse=   185 1.00D-06 EigRej= -1.00D+00 NBFU=   185
 ExpMin= 4.38D-02 ExpMax= 4.17D+03 ExpMxC= 6.27D+02 IAcc=3 IRadAn=         5 AccDes= 0.00D+00
 Harris functional with IExCor= 3731 and IRadAn=       5 diagonalized for initial guess.
 HarFok:  IExCor= 3731 AccDes= 0.00D+00 IRadAn=         5 IDoV= 1 UseB2=F ITyADJ=14
 ICtDFT=  3500011 ScaDFX=  1.000000  1.000000  1.000000  1.000000
 FoFCou: FMM=F IPFlag=           0 FMFlag=      100000 FMFlg1=           0
         NFxFlg=           0 DoJE=T BraDBF=F KetDBF=T FulRan=T
         wScrn=  0.000000 ICntrl=       500 IOpCl=  0 I1Cent=   200000004 NGrid=           0
         NMat0=    1 NMatS0=      1 NMatT0=    0 NMatD0=    1 NMtDS0=    0 NMtDT0=    0
 Petite list used in FoFCou.
 Keep R1 ints in memory in canonical form, NReq=152071459.
 Requested convergence on RMS density matrix=1.00D-08 within 128 cycles.
 Requested convergence on MAX density matrix=1.00D-06.
 Requested convergence on             energy=1.00D-06.
 No special actions if energy rises.
 SCF Done:  E(RAPFD) =  -363.529671794     A.U. after   14 cycles
            NFock= 14  Conv=0.47D-08     -V/T= 2.0089
 DoSCS=F DFT=T ScalE2(SS,OS)=  1.000000  1.000000
 ExpMin= 4.38D-02 ExpMax= 4.17D+03 ExpMxC= 6.27D+02 IAcc=3 IRadAn=         5 AccDes= 0.00D+00
 HarFok:  IExCor=  205 AccDes= 0.00D+00 IRadAn=         5 IDoV=-2 UseB2=F ITyADJ=14
 ICtDFT= 12500011 ScaDFX=  1.000000  1.000000  1.000000  1.000000
 Range of M.O.s used for correlation:    10   185
 NBasis=   185 NAE=    31 NBE=    31 NFC=     9 NFV=     0
 NROrb=    176 NOA=    22 NOB=    22 NVA=   154 NVB=   154

 **** Warning!!: The largest alpha MO coefficient is  0.17258468D+03

 Orbital symmetries:
       Occupied  (A) (A) (A) (A) (A) (A) (A) (A) (A) (A) (A) (A)
                 (A) (A) (A) (A) (A) (A) (A) (A) (A) (A) (A) (A)
                 (A) (A) (A) (A) (A) (A) (A)
       Virtual   (A) (A) (A) (A) (A) (A) (A) (A) (A) (A) (A) (A)
                 (A) (A) (A) (A) (A) (A) (A) (A) (A) (A) (A) (A)
                 (A) (A) (A) (A) (A) (A) (A) (A) (A) (A) (A) (A)
                 (A) (A) (A) (A) (A) (A) (A) (A) (A) (A) (A) (A)
                 (A) (A) (A) (A) (A) (A) (A) (A) (A) (A) (A) (A)
                 (A) (A) (A) (A) (A) (A) (A) (A) (A) (A) (A) (A)
                 (A) (A) (A) (A) (A) (A) (A) (A) (A) (A) (A) (A)
                 (A) (A) (A) (A) (A) (A) (A) (A) (A) (A) (A) (A)
                 (A) (A) (A) (A) (A) (A) (A) (A) (A) (A) (A) (A)
                 (A) (A) (A) (A) (A) (A) (A) (A) (A) (A) (A) (A)
                 (A) (A) (A) (A) (A) (A) (A) (A) (A) (A) (A) (A)
                 (A) (A) (A) (A) (A) (A) (A) (A) (A) (A) (A) (A)
                 (A) (A) (A) (A) (A) (A) (A) (A) (A) (A)
    24 initial guesses have been made.
 Convergence on wavefunction:    0.000001000000000
 Iteration     1 Dimension    24 NMult     0 NNew     24
 CISAX will form    24 AO SS matrices at one time.
 New state      1 was old state      3
 New state      3 was old state      1
 New state      4 was old state      5
 New state      5 was old state      6
 New state      6 was old state      7
 Iteration     2 Dimension    36 NMult    24 NNew     12
 New state      1 was old state      3
 New state      3 was old state      1
 Iteration     3 Dimension    48 NMult    36 NNew     12
 Iteration     4 Dimension    60 NMult    48 NNew     12
 Iteration     5 Dimension    72 NMult    60 NNew     12
 Iteration     6 Dimension    84 NMult    72 NNew     12
 Iteration     7 Dimension    96 NMult    84 NNew     12
 Iteration     8 Dimension   108 NMult    96 NNew     12
 Iteration     9 Dimension   118 NMult   108 NNew     10
 Iteration    10 Dimension   122 NMult   118 NNew      4
 Iteration    11 Dimension   126 NMult   122 NNew      4
 ***********************************************************************
 Excited states from <AA,BB:AA,BB> singles matrix:
 ***********************************************************************
 
 Ground to excited state transition densities written to RWF  633
 Ground to excited state transition electric dipole moments (Au):
       state          X           Y           Z        Dip. S.      Osc.
         1        -0.5342      0.6272     -0.0002      0.6788      0.0807
         2        -0.5560     -0.0946     -0.0002      0.3181      0.0389
         3         0.0008     -0.0004     -0.1277      0.0163      0.0021
         4        -0.0004      0.0001     -0.1406      0.0198      0.0027
         5         0.0005     -0.0000      0.0190      0.0004      0.0001
         6         0.0007      0.0003      0.1050      0.0110      0.0016
 Ground to excited state transition velocity dipole moments (Au):
       state          X           Y           Z        Dip. S.      Osc.
         1         0.0864     -0.1211      0.0000      0.0221      0.0827
         2         0.0963      0.0179      0.0000      0.0096      0.0348
         3        -0.0001      0.0001      0.0158      0.0002      0.0009
         4         0.0001     -0.0000      0.0304      0.0009      0.0030
         5        -0.0001      0.0000     -0.0029      0.0000      0.0000
         6        -0.0001     -0.0000     -0.0224      0.0005      0.0016
 Ground to excited state transition magnetic dipole moments (Au):
       state          X           Y           Z
         1         0.0003     -0.0000      0.1804
         2        -0.0000     -0.0002     -0.0259
         3         0.1231     -0.0694      0.0001
         4         0.0530     -0.2349     -0.0000
         5         0.3122     -0.1306      0.0002
         6         0.0988      0.3650      0.0006
 Ground to excited state transition velocity quadrupole moments (Au):
       state          XX          YY          ZZ          XY          XZ          YZ
         1         0.1913     -0.1086      0.0099      0.0460      0.0001      0.0001
         2         0.0763     -0.1145      0.0253      0.0017      0.0001     -0.0000
         3        -0.0003      0.0001      0.0001      0.0000      0.0606      0.0546
         4        -0.0000      0.0000     -0.0000     -0.0000      0.1655     -0.0050
         5        -0.0002     -0.0000      0.0000      0.0002      0.1657      0.2635
         6         0.0001     -0.0001      0.0001      0.0003     -0.3240      0.0061
 <0|del|b> * <b|rxdel|0> + <0|del|b> * <b|delr+rdel|0>
 Rotatory Strengths (R) in cgs (10**-40 erg-esu-cm/Gauss)
       state          XX          YY          ZZ    R(velocity)    E-M Angle
         1         0.0432      0.0678      0.0223      0.0444       90.00
         2        -0.0130     -0.0049     -0.0017     -0.0065       90.00
         3        -0.0187     -0.0449     -0.0194     -0.0277       90.00
         4         0.0133      0.0081      0.0119      0.0111       90.00
         5        -0.0032     -0.1081     -0.0090     -0.0401       90.00
         6        -0.0783     -0.0361     -0.0252     -0.0465       90.00
 1/2[<0|r|b>*<b|rxdel|0> + (<0|rxdel|b>*<b|r|0>)*]
 Rotatory Strengths (R) in cgs (10**-40 erg-esu-cm/Gauss)
       state          XX          YY          ZZ     R(length)
         1         0.1083      0.0201      0.0193      0.0493
         2        -0.0021     -0.0147     -0.0029     -0.0065
         3        -0.0731     -0.0213      0.0080     -0.0288
         4         0.0163      0.0150     -0.0006      0.0102
         5        -0.1211     -0.0010     -0.0033     -0.0418
         6        -0.0504     -0.0647     -0.0421     -0.0524
  1/2[<0|del|b>*<b|r|0> + (<0|r|b>*<b|del|0>)*] (Au)
       state          X           Y           Z        Dip. S.   Osc.(frdel)
         1        -0.0461     -0.0760     -0.0000      0.1221      0.0814
         2        -0.0535     -0.0017     -0.0000      0.0552      0.0368
         3        -0.0000     -0.0000     -0.0020      0.0020      0.0013
         4        -0.0000     -0.0000     -0.0043      0.0043      0.0029
         5        -0.0000     -0.0000     -0.0001      0.0001      0.0000
         6        -0.0000     -0.0000     -0.0024      0.0024      0.0016

 Excitation energies and oscillator strengths:
 
 Excited State   1:      Singlet-A      4.8538 eV  255.44 nm  f=0.0807  <S**2>=0.000
      30 -> 32        -0.14553
      30 -> 34         0.15438
      31 -> 32         0.66078
 
 Excited State   2:      Singlet-A      4.9922 eV  248.36 nm  f=0.0389  <S**2>=0.000
      30 -> 32         0.56231
      31 -> 32         0.12547
      31 -> 34        -0.39945
 
 Excited State   3:      Singlet-A      5.1504 eV  240.73 nm  f=0.0021  <S**2>=0.000
      31 -> 33         0.70305
 This state for optimization and/or second-order correction.
 Total Energy, E(TD-HF/TD-DFT) =  -363.340399847    
 Copying the excited state density for this state as the 1-particle RhoCI density.
 
 Excited State   4:      Singlet-A      5.6253 eV  220.40 nm  f=0.0027  <S**2>=0.000
      30 -> 33         0.68846
      31 -> 35         0.12839
 
 Excited State   5:      Singlet-A      5.7301 eV  216.37 nm  f=0.0001  <S**2>=0.000
      30 -> 33        -0.13100
      31 -> 35         0.68832
 
 Excited State   6:      Singlet-A      5.8466 eV  212.06 nm  f=0.0016  <S**2>=0.000
      31 -> 36         0.69611
 SavETr:  write IOETrn=   770 NScale= 10 NData=  16 NLR=1 NState=    6 LETran=     118.
          IDoAtm=1111111111111111
          Differentiating once with respect to electric field.
                with respect to dipole field.
          Differentiating once with respect to nuclear coordinates.
 Keep R1 ints in memory in canonical form, NReq=152083851.
          There are     1 degrees of freedom in the 1st order CPHF.  IDoFFX=0 NUNeed=     1.
 LinEq1:  Iter=  0 NonCon=     1 RMS=1.19D-02 Max=2.88D-01 NDo=     1
 AX will form     1 AO Fock derivatives at one time.
 LinEq1:  Iter=  1 NonCon=     1 RMS=6.02D-03 Max=1.28D-01 NDo=     1
 LinEq1:  Iter=  2 NonCon=     1 RMS=4.32D-03 Max=1.02D-01 NDo=     1
 LinEq1:  Iter=  3 NonCon=     1 RMS=1.88D-03 Max=5.43D-02 NDo=     1
 LinEq1:  Iter=  4 NonCon=     1 RMS=1.13D-03 Max=1.91D-02 NDo=     1
 LinEq1:  Iter=  5 NonCon=     1 RMS=4.65D-04 Max=1.38D-02 NDo=     1
 LinEq1:  Iter=  6 NonCon=     1 RMS=3.66D-04 Max=8.67D-03 NDo=     1
 LinEq1:  Iter=  7 NonCon=     1 RMS=1.15D-04 Max=2.81D-03 NDo=     1
 LinEq1:  Iter=  8 NonCon=     1 RMS=9.33D-05 Max=2.55D-03 NDo=     1
 LinEq1:  Iter=  9 NonCon=     1 RMS=2.80D-05 Max=6.35D-04 NDo=     1
 LinEq1:  Iter= 10 NonCon=     1 RMS=1.83D-05 Max=5.75D-04 NDo=     1
 LinEq1:  Iter= 11 NonCon=     1 RMS=8.36D-06 Max=2.67D-04 NDo=     1
 LinEq1:  Iter= 12 NonCon=     1 RMS=3.86D-06 Max=1.05D-04 NDo=     1
 LinEq1:  Iter= 13 NonCon=     1 RMS=1.72D-06 Max=1.88D-05 NDo=     1
 LinEq1:  Iter= 14 NonCon=     1 RMS=4.85D-07 Max=9.48D-06 NDo=     1
 LinEq1:  Iter= 15 NonCon=     1 RMS=2.51D-07 Max=5.11D-06 NDo=     1
 LinEq1:  Iter= 16 NonCon=     1 RMS=8.61D-08 Max=1.17D-06 NDo=     1
 LinEq1:  Iter= 17 NonCon=     1 RMS=1.65D-08 Max=2.15D-07 NDo=     1
 LinEq1:  Iter= 18 NonCon=     1 RMS=4.73D-09 Max=9.73D-08 NDo=     1
 LinEq1:  Iter= 19 NonCon=     1 RMS=2.86D-09 Max=3.69D-08 NDo=     1
 LinEq1:  Iter= 20 NonCon=     1 RMS=7.27D-10 Max=9.47D-09 NDo=     1
 LinEq1:  Iter= 21 NonCon=     1 RMS=1.23D-10 Max=1.28D-09 NDo=     1
 LinEq1:  Iter= 22 NonCon=     0 RMS=2.87D-11 Max=3.15D-10 NDo=     1
 Linear equations converged to 1.000D-10 1.000D-09 after    22 iterations.
 End of Minotr F.D. properties file   721 does not exist.
 End of Minotr F.D. properties file   722 does not exist.
 End of Minotr F.D. properties file   788 does not exist.

 **********************************************************************

            Population analysis using the CI Density.

 **********************************************************************

 Orbital symmetries:
       Occupied  (A) (A) (A) (A) (A) (A) (A) (A) (A) (A) (A) (A)
                 (A) (A) (A) (A) (A) (A) (A) (A) (A) (A) (A) (A)
                 (A) (A) (A) (A) (A) (A) (A)
       Virtual   (A) (A) (A) (A) (A) (A) (A) (A) (A) (A) (A) (A)
                 (A) (A) (A) (A) (A) (A) (A) (A) (A) (A) (A) (A)
                 (A) (A) (A) (A) (A) (A) (A) (A) (A) (A) (A) (A)
                 (A) (A) (A) (A) (A) (A) (A) (A) (A) (A) (A) (A)
                 (A) (A) (A) (A) (A) (A) (A) (A) (A) (A) (A) (A)
                 (A) (A) (A) (A) (A) (A) (A) (A) (A) (A) (A) (A)
                 (A) (A) (A) (A) (A) (A) (A) (A) (A) (A) (A) (A)
                 (A) (A) (A) (A) (A) (A) (A) (A) (A) (A) (A) (A)
                 (A) (A) (A) (A) (A) (A) (A) (A) (A) (A) (A) (A)
                 (A) (A) (A) (A) (A) (A) (A) (A) (A) (A) (A) (A)
                 (A) (A) (A) (A) (A) (A) (A) (A) (A) (A) (A) (A)
                 (A) (A) (A) (A) (A) (A) (A) (A) (A) (A) (A) (A)
                 (A) (A) (A) (A) (A) (A) (A) (A) (A) (A)
 The electronic state is 1-A.
 Alpha  occ. eigenvalues --  -14.42116 -10.24728 -10.24538 -10.21513 -10.21124
 Alpha  occ. eigenvalues --  -10.20971 -10.20964 -10.20459 -10.20233  -1.00531
 Alpha  occ. eigenvalues --   -0.85993  -0.80223  -0.75386  -0.73534  -0.64053
 Alpha  occ. eigenvalues --   -0.61066  -0.59700  -0.55445  -0.49596  -0.48358
 Alpha  occ. eigenvalues --   -0.44944  -0.44071  -0.43528  -0.42235  -0.40260
 Alpha  occ. eigenvalues --   -0.36507  -0.34616  -0.34440  -0.28962  -0.23270
 Alpha  occ. eigenvalues --   -0.21571
 Alpha virt. eigenvalues --   -0.01450   0.00674   0.02216   0.02535   0.03119
 Alpha virt. eigenvalues --    0.04642   0.04740   0.05114   0.06779   0.06958
 Alpha virt. eigenvalues --    0.07535   0.07574   0.09470   0.09778   0.11597
 Alpha virt. eigenvalues --    0.11618   0.12036   0.13503   0.14424   0.14790
 Alpha virt. eigenvalues --    0.16304   0.16616   0.17487   0.17560   0.17972
 Alpha virt. eigenvalues --    0.18836   0.19544   0.19808   0.20572   0.20708
 Alpha virt. eigenvalues --    0.20950   0.21126   0.22700   0.23282   0.23955
 Alpha virt. eigenvalues --    0.24480   0.24621   0.25417   0.26478   0.26898
 Alpha virt. eigenvalues --    0.27957   0.28108   0.28675   0.30499   0.30996
 Alpha virt. eigenvalues --    0.31787   0.32495   0.34091   0.35972   0.37538
 Alpha virt. eigenvalues --    0.38716   0.40792   0.44336   0.45880   0.52305
 Alpha virt. eigenvalues --    0.59069   0.63576   0.68540   0.68545   0.71084
 Alpha virt. eigenvalues --    0.72737   0.73262   0.74143   0.74850   0.75360
 Alpha virt. eigenvalues --    0.76481   0.76916   0.78955   0.80416   0.81192
 Alpha virt. eigenvalues --    0.82598   0.86526   0.90565   0.91282   0.92446
 Alpha virt. eigenvalues --    0.94746   0.95472   0.96376   0.97155   0.99509
 Alpha virt. eigenvalues --    1.01450   1.04191   1.05852   1.07546   1.10420
 Alpha virt. eigenvalues --    1.12291   1.12628   1.18074   1.18907   1.21467
 Alpha virt. eigenvalues --    1.23435   1.24005   1.26197   1.32595   1.32799
 Alpha virt. eigenvalues --    1.34642   1.37862   1.42025   1.42708   1.46206
 Alpha virt. eigenvalues --    1.46614   1.47310   1.50411   1.50979   1.54906
 Alpha virt. eigenvalues --    1.59927   1.65966   1.79628   1.85454   1.89390
 Alpha virt. eigenvalues --    1.90044   1.93253   1.95359   2.00581   2.00851
 Alpha virt. eigenvalues --    2.01429   2.07432   2.11105   2.15311   2.18336
 Alpha virt. eigenvalues --    2.18394   2.20977   2.25871   2.27065   2.27586
 Alpha virt. eigenvalues --    2.29735   2.32624   2.39172   2.41957   2.45856
 Alpha virt. eigenvalues --    2.56084   2.56993   2.64994   2.67159   2.68190
 Alpha virt. eigenvalues --    2.71345   2.74992   2.82362   2.86093   2.87213
 Alpha virt. eigenvalues --    2.96921   2.99410   3.12760   3.25812   3.46396
 Alpha virt. eigenvalues --    4.17079   4.28241   4.31217   4.34687   4.38268
 Alpha virt. eigenvalues --    4.41812   4.50151   4.54072   4.81069
          Condensed to atoms (all electrons):
               1          2          3          4          5          6
     1  C   26.256747   7.243359  -1.986589 -20.001110  -9.322047 -14.533946
     2  C    7.243359  27.639587   6.257332 -29.510801  12.062334 -29.255356
     3  C   -1.986589   6.257332  23.761279  -7.411203  -0.050231 -15.747812
     4  C  -20.001110 -29.510801  -7.411203 108.232347 -30.100092  38.491897
     5  C   -9.322047  12.062334  -0.050231 -30.100092  94.969631 -31.150951
     6  C  -14.533946 -29.255356 -15.747812  38.491897 -31.150951  70.046772
     7  N   -0.344355  -0.596151   1.326828   5.762093  -5.106093   1.090688
     8  C   29.070563  20.397443  -3.556995-107.051404 -45.831254 -16.221698
     9  C  -10.649644  -7.770325   3.334143  48.404962  18.593887   3.328226
    10  H   -0.003544  -0.053274  -0.649762  -0.153218   1.104784   0.046069
    11  H    0.004568   0.002582   0.003765   0.010261   0.009029  -0.005475
    12  H    0.006798   0.002222   0.035293   0.100002  -0.253609   0.012021
    13  H    0.088646   0.133858  -0.003163   0.092906  -0.067852   0.072923
    14  H   -0.017531   0.101059   0.037211   0.103626   0.093466  -0.004309
    15  H    0.287187   0.132348   0.033105  -0.081458   0.067843  -0.152806
    16  H    0.021214  -0.028317  -0.030077   0.034373   0.128189   0.255627
               7          8          9         10         11         12
     1  C   -0.344355  29.070563 -10.649644  -0.003544   0.004568   0.006798
     2  C   -0.596151  20.397443  -7.770325  -0.053274   0.002582   0.002222
     3  C    1.326828  -3.556995   3.334143  -0.649762   0.003765   0.035293
     4  C    5.762093-107.051404  48.404962  -0.153218   0.010261   0.100002
     5  C   -5.106093 -45.831254  18.593887   1.104784   0.009029  -0.253609
     6  C    1.090688 -16.221698   3.328226   0.046069  -0.005475   0.012021
     7  N   12.933471 -21.347582  13.390266  -0.761689   0.003748  -0.075799
     8  C  -21.347582 301.083337-148.389955   2.009614   0.299982   0.650590
     9  C   13.390266-148.389955  84.354761  -1.365310  -0.020185  -0.147771
    10  H   -0.761689   2.009614  -1.365310   0.438309  -0.000020   0.002341
    11  H    0.003748   0.299982  -0.020185  -0.000020   0.427007  -0.000758
    12  H   -0.075799   0.650590  -0.147771   0.002341  -0.000758   0.372472
    13  H    0.002073  -0.021261   0.009956  -0.000017   0.000000  -0.000000
    14  H   -0.014262   0.009418   0.001521   0.000982   0.000001   0.000002
    15  H   -0.000296   0.034388  -0.007195   0.000001  -0.000001  -0.000000
    16  H   -0.000029  -0.126131   0.038219  -0.000001   0.001133  -0.000002
              13         14         15         16
     1  C    0.088646  -0.017531   0.287187   0.021214
     2  C    0.133858   0.101059   0.132348  -0.028317
     3  C   -0.003163   0.037211   0.033105  -0.030077
     4  C    0.092906   0.103626  -0.081458   0.034373
     5  C   -0.067852   0.093466   0.067843   0.128189
     6  C    0.072923  -0.004309  -0.152806   0.255627
     7  N    0.002073  -0.014262  -0.000296  -0.000029
     8  C   -0.021261   0.009418   0.034388  -0.126131
     9  C    0.009956   0.001521  -0.007195   0.038219
    10  H   -0.000017   0.000982   0.000001  -0.000001
    11  H    0.000000   0.000001  -0.000001   0.001133
    12  H   -0.000000   0.000002  -0.000000  -0.000002
    13  H    0.454647  -0.003127  -0.003699  -0.000115
    14  H   -0.003127   0.406761  -0.000102   0.000013
    15  H   -0.003699  -0.000102   0.463297  -0.003532
    16  H   -0.000115   0.000013  -0.003532   0.464207
 Mulliken charges:
               1
     1  C   -0.120315
     2  C   -0.757900
     3  C    0.646878
     4  C   -0.923180
     5  C    0.852966
     6  C   -0.271868
     7  N    0.737091
     8  C   -5.009056
     9  C    2.894445
    10  H    0.384734
    11  H    0.264363
    12  H    0.296198
    13  H    0.244224
    14  H    0.285270
    15  H    0.230922
    16  H    0.245228
 Sum of Mulliken charges =  -0.00000
 Mulliken charges with hydrogens summed into heavy atoms:
               1
     1  C    0.110607
     2  C   -0.513675
     3  C    0.932148
     4  C   -0.923180
     5  C    0.852966
     6  C   -0.026640
     7  N    1.121825
     8  C   -4.744693
     9  C    3.190643
 Electronic spatial extent (au):  <R**2>=           1039.2160
 Charge=             -0.0000 electrons
 Dipole moment (field-independent basis, Debye):
    X=             -6.0211    Y=              6.5904    Z=             -0.0002  Tot=              8.9268
 Quadrupole moment (field-independent basis, Debye-Ang):
   XX=            -63.7533   YY=            -65.5186   ZZ=            -65.1216
   XY=             15.7553   XZ=             -0.0027   YZ=              0.0007
 Traceless Quadrupole moment (field-independent basis, Debye-Ang):
   XX=              1.0445   YY=             -0.7208   ZZ=             -0.3238
   XY=             15.7553   XZ=             -0.0027   YZ=              0.0007
 Octapole moment (field-independent basis, Debye-Ang**2):
  XXX=           -114.8834  YYY=             81.4186  ZZZ=             -0.0053  XYY=            -47.0208
  XXY=             51.1047  XXZ=             -0.0119  XZZ=            -18.3472  YZZ=             18.7424
  YYZ=             -0.0005  XYZ=              0.0065
 Hexadecapole moment (field-independent basis, Debye-Ang**3):
 XXXX=          -1336.4306 YYYY=           -718.8371 ZZZZ=           -133.9080 XXXY=            205.8169
 XXXZ=             -0.0473 YYYX=            140.1769 YYYZ=              0.0053 ZZZX=             -0.0180
 ZZZY=              0.0108 XXYY=           -352.2163 XXZZ=           -248.0556 YYZZ=           -151.6633
 XXYZ=              0.0225 YYXZ=             -0.0266 ZZXY=             35.9244
 N-N= 4.013295037918D+02 E-N=-1.641322502082D+03  KE= 3.602640485101D+02
 R6APFD:  NTU= -4 IXU= 1 FactS= 1.050
 Calling FoFJK, ICntrl=  10005127 FMM=F ISym2X=0 I1Cent= 0 IOpClX= 0 NMat=1 NMatS=1 NMatT=0.
 ***** Axes restored to original set *****
 -------------------------------------------------------------------
 Center     Atomic                   Forces (Hartrees/Bohr)
 Number     Number              X              Y              Z
 -------------------------------------------------------------------
      1        6          -0.012452029   -0.013717622    0.000001347
      2        6          -0.015093929    0.024334207    0.000000532
      3        6           0.029731675   -0.006944533   -0.000012250
      4        6          -0.007908452    0.000093718    0.000000825
      5        6           0.007316546   -0.002280679   -0.000036574
      6        6           0.007945055    0.009062283   -0.000012843
      7        7           0.020121786    0.067526512    0.000085352
      8        6          -0.039925758    0.022481175    0.000043472
      9        6          -0.008867391   -0.069731811   -0.000095050
     10        1           0.014629440   -0.033603965    0.000001854
     11        1           0.002049042    0.005438896    0.000004815
     12        1           0.006423281   -0.004072929    0.000006871
     13        1          -0.002949422   -0.001742940    0.000001109
     14        1           0.002173804   -0.002043527    0.000002194
     15        1          -0.003051559    0.001830952    0.000003580
     16        1          -0.000142088    0.003370262    0.000004768
 -------------------------------------------------------------------
 Cartesian Forces:  Max     0.069731811 RMS     0.018169834

 GradGradGradGradGradGradGradGradGradGradGradGradGradGradGradGradGradGrad
 Berny optimization.
 FormGI is forming the generalized inverse of G from B-inverse, IUseBI=4.
 Internal  Forces:  Max     0.047843700 RMS     0.009283801
 Search for a local minimum.
 Step number   1 out of a maximum of   94
 All quantities printed in internal units (Hartrees-Bohrs-Radians)
 Mixed Optimization -- RFO/linear search
 Second derivative matrix not updated -- first step.
 ITU=  0
     Eigenvalues ---    0.01853   0.01931   0.01986   0.02012   0.02070
     Eigenvalues ---    0.02113   0.02148   0.02153   0.02172   0.02209
     Eigenvalues ---    0.02233   0.02248   0.02338   0.16000   0.16000
     Eigenvalues ---    0.16000   0.16000   0.16000   0.16000   0.16000
     Eigenvalues ---    0.22000   0.22188   0.22662   0.24011   0.24651
     Eigenvalues ---    0.35712   0.35717   0.35783   0.35790   0.36420
     Eigenvalues ---    0.36427   0.37009   0.38432   0.42633   0.43465
     Eigenvalues ---    0.45769   0.46692   0.47162   0.47468   0.47567
     Eigenvalues ---    0.48125   0.50955
 RFO step:  Lambda=-1.50281166D-02 EMin= 1.85287394D-02
 Linear search not attempted -- first point.
 Iteration  1 RMS(Cart)=  0.02759282 RMS(Int)=  0.00014665
 Iteration  2 RMS(Cart)=  0.00018890 RMS(Int)=  0.00002349
 Iteration  3 RMS(Cart)=  0.00000003 RMS(Int)=  0.00002349
 Variable       Old X    -DE/DX   Delta X   Delta X   Delta X     New X
                                 (Linear)    (Quad)   (Total)
    R1        2.65547  -0.00668   0.00000  -0.01311  -0.01311   2.64236
    R2        2.61291   0.01208   0.00000   0.02523   0.02523   2.63814
    R3        2.04421   0.00355   0.00000   0.00953   0.00953   2.05375
    R4        2.61557   0.02742   0.00000   0.05514   0.05513   2.67070
    R5        2.04411   0.00343   0.00000   0.00919   0.00919   2.05330
    R6        2.63373  -0.01160   0.00000  -0.02525  -0.02525   2.60848
    R7        2.04534   0.00207   0.00000   0.00557   0.00557   2.05091
    R8        2.68058  -0.00109   0.00000  -0.00409  -0.00403   2.67655
    R9        2.60126   0.00946   0.00000   0.01534   0.01539   2.61665
   R10        2.64771   0.00635   0.00000   0.01342   0.01342   2.66113
   R11        2.70839  -0.01484   0.00000  -0.03162  -0.03164   2.67675
   R12        2.04526   0.00337   0.00000   0.00906   0.00906   2.05433
   R13        2.60573  -0.04784   0.00000  -0.09593  -0.09596   2.50977
   R14        1.89542   0.03650   0.00000   0.07500   0.07500   1.97042
   R15        2.57870   0.04174   0.00000   0.07985   0.07978   2.65848
   R16        2.03419   0.00581   0.00000   0.01532   0.01532   2.04951
   R17        2.03430   0.00682   0.00000   0.01797   0.01797   2.05228
    A1        2.11420  -0.00530   0.00000  -0.01750  -0.01749   2.09671
    A2        2.07986   0.00283   0.00000   0.00974   0.00974   2.08960
    A3        2.08912   0.00248   0.00000   0.00776   0.00775   2.09688
    A4        2.11523   0.00269   0.00000   0.01435   0.01435   2.12958
    A5        2.08365  -0.00133   0.00000  -0.00709  -0.00709   2.07657
    A6        2.08430  -0.00136   0.00000  -0.00726  -0.00726   2.07704
    A7        2.05144   0.00008   0.00000  -0.00176  -0.00176   2.04968
    A8        2.11267   0.00215   0.00000   0.01342   0.01341   2.12608
    A9        2.11908  -0.00224   0.00000  -0.01165  -0.01166   2.10742
   A10        2.13389  -0.00316   0.00000  -0.01291  -0.01295   2.12094
   A11        2.27895  -0.00341   0.00000  -0.00730  -0.00735   2.27160
   A12        1.87035   0.00657   0.00000   0.02021   0.02030   1.89065
   A13        2.07274   0.00827   0.00000   0.02656   0.02655   2.09929
   A14        1.86517  -0.00766   0.00000  -0.02335  -0.02331   1.84186
   A15        2.34527  -0.00061   0.00000  -0.00321  -0.00324   2.34203
   A16        2.07887  -0.00259   0.00000  -0.00873  -0.00871   2.07016
   A17        2.10306   0.00124   0.00000   0.00408   0.00407   2.10713
   A18        2.10125   0.00134   0.00000   0.00465   0.00464   2.10589
   A19        1.90743   0.00321   0.00000   0.00314   0.00316   1.91059
   A20        2.19023   0.00157   0.00000   0.01659   0.01658   2.20680
   A21        2.18553  -0.00478   0.00000  -0.01973  -0.01974   2.16579
   A22        1.86968  -0.00127   0.00000   0.00387   0.00380   1.87349
   A23        2.21717   0.00068   0.00000  -0.00169  -0.00165   2.21552
   A24        2.19633   0.00059   0.00000  -0.00219  -0.00215   2.19418
   A25        1.91215  -0.00084   0.00000  -0.00388  -0.00396   1.90819
   A26        2.10250  -0.00301   0.00000  -0.01767  -0.01763   2.08487
   A27        2.26854   0.00385   0.00000   0.02155   0.02159   2.29013
    D1       -0.00001   0.00000   0.00000   0.00005   0.00004   0.00003
    D2       -3.14156  -0.00000   0.00000  -0.00001  -0.00001  -3.14157
    D3        3.14152   0.00000   0.00000   0.00009   0.00009  -3.14157
    D4       -0.00002   0.00000   0.00000   0.00004   0.00004   0.00001
    D5       -0.00003  -0.00000   0.00000  -0.00004  -0.00004  -0.00007
    D6        3.14153   0.00000   0.00000   0.00009   0.00009  -3.14157
    D7       -3.14157  -0.00000   0.00000  -0.00009  -0.00009   3.14153
    D8       -0.00001   0.00000   0.00000   0.00004   0.00004   0.00003
    D9        0.00003   0.00000   0.00000   0.00002   0.00002   0.00006
   D10       -3.14154  -0.00000   0.00000  -0.00006  -0.00006   3.14159
   D11        3.14158   0.00000   0.00000   0.00008   0.00008  -3.14153
   D12        0.00001  -0.00000   0.00000  -0.00001  -0.00000   0.00000
   D13       -0.00001  -0.00001   0.00000  -0.00009  -0.00009  -0.00010
   D14       -3.14144  -0.00000   0.00000  -0.00003  -0.00002  -3.14146
   D15        3.14156  -0.00000   0.00000  -0.00001  -0.00001   3.14155
   D16        0.00013   0.00000   0.00000   0.00005   0.00006   0.00019
   D17       -0.00004   0.00001   0.00000   0.00010   0.00010   0.00006
   D18       -3.14151   0.00000   0.00000  -0.00005  -0.00006  -3.14157
   D19        3.14143   0.00000   0.00000   0.00005   0.00004   3.14147
   D20       -0.00005  -0.00000   0.00000  -0.00011  -0.00011  -0.00016
   D21       -3.14124  -0.00001   0.00000  -0.00045  -0.00047   3.14148
   D22       -0.00113   0.00001   0.00000   0.00028   0.00028  -0.00085
   D23        0.00049  -0.00001   0.00000  -0.00040  -0.00041   0.00009
   D24        3.14060   0.00001   0.00000   0.00034   0.00034   3.14095
   D25        0.00005  -0.00000   0.00000  -0.00003  -0.00003   0.00003
   D26       -3.14151  -0.00001   0.00000  -0.00016  -0.00015   3.14152
   D27        3.14150   0.00000   0.00000   0.00017   0.00018  -3.14151
   D28       -0.00007   0.00000   0.00000   0.00005   0.00005  -0.00002
   D29       -0.00041   0.00003   0.00000   0.00060   0.00059   0.00018
   D30        3.14139   0.00001   0.00000   0.00014   0.00013   3.14152
   D31        3.14132   0.00002   0.00000   0.00041   0.00040  -3.14146
   D32       -0.00006   0.00000   0.00000  -0.00005  -0.00005  -0.00012
   D33       -0.00077   0.00003   0.00000   0.00081   0.00080   0.00003
   D34        3.14133   0.00001   0.00000   0.00024   0.00024   3.14156
   D35       -3.14089   0.00000   0.00000   0.00004   0.00004  -3.14085
   D36        0.00121  -0.00002   0.00000  -0.00053  -0.00053   0.00069
   D37        0.00072  -0.00003   0.00000  -0.00084  -0.00085  -0.00013
   D38       -3.14144  -0.00001   0.00000  -0.00022  -0.00022   3.14153
   D39       -3.14107  -0.00001   0.00000  -0.00039  -0.00041  -3.14148
   D40       -0.00005   0.00001   0.00000   0.00023   0.00023   0.00018
         Item               Value     Threshold  Converged?
 Maximum Force            0.047844     0.000450     NO 
 RMS     Force            0.009284     0.000300     NO 
 Maximum Displacement     0.118820     0.001800     NO 
 RMS     Displacement     0.027625     0.001200     NO 
 Predicted change in Energy=-7.759211D-03
 GradGradGradGradGradGradGradGradGradGradGradGradGradGradGradGradGradGrad

                          Input orientation:                          
 ---------------------------------------------------------------------
 Center     Atomic      Atomic             Coordinates (Angstroms)
 Number     Number       Type             X           Y           Z
 ---------------------------------------------------------------------
      1          6           0       -2.176966    0.700630   -0.000009
      2          6           0       -2.127647   -0.696778    0.000010
      3          6           0       -0.903649   -1.403304    0.000023
      4          6           0        0.259655   -0.660281    0.000086
      5          6           0        0.233795    0.755852    0.000015
      6          6           0       -0.995047    1.443602   -0.000050
      7          7           0        1.581828   -1.071585   -0.000025
      8          6           0        1.591397    1.159980    0.000083
      9          6           0        2.376447   -0.007411   -0.000048
     10          1           0        1.924061   -2.056522    0.000534
     11          1           0        1.968779    2.176760   -0.000004
     12          1           0        3.453676   -0.145302   -0.000104
     13          1           0       -3.059012   -1.256395    0.000021
     14          1           0       -0.869170   -2.488052    0.000041
     15          1           0       -3.139176    1.205882    0.000002
     16          1           0       -1.022067    2.530369   -0.000040
 ---------------------------------------------------------------------
                    Distance matrix (angstroms):
                    1          2          3          4          5
     1  C    0.000000
     2  C    1.398278   0.000000
     3  C    2.459243   1.413276   0.000000
     4  C    2.790914   2.387581   1.380348   0.000000
     5  C    2.411393   2.772462   2.440438   1.416370   0.000000
     6  C    1.396045   2.421572   2.848373   2.449612   1.408208
     7  N    4.155633   3.728363   2.507516   1.384671   2.270841
     8  C    3.796257   4.156783   3.577106   2.255413   1.416476
     9  C    4.608134   4.556544   3.564765   2.215186   2.274539
    10  H    4.941692   4.273786   2.902179   2.172496   3.281227
    11  H    4.400701   5.003792   4.589957   3.312085   2.242577
    12  H    5.693833   5.608502   4.535290   3.235271   3.343608
    13  H    2.146614   1.086559   2.160364   3.371780   3.858978
    14  H    3.446451   2.189161   1.085295   2.148253   3.426287
    15  H    1.086797   2.154833   3.435903   3.877450   3.402860
    16  H    2.163732   3.411273   3.935455   3.438468   2.173959
                    6          7          8          9         10
     6  C    0.000000
     7  N    3.600895   0.000000
     8  C    2.601948   2.231585   0.000000
     9  C    3.670478   1.328113   1.406807   0.000000
    10  H    4.557637   1.042701   3.233659   2.098454   0.000000
    11  H    3.053160   3.271311   1.084554   2.221890   4.233518
    12  H    4.723955   2.088496   2.274169   1.086019   2.447955
    13  H    3.398519   4.644519   5.240722   5.577112   5.046903
    14  H    3.933668   2.830861   4.400287   4.085047   2.826369
    15  H    2.157267   5.241635   4.730796   5.647493   6.023259
    16  H    1.087103   4.444586   2.950959   4.241489   5.451535
                   11         12         13         14         15
    11  H    0.000000
    12  H    2.756246   0.000000
    13  H    6.088122   6.606787   0.000000
    14  H    5.460259   4.916856   2.512446   0.000000
    15  H    5.199405   6.729888   2.463581   4.335674   0.000000
    16  H    3.011678   5.214546   4.299851   5.020749   2.497281
                   16
    16  H    0.000000
 Stoichiometry    C8H7N
 Framework group  C1[X(C8H7N)]
 Deg. of freedom    42
 Full point group                 C1      NOp   1
 Largest Abelian subgroup         C1      NOp   1
 Largest concise Abelian subgroup C1      NOp   1
                         Standard orientation:                         
 ---------------------------------------------------------------------
 Center     Atomic      Atomic             Coordinates (Angstroms)
 Number     Number       Type             X           Y           Z
 ---------------------------------------------------------------------
      1          6           0       -2.193271    0.637264   -0.000024
      2          6           0       -2.105699   -0.758270   -0.000005
      3          6           0       -0.862811   -1.431009    0.000008
      4          6           0        0.279708   -0.656406    0.000071
      5          6           0        0.215074    0.758489   -0.000000
      6          6           0       -1.032142    1.412326   -0.000065
      7          7           0        1.612650   -1.031345   -0.000040
      8          6           0        1.561099    1.199645    0.000068
      9          6           0        2.377826    0.054192   -0.000063
     10          1           0        1.981729   -2.006539    0.000519
     11          1           0        1.910493    2.226379   -0.000019
     12          1           0        3.458427   -0.054145   -0.000119
     13          1           0       -3.021389   -1.343183    0.000006
     14          1           0       -0.798637   -2.514405    0.000026
     15          1           0       -3.168957    1.115974   -0.000014
     16          1           0       -1.088916    2.497945   -0.000055
 ---------------------------------------------------------------------
 Rotational constants (GHZ):           3.9071892           1.6381860           1.1542416
 Standard basis: 6-31+G(d) (6D, 7F)
 There are   185 symmetry adapted cartesian basis functions of A   symmetry.
 There are   185 symmetry adapted basis functions of A   symmetry.
   185 basis functions,   316 primitive gaussians,   185 cartesian basis functions
    31 alpha electrons       31 beta electrons
       nuclear repulsion energy       400.8377233344 Hartrees.
 NAtoms=   16 NActive=   16 NUniq=   16 SFac= 1.00D+00 NAtFMM=   60 NAOKFM=F Big=F
 Integral buffers will be    131072 words long.
 Regular integral format.
 Two-electron integral symmetry is turned on.
 R6APFD:  NTU= -4 IXU= 1 FactS= 1.050
 Nuclear repulsion after empirical dispersion term =      400.8302298223 Hartrees.
 One-electron integrals computed using PRISM.
 NBasis=   185 RedAO= T EigKep=  1.19D-06  NBF=   185
 NBsUse=   185 1.00D-06 EigRej= -1.00D+00 NBFU=   185
 Initial guess from the checkpoint file:  "FuncsAPFD-V-3rd.chk"
 B after Tr=     0.000000   -0.000000    0.000000
         Rot=    0.999908    0.000010    0.000009   -0.013550 Ang=   1.55 deg.
 ExpMin= 4.38D-02 ExpMax= 4.17D+03 ExpMxC= 6.27D+02 IAcc=3 IRadAn=         5 AccDes= 0.00D+00
 Harris functional with IExCor= 3731 and IRadAn=       5 diagonalized for initial guess.
 HarFok:  IExCor= 3731 AccDes= 0.00D+00 IRadAn=         5 IDoV= 1 UseB2=F ITyADJ=14
 ICtDFT=  3500011 ScaDFX=  1.000000  1.000000  1.000000  1.000000
 FoFCou: FMM=F IPFlag=           0 FMFlag=      100000 FMFlg1=           0
         NFxFlg=           0 DoJE=T BraDBF=F KetDBF=T FulRan=T
         wScrn=  0.000000 ICntrl=       500 IOpCl=  0 I1Cent=   200000004 NGrid=           0
         NMat0=    1 NMatS0=      1 NMatT0=    0 NMatD0=    1 NMtDS0=    0 NMtDT0=    0
 Petite list used in FoFCou.
 Keep R1 ints in memory in canonical form, NReq=152071459.
 Requested convergence on RMS density matrix=1.00D-08 within 128 cycles.
 Requested convergence on MAX density matrix=1.00D-06.
 Requested convergence on             energy=1.00D-06.
 No special actions if energy rises.
 SCF Done:  E(RAPFD) =  -363.524052752     A.U. after   14 cycles
            NFock= 14  Conv=0.61D-08     -V/T= 2.0093
 DoSCS=F DFT=T ScalE2(SS,OS)=  1.000000  1.000000
 ExpMin= 4.38D-02 ExpMax= 4.17D+03 ExpMxC= 6.27D+02 IAcc=3 IRadAn=         5 AccDes= 0.00D+00
 HarFok:  IExCor=  205 AccDes= 0.00D+00 IRadAn=         5 IDoV=-2 UseB2=F ITyADJ=14
 ICtDFT= 12500011 ScaDFX=  1.000000  1.000000  1.000000  1.000000
 Range of M.O.s used for correlation:    10   185
 NBasis=   185 NAE=    31 NBE=    31 NFC=     9 NFV=     0
 NROrb=    176 NOA=    22 NOB=    22 NVA=   154 NVB=   154

 **** Warning!!: The largest alpha MO coefficient is  0.19722209D+03

 Orbital symmetries:
       Occupied  (A) (A) (A) (A) (A) (A) (A) (A) (A) (A) (A) (A)
                 (A) (A) (A) (A) (A) (A) (A) (A) (A) (A) (A) (A)
                 (A) (A) (A) (A) (A) (A) (A)
       Virtual   (A) (A) (A) (A) (A) (A) (A) (A) (A) (A) (A) (A)
                 (A) (A) (A) (A) (A) (A) (A) (A) (A) (A) (A) (A)
                 (A) (A) (A) (A) (A) (A) (A) (A) (A) (A) (A) (A)
                 (A) (A) (A) (A) (A) (A) (A) (A) (A) (A) (A) (A)
                 (A) (A) (A) (A) (A) (A) (A) (A) (A) (A) (A) (A)
                 (A) (A) (A) (A) (A) (A) (A) (A) (A) (A) (A) (A)
                 (A) (A) (A) (A) (A) (A) (A) (A) (A) (A) (A) (A)
                 (A) (A) (A) (A) (A) (A) (A) (A) (A) (A) (A) (A)
                 (A) (A) (A) (A) (A) (A) (A) (A) (A) (A) (A) (A)
                 (A) (A) (A) (A) (A) (A) (A) (A) (A) (A) (A) (A)
                 (A) (A) (A) (A) (A) (A) (A) (A) (A) (A) (A) (A)
                 (A) (A) (A) (A) (A) (A) (A) (A) (A) (A) (A) (A)
                 (A) (A) (A) (A) (A) (A) (A) (A) (A) (A)
 Generating guess from densities on rwf.
 Convergence on wavefunction:    0.000001000000000
 Iteration     1 Dimension    12 NMult     0 NNew     12
 CISAX will form    12 AO SS matrices at one time.
 New state      4 was old state      5
 New state      5 was old state      6
 New state      6 was old state      4
 Iteration     2 Dimension    24 NMult    12 NNew     12
 New state      2 was old state      3
 New state      3 was old state      2
 Iteration     3 Dimension    36 NMult    24 NNew     12
 Iteration     4 Dimension    48 NMult    36 NNew     12
 Iteration     5 Dimension    60 NMult    48 NNew     12
 Iteration     6 Dimension    72 NMult    60 NNew     12
 Iteration     7 Dimension    84 NMult    72 NNew     12
 Iteration     8 Dimension    96 NMult    84 NNew     12
 Iteration     9 Dimension   108 NMult    96 NNew     12
 Iteration    10 Dimension   118 NMult   108 NNew     10
 Iteration    11 Dimension   124 NMult   118 NNew      6
 ***********************************************************************
 Excited states from <AA,BB:AA,BB> singles matrix:
 ***********************************************************************
 
 Ground to excited state transition densities written to RWF  633
 Ground to excited state transition electric dipole moments (Au):
       state          X           Y           Z        Dip. S.      Osc.
         1        -0.8304      0.5904     -0.0000      1.0381      0.1159
         2        -0.0393     -0.1739      0.0000      0.0318      0.0039
         3         0.0003     -0.0002     -0.1216      0.0148      0.0017
         4         0.0001      0.0000      0.0089      0.0001      0.0000
         5         0.0001     -0.0000      0.1713      0.0293      0.0040
         6        -0.0001     -0.0000     -0.0827      0.0068      0.0010
 Ground to excited state transition velocity dipole moments (Au):
       state          X           Y           Z        Dip. S.      Osc.
         1         0.1281     -0.1084      0.0000      0.0282      0.1121
         2         0.0060      0.0341     -0.0000      0.0012      0.0044
         3        -0.0000      0.0000      0.0139      0.0002      0.0007
         4        -0.0000     -0.0000      0.0010      0.0000      0.0000
         5        -0.0000      0.0000     -0.0333      0.0011      0.0036
         6         0.0000      0.0000      0.0206      0.0004      0.0014
 Ground to excited state transition magnetic dipole moments (Au):
       state          X           Y           Z
         1         0.0000      0.0001      0.1869
         2        -0.0001     -0.0000      0.0994
         3         0.1478     -0.0805      0.0001
         4         0.2846     -0.1833      0.0001
         5         0.0687      0.3701      0.0001
         6        -0.0191     -0.1295     -0.0001
 Ground to excited state transition velocity quadrupole moments (Au):
       state          XX          YY          ZZ          XY          XZ          YZ
         1         0.1854     -0.1395      0.0174      0.0628     -0.0000      0.0000
         2        -0.0253     -0.0511      0.0195      0.0237     -0.0000     -0.0000
         3        -0.0001      0.0000      0.0000      0.0001      0.0577      0.0623
         4         0.0000     -0.0000     -0.0000      0.0000      0.1960      0.2193
         5         0.0000      0.0000      0.0000      0.0001     -0.3243     -0.0140
         6         0.0001     -0.0000     -0.0000     -0.0000      0.0627     -0.0672
 <0|del|b> * <b|rxdel|0> + <0|del|b> * <b|delr+rdel|0>
 Rotatory Strengths (R) in cgs (10**-40 erg-esu-cm/Gauss)
       state          XX          YY          ZZ    R(velocity)    E-M Angle
         1        -0.0186      0.0115     -0.0073     -0.0048       90.00
         2        -0.0023     -0.0018     -0.0023     -0.0021       90.00
         3        -0.0050     -0.0177     -0.0094     -0.0107       90.00
         4         0.0058     -0.0243     -0.0033     -0.0073       90.00
         5        -0.0017     -0.0021     -0.0025     -0.0021       90.00
         6        -0.0054     -0.0050      0.0019     -0.0028       90.00
 1/2[<0|r|b>*<b|rxdel|0> + (<0|rxdel|b>*<b|r|0>)*]
 Rotatory Strengths (R) in cgs (10**-40 erg-esu-cm/Gauss)
       state          XX          YY          ZZ     R(length)
         1         0.0189     -0.0295      0.0016     -0.0030
         2        -0.0025     -0.0024     -0.0025     -0.0024
         3        -0.0297     -0.0129      0.0111     -0.0105
         4        -0.0278      0.0042     -0.0006     -0.0081
         5        -0.0057      0.0048     -0.0085     -0.0031
         6        -0.0020     -0.0002     -0.0036     -0.0019
  1/2[<0|del|b>*<b|r|0> + (<0|r|b>*<b|del|0>)*] (Au)
       state          X           Y           Z        Dip. S.   Osc.(frdel)
         1        -0.1064     -0.0640     -0.0000      0.1704      0.1136
         2        -0.0002     -0.0059     -0.0000      0.0062      0.0041
         3        -0.0000     -0.0000     -0.0017      0.0017      0.0011
         4        -0.0000     -0.0000      0.0000     -0.0000     -0.0000
         5        -0.0000     -0.0000     -0.0057      0.0057      0.0038
         6        -0.0000     -0.0000     -0.0017      0.0017      0.0011

 Excitation energies and oscillator strengths:
 
 Excited State   1:      Singlet-A      4.5564 eV  272.11 nm  f=0.1159  <S**2>=0.000
      30 -> 34         0.12482
      31 -> 32         0.67813
 
 Excited State   2:      Singlet-A      4.9618 eV  249.88 nm  f=0.0039  <S**2>=0.000
      30 -> 32         0.52732
      31 -> 34        -0.45824
 
 Excited State   3:      Singlet-A      4.7471 eV  261.18 nm  f=0.0017  <S**2>=0.000
      31 -> 33         0.70389
 This state for optimization and/or second-order correction.
 Total Energy, E(TD-HF/TD-DFT) =  -363.349599716    
 Copying the excited state density for this state as the 1-particle RhoCI density.
 
 Excited State   4:      Singlet-A      5.4593 eV  227.11 nm  f=0.0000  <S**2>=0.000
      31 -> 35         0.69931
 
 Excited State   5:      Singlet-A      5.5923 eV  221.71 nm  f=0.0040  <S**2>=0.000
      31 -> 36        -0.69309
 
 Excited State   6:      Singlet-A      5.6805 eV  218.26 nm  f=0.0010  <S**2>=0.000
      30 -> 33         0.69700
 SavETr:  write IOETrn=   770 NScale= 10 NData=  16 NLR=1 NState=    6 LETran=     118.
          IDoAtm=1111111111111111
          Differentiating once with respect to electric field.
                with respect to dipole field.
          Differentiating once with respect to nuclear coordinates.
 Keep R1 ints in memory in canonical form, NReq=152083851.
          There are     1 degrees of freedom in the 1st order CPHF.  IDoFFX=0 NUNeed=     1.
 LinEq1:  Iter=  0 NonCon=     1 RMS=1.34D-02 Max=3.58D-01 NDo=     1
 AX will form     1 AO Fock derivatives at one time.
 LinEq1:  Iter=  1 NonCon=     1 RMS=7.15D-03 Max=1.44D-01 NDo=     1
 LinEq1:  Iter=  2 NonCon=     1 RMS=4.92D-03 Max=1.15D-01 NDo=     1
 LinEq1:  Iter=  3 NonCon=     1 RMS=2.47D-03 Max=6.36D-02 NDo=     1
 LinEq1:  Iter=  4 NonCon=     1 RMS=1.49D-03 Max=3.19D-02 NDo=     1
 LinEq1:  Iter=  5 NonCon=     1 RMS=6.35D-04 Max=1.65D-02 NDo=     1
 LinEq1:  Iter=  6 NonCon=     1 RMS=4.54D-04 Max=9.75D-03 NDo=     1
 LinEq1:  Iter=  7 NonCon=     1 RMS=1.62D-04 Max=3.52D-03 NDo=     1
 LinEq1:  Iter=  8 NonCon=     1 RMS=1.20D-04 Max=2.91D-03 NDo=     1
 LinEq1:  Iter=  9 NonCon=     1 RMS=3.91D-05 Max=5.82D-04 NDo=     1
 LinEq1:  Iter= 10 NonCon=     1 RMS=2.93D-05 Max=9.17D-04 NDo=     1
 LinEq1:  Iter= 11 NonCon=     1 RMS=1.04D-05 Max=1.93D-04 NDo=     1
 LinEq1:  Iter= 12 NonCon=     1 RMS=5.37D-06 Max=7.14D-05 NDo=     1
 LinEq1:  Iter= 13 NonCon=     1 RMS=2.10D-06 Max=3.55D-05 NDo=     1
 LinEq1:  Iter= 14 NonCon=     1 RMS=6.88D-07 Max=1.60D-05 NDo=     1
 LinEq1:  Iter= 15 NonCon=     1 RMS=3.70D-07 Max=5.50D-06 NDo=     1
 LinEq1:  Iter= 16 NonCon=     1 RMS=8.54D-08 Max=1.15D-06 NDo=     1
 LinEq1:  Iter= 17 NonCon=     1 RMS=1.67D-08 Max=2.10D-07 NDo=     1
 LinEq1:  Iter= 18 NonCon=     1 RMS=7.12D-09 Max=1.13D-07 NDo=     1
 LinEq1:  Iter= 19 NonCon=     1 RMS=2.77D-09 Max=2.58D-08 NDo=     1
 LinEq1:  Iter= 20 NonCon=     1 RMS=4.94D-10 Max=5.94D-09 NDo=     1
 LinEq1:  Iter= 21 NonCon=     0 RMS=7.81D-11 Max=9.43D-10 NDo=     1
 Linear equations converged to 1.000D-10 1.000D-09 after    21 iterations.
 End of Minotr F.D. properties file   721 does not exist.
 End of Minotr F.D. properties file   722 does not exist.
 End of Minotr F.D. properties file   788 does not exist.
 R6APFD:  NTU= -4 IXU= 1 FactS= 1.050
 Calling FoFJK, ICntrl=  10005127 FMM=F ISym2X=0 I1Cent= 0 IOpClX= 0 NMat=1 NMatS=1 NMatT=0.
 ***** Axes restored to original set *****
 -------------------------------------------------------------------
 Center     Atomic                   Forces (Hartrees/Bohr)
 Number     Number              X              Y              Z
 -------------------------------------------------------------------
      1        6           0.002867028    0.000458475   -0.000006570
      2        6          -0.000296975    0.001064144    0.000003248
      3        6           0.004444008   -0.001386719    0.000003576
      4        6          -0.011357792   -0.007000330   -0.000012679
      5        6           0.010316153    0.002026202    0.000007245
      6        6          -0.002756411    0.001839773    0.000012257
      7        7           0.003767314    0.025877261    0.000018556
      8        6          -0.012239964    0.014838426   -0.000029680
      9        6          -0.004347204   -0.021756802    0.000009516
     10        1           0.006127190   -0.014725325   -0.000011284
     11        1           0.000963767   -0.000409426    0.000004058
     12        1           0.002079082    0.000180304    0.000004376
     13        1           0.000469499   -0.000947850    0.000000164
     14        1          -0.001005899    0.000242829   -0.000000401
     15        1           0.000531333    0.000088001   -0.000001267
     16        1           0.000438870   -0.000388964   -0.000001114
 -------------------------------------------------------------------
 Cartesian Forces:  Max     0.025877261 RMS     0.006676405

 GradGradGradGradGradGradGradGradGradGradGradGradGradGradGradGradGradGrad
 Berny optimization.
 Using GEDIIS/GDIIS optimizer.
 FormGI is forming the generalized inverse of G from B-inverse, IUseBI=4.
 Internal  Forces:  Max     0.015920620 RMS     0.002938362
 Search for a local minimum.
 Step number   2 out of a maximum of   94
 All quantities printed in internal units (Hartrees-Bohrs-Radians)
 Mixed Optimization -- RFO/linear search
 Update second derivatives using D2CorX and points    1    2
 DE= -9.20D-03 DEPred=-7.76D-03 R= 1.19D+00
 TightC=F SS=  1.41D+00  RLast= 1.80D-01 DXNew= 5.0454D-01 5.4126D-01
 Trust test= 1.19D+00 RLast= 1.80D-01 DXMaxT set to 5.05D-01
 ITU=  1  0
 Use linear search instead of GDIIS.
     Eigenvalues ---    0.01855   0.01932   0.01987   0.02011   0.02070
     Eigenvalues ---    0.02113   0.02148   0.02158   0.02172   0.02210
     Eigenvalues ---    0.02234   0.02248   0.02344   0.15825   0.16000
     Eigenvalues ---    0.16000   0.16000   0.16000   0.16000   0.16209
     Eigenvalues ---    0.21915   0.22213   0.22360   0.24326   0.24916
     Eigenvalues ---    0.33417   0.35713   0.35737   0.35793   0.35856
     Eigenvalues ---    0.36465   0.36710   0.37401   0.39426   0.42670
     Eigenvalues ---    0.43733   0.45788   0.46773   0.47553   0.47767
     Eigenvalues ---    0.49611   0.52290
 RFO step:  Lambda=-1.59517696D-03 EMin= 1.85498614D-02
 Quartic linear search produced a step of  0.27815.
 Iteration  1 RMS(Cart)=  0.01006778 RMS(Int)=  0.00006980
 Iteration  2 RMS(Cart)=  0.00008127 RMS(Int)=  0.00002297
 Iteration  3 RMS(Cart)=  0.00000001 RMS(Int)=  0.00002297
 Variable       Old X    -DE/DX   Delta X   Delta X   Delta X     New X
                                 (Linear)    (Quad)   (Total)
    R1        2.64236   0.00123  -0.00365   0.00542   0.00176   2.64412
    R2        2.63814  -0.00189   0.00702  -0.00963  -0.00262   2.63553
    R3        2.05375  -0.00043   0.00265  -0.00330  -0.00065   2.05310
    R4        2.67070  -0.00009   0.01534  -0.01062   0.00470   2.67540
    R5        2.05330   0.00009   0.00256  -0.00140   0.00115   2.05445
    R6        2.60848  -0.00378  -0.00702  -0.00559  -0.01261   2.59587
    R7        2.05091  -0.00027   0.00155  -0.00202  -0.00047   2.05044
    R8        2.67655   0.00521  -0.00112   0.01738   0.01633   2.69288
    R9        2.61665   0.00287   0.00428   0.00356   0.00785   2.62450
   R10        2.66113   0.00005   0.00373  -0.00193   0.00181   2.66294
   R11        2.67675  -0.00611  -0.00880  -0.01176  -0.02053   2.65622
   R12        2.05433  -0.00040   0.00252  -0.00311  -0.00059   2.05374
   R13        2.50977  -0.01157  -0.02669  -0.01362  -0.04037   2.46940
   R14        1.97042   0.01592   0.02086   0.02932   0.05018   2.02060
   R15        2.65848   0.01221   0.02219   0.01567   0.03782   2.69630
   R16        2.04951  -0.00005   0.00426  -0.00302   0.00125   2.05076
   R17        2.05228   0.00204   0.00500   0.00378   0.00878   2.06106
    A1        2.09671   0.00163  -0.00487   0.01211   0.00725   2.10396
    A2        2.08960  -0.00048   0.00271  -0.00362  -0.00091   2.08868
    A3        2.09688  -0.00115   0.00216  -0.00849  -0.00633   2.09054
    A4        2.12958   0.00078   0.00399   0.00043   0.00441   2.13399
    A5        2.07657   0.00069  -0.00197   0.00833   0.00636   2.08293
    A6        2.07704  -0.00147  -0.00202  -0.00875  -0.01077   2.06627
    A7        2.04968  -0.00210  -0.00049  -0.01178  -0.01227   2.03741
    A8        2.12608   0.00003   0.00373  -0.00478  -0.00105   2.12503
    A9        2.10742   0.00207  -0.00324   0.01656   0.01331   2.12074
   A10        2.12094   0.00232  -0.00360   0.01600   0.01239   2.13333
   A11        2.27160   0.00089  -0.00205   0.00550   0.00341   2.27501
   A12        1.89065  -0.00321   0.00565  -0.02150  -0.01580   1.87485
   A13        2.09929  -0.00123   0.00739  -0.01136  -0.00398   2.09532
   A14        1.84186   0.00298  -0.00648   0.02250   0.01609   1.85796
   A15        2.34203  -0.00176  -0.00090  -0.01115  -0.01211   2.32991
   A16        2.07016  -0.00140  -0.00242  -0.00540  -0.00780   2.06236
   A17        2.10713   0.00114   0.00113   0.00624   0.00736   2.11449
   A18        2.10589   0.00026   0.00129  -0.00084   0.00043   2.10633
   A19        1.91059   0.00219   0.00088   0.00801   0.00884   1.91944
   A20        2.20680  -0.00016   0.00461  -0.00030   0.00433   2.21114
   A21        2.16579  -0.00204  -0.00549  -0.00771  -0.01318   2.15261
   A22        1.87349  -0.00403   0.00106  -0.02030  -0.01924   1.85425
   A23        2.21552   0.00309  -0.00046   0.01857   0.01812   2.23363
   A24        2.19418   0.00094  -0.00060   0.00172   0.00113   2.19531
   A25        1.90819   0.00207  -0.00110   0.01129   0.01010   1.91829
   A26        2.08487  -0.00058  -0.00490   0.00198  -0.00288   2.08199
   A27        2.29013  -0.00149   0.00601  -0.01327  -0.00722   2.28291
    D1        0.00003  -0.00000   0.00001  -0.00010  -0.00009  -0.00006
    D2       -3.14157  -0.00000  -0.00000  -0.00006  -0.00006   3.14155
    D3       -3.14157  -0.00000   0.00003  -0.00009  -0.00006   3.14155
    D4        0.00001  -0.00000   0.00001  -0.00004  -0.00003  -0.00002
    D5       -0.00007   0.00000  -0.00001   0.00018   0.00017   0.00010
    D6       -3.14157  -0.00000   0.00002  -0.00008  -0.00006   3.14156
    D7        3.14153   0.00000  -0.00002   0.00016   0.00014  -3.14152
    D8        0.00003  -0.00000   0.00001  -0.00010  -0.00009  -0.00005
    D9        0.00006  -0.00000   0.00001  -0.00001  -0.00001   0.00005
   D10        3.14159   0.00000  -0.00002   0.00001  -0.00001   3.14158
   D11       -3.14153  -0.00000   0.00002  -0.00006  -0.00004  -3.14157
   D12        0.00000  -0.00000  -0.00000  -0.00003  -0.00004  -0.00003
   D13       -0.00010   0.00000  -0.00003   0.00005   0.00003  -0.00007
   D14       -3.14146  -0.00000  -0.00001  -0.00010  -0.00011  -3.14157
   D15        3.14155   0.00000  -0.00000   0.00002   0.00002   3.14157
   D16        0.00019  -0.00000   0.00002  -0.00013  -0.00011   0.00008
   D17        0.00006   0.00000   0.00003   0.00003   0.00006   0.00012
   D18       -3.14157   0.00000  -0.00002   0.00019   0.00018  -3.14140
   D19        3.14147   0.00000   0.00001   0.00015   0.00017  -3.14155
   D20       -0.00016   0.00000  -0.00003   0.00032   0.00029   0.00012
   D21        3.14148   0.00000  -0.00013   0.00030   0.00017  -3.14154
   D22       -0.00085   0.00001   0.00008   0.00035   0.00043  -0.00042
   D23        0.00009  -0.00000  -0.00011   0.00016   0.00005   0.00014
   D24        3.14095   0.00001   0.00010   0.00021   0.00031   3.14126
   D25        0.00003  -0.00000  -0.00001  -0.00014  -0.00015  -0.00012
   D26        3.14152   0.00000  -0.00004   0.00012   0.00007  -3.14159
   D27       -3.14151  -0.00000   0.00005  -0.00036  -0.00031   3.14136
   D28       -0.00002  -0.00000   0.00001  -0.00010  -0.00009  -0.00010
   D29        0.00018  -0.00001   0.00016  -0.00065  -0.00049  -0.00031
   D30        3.14152  -0.00000   0.00004  -0.00004  -0.00000   3.14152
   D31       -3.14146  -0.00001   0.00011  -0.00046  -0.00034   3.14138
   D32       -0.00012   0.00000  -0.00002   0.00015   0.00014   0.00002
   D33        0.00003  -0.00000   0.00022  -0.00059  -0.00037  -0.00034
   D34        3.14156  -0.00000   0.00007  -0.00016  -0.00010   3.14147
   D35       -3.14085  -0.00001   0.00001  -0.00064  -0.00063  -3.14148
   D36        0.00069  -0.00001  -0.00015  -0.00022  -0.00036   0.00033
   D37       -0.00013   0.00001  -0.00024   0.00078   0.00054   0.00041
   D38        3.14153   0.00000  -0.00006   0.00029   0.00023  -3.14143
   D39       -3.14148  -0.00000  -0.00011   0.00018   0.00007  -3.14141
   D40        0.00018  -0.00000   0.00006  -0.00031  -0.00025  -0.00007
         Item               Value     Threshold  Converged?
 Maximum Force            0.015921     0.000450     NO 
 RMS     Force            0.002938     0.000300     NO 
 Maximum Displacement     0.042396     0.001800     NO 
 RMS     Displacement     0.010090     0.001200     NO 
 Predicted change in Energy=-1.274955D-03
 GradGradGradGradGradGradGradGradGradGradGradGradGradGradGradGradGradGrad

                          Input orientation:                          
 ---------------------------------------------------------------------
 Center     Atomic      Atomic             Coordinates (Angstroms)
 Number     Number       Type             X           Y           Z
 ---------------------------------------------------------------------
      1          6           0       -2.170164    0.702656    0.000030
      2          6           0       -2.123293   -0.695767    0.000023
      3          6           0       -0.901541   -1.411103    0.000002
      4          6           0        0.251618   -0.664640    0.000046
      5          6           0        0.234580    0.760270    0.000020
      6          6           0       -0.993496    1.451342    0.000090
      7          7           0        1.581614   -1.064566    0.000019
      8          6           0        1.577778    1.174470   -0.000186
      9          6           0        2.362769   -0.017002    0.000148
     10          1           0        1.946496   -2.069639    0.000316
     11          1           0        1.963846    2.188689   -0.000328
     12          1           0        3.444298   -0.157897    0.000265
[...]
 LinEq1:  Iter= 14 NonCon=     1 RMS=5.18D-05 Max=8.37D-04 NDo=     1
 LinEq1:  Iter= 15 NonCon=     1 RMS=1.68D-05 Max=4.01D-04 NDo=     1
 LinEq1:  Iter= 16 NonCon=     1 RMS=1.04D-05 Max=2.26D-04 NDo=     1
 LinEq1:  Iter= 17 NonCon=     1 RMS=3.25D-06 Max=7.73D-05 NDo=     1
 LinEq1:  Iter= 18 NonCon=     1 RMS=1.47D-06 Max=3.63D-05 NDo=     1
 LinEq1:  Iter= 19 NonCon=     1 RMS=7.10D-07 Max=1.28D-05 NDo=     1
 LinEq1:  Iter= 20 NonCon=     1 RMS=2.25D-07 Max=4.67D-06 NDo=     1
 LinEq1:  Iter= 21 NonCon=     1 RMS=7.34D-08 Max=1.58D-06 NDo=     1
 LinEq1:  Iter= 22 NonCon=     1 RMS=2.08D-08 Max=4.87D-07 NDo=     1
 LinEq1:  Iter= 23 NonCon=     1 RMS=4.31D-09 Max=1.01D-07 NDo=     1
 LinEq1:  Iter= 24 NonCon=     1 RMS=7.53D-10 Max=9.97D-09 NDo=     1
 LinEq1:  Iter= 25 NonCon=     1 RMS=1.46D-10 Max=3.65D-09 NDo=     1
 LinEq1:  Iter= 26 NonCon=     0 RMS=2.38D-11 Max=3.57D-10 NDo=     1
 Linear equations converged to 1.000D-10 1.000D-09 after    26 iterations.
 End of Minotr F.D. properties file   721 does not exist.
 End of Minotr F.D. properties file   722 does not exist.
 End of Minotr F.D. properties file   788 does not exist.
 R6APFD:  NTU= -4 IXU= 1 FactS= 1.050
 Calling FoFJK, ICntrl=  10005127 FMM=F ISym2X=0 I1Cent= 0 IOpClX= 0 NMat=1 NMatS=1 NMatT=0.
 ***** Axes restored to original set *****
 -------------------------------------------------------------------
 Center     Atomic                   Forces (Hartrees/Bohr)
 Number     Number              X              Y              Z
 -------------------------------------------------------------------
      1        6          -0.012351537   -0.009753919    0.005434442
      2        6          -0.016621284    0.027527198   -0.002647809
      3        6           0.045288796   -0.010677618    0.003203898
      4        6           0.024208979    0.055841112    0.008047786
      5        6          -0.006144282    0.008741242   -0.002476185
      6        6           0.007855907    0.019671874    0.002123371
      7        7           0.004282930    0.101334150   -0.054720532
      8        6          -0.062156209    0.054926014    0.023647748
      9        6          -0.063732940   -0.125043532    0.026506539
     10        1           0.083808477   -0.123723793    0.013693381
     11        1          -0.005235276    0.003342942   -0.009145410
     12        1           0.002897662   -0.005285226   -0.009297828
     13        1          -0.000316039    0.001064380   -0.000942260
     14        1           0.001408848    0.002681817    0.003498612
     15        1           0.001007255   -0.000097975    0.000036905
     16        1          -0.004201285   -0.000548668   -0.006962657
 -------------------------------------------------------------------
 Cartesian Forces:  Max     0.125043532 RMS     0.038679306

 GradGradGradGradGradGradGradGradGradGradGradGradGradGradGradGradGradGrad
 Berny optimization.
 Using GEDIIS/GDIIS optimizer.
 FormGI is forming the generalized inverse of G from B-inverse, IUseBI=4.
 Internal  Forces:  Max     0.148332773 RMS     0.025498652
 Search for a local minimum.
 Step number  19 out of a maximum of   94
 All quantities printed in internal units (Hartrees-Bohrs-Radians)
 Mixed Optimization -- RFO/linear search
 Update second derivatives using D2CorX and points   10   12   13   11   15
                                                     14   16   17   18   19
 DE= -1.15D-03 DEPred=-4.78D-04 R= 2.40D+00
 TightC=F SS=  1.41D+00  RLast= 1.04D-01 DXNew= 3.0000D-01 3.1276D-01
 Trust test= 2.40D+00 RLast= 1.04D-01 DXMaxT set to 3.00D-01
 ITU=  1  0  0  1 -1  0 -1 -1  1  0  0  1  1  1  1  1  1  1  0
 Use linear search instead of GDIIS.
     Eigenvalues ---  -14.85333  -1.46756   0.00002   0.01851   0.01949
     Eigenvalues ---    0.02016   0.02106   0.02151   0.02152   0.02179
     Eigenvalues ---    0.02215   0.02230   0.02277   0.02357   0.06388
     Eigenvalues ---    0.14409   0.15765   0.15993   0.16018   0.16191
     Eigenvalues ---    0.16444   0.17221   0.18080   0.22091   0.23233
     Eigenvalues ---    0.24927   0.29247   0.35584   0.35737   0.35813
     Eigenvalues ---    0.35889   0.35914   0.36585   0.37194   0.38053
     Eigenvalues ---    0.42804   0.43351   0.46200   0.47583   0.48363
     Eigenvalues ---    0.52968   0.76746
 RFO step:  Lambda=-1.48568262D+01 EMin=-1.48533271D+01
 I=     1 Eig=   -1.49D+01 Dot1= -1.37D-01
 I=     1 Stepn= -6.00D-01 RXN=   6.00D-01 EDone=F
 I=     2 Eig=   -1.47D+00 Dot1= -1.23D-02
 I=     2 Stepn= -3.00D-01 RXN=   6.71D-01 EDone=F
 Mixed    2 eigenvectors in step.  Raw Step.Grad=  1.49D-01.
 RFO eigenvector is Hessian eigenvector with negative curvature.
 Taking step of  6.00D-01 in eigenvector direction(s).  Step.Grad= -2.53D-03.
 Skip linear search -- no minimum in search direction.
 Maximum step size (   0.300) exceeded in Quadratic search.
    -- Step size not scaled.
 Iteration  1 RMS(Cart)=  0.06672118 RMS(Int)=  0.02797501
 Iteration  2 RMS(Cart)=  0.02045602 RMS(Int)=  0.00614229
 Iteration  3 RMS(Cart)=  0.00588435 RMS(Int)=  0.00079064
 Iteration  4 RMS(Cart)=  0.00000273 RMS(Int)=  0.00079064
 Iteration  5 RMS(Cart)=  0.00000001 RMS(Int)=  0.00079064
 Variable       Old X    -DE/DX   Delta X   Delta X   Delta X     New X
                                 (Linear)    (Quad)   (Total)
    R1        2.65501  -0.00863   0.00000  -0.02754  -0.02758   2.62743
    R2        2.63273   0.00141   0.00000   0.05141   0.05142   2.68415
    R3        2.05426  -0.00094   0.00000  -0.00154  -0.00154   2.05272
    R4        2.66066   0.03330   0.00000   0.06477   0.06471   2.72537
    R5        2.05536  -0.00029   0.00000   0.00094   0.00094   2.05630
    R6        2.61604  -0.02266   0.00000  -0.02001  -0.02002   2.59601
    R7        2.05404  -0.00265   0.00000   0.00580   0.00580   2.05985
    R8        2.70372   0.00418   0.00000  -0.00953  -0.00991   2.69381
    R9        2.61926   0.02642   0.00000   0.03224   0.03200   2.65126
   R10        2.66766   0.00656   0.00000  -0.00525  -0.00520   2.66246
   R11        2.65149  -0.04834   0.00000  -0.07373  -0.07373   2.57775
   R12        2.05540  -0.00032   0.00000   0.00258   0.00258   2.05798
   R13        2.48750  -0.08784   0.00000  -0.12847  -0.12821   2.35929
   R14        3.32779   0.14833   0.00000   0.46136   0.46136   3.78914
   R15        2.71521   0.08253   0.00000   0.12994   0.13036   2.84557
   R16        2.04799   0.00115   0.00000   0.01129   0.01129   2.05927
   R17        2.04851   0.00322   0.00000  -0.00864  -0.00864   2.03988
    A1        2.10564  -0.00831   0.00000  -0.01566  -0.01577   2.08987
    A2        2.08246   0.00453   0.00000   0.00381   0.00386   2.08633
    A3        2.09507   0.00377   0.00000   0.01185   0.01190   2.10697
    A4        2.12517   0.00943   0.00000   0.01130   0.01112   2.13629
    A5        2.08051  -0.00582   0.00000  -0.00668  -0.00659   2.07391
    A6        2.07751  -0.00361   0.00000  -0.00462  -0.00453   2.07298
    A7        2.05662   0.00331   0.00000   0.01046   0.01031   2.06693
    A8        2.10899  -0.00017   0.00000  -0.00759  -0.00751   2.10148
    A9        2.11758  -0.00314   0.00000  -0.00288  -0.00280   2.11478
   A10        2.11450  -0.02056   0.00000  -0.03881  -0.03863   2.07587
   A11        2.23694  -0.02894   0.00000  -0.08796  -0.08771   2.14923
   A12        1.93174   0.04950   0.00000   0.12677   0.12635   2.05809
   A13        2.09710   0.02725   0.00000   0.05795   0.05815   2.15525
   A14        1.84165  -0.02936   0.00000  -0.05849  -0.05888   1.78277
   A15        2.34441   0.00210   0.00000   0.00051   0.00069   2.34510
   A16        2.06732  -0.01114   0.00000  -0.02531  -0.02533   2.04198
   A17        2.10862   0.00127   0.00000   0.00642   0.00643   2.11505
   A18        2.10725   0.00987   0.00000   0.01889   0.01890   2.12615
   A19        1.84753  -0.04730   0.00000  -0.13376  -0.13395   1.71358
   A20        2.41120   0.04701   0.00000   0.14557   0.14499   2.55619
   A21        2.02433   0.00054   0.00000  -0.01110  -0.01134   2.01299
   A22        1.83171  -0.00695   0.00000  -0.03276  -0.03244   1.79927
   A23        2.24508  -0.00286   0.00000  -0.00186  -0.00206   2.24302
   A24        2.20639   0.00983   0.00000   0.03468   0.03448   2.24087
   A25        1.97170   0.03388   0.00000   0.09749   0.09789   2.06959
   A26        2.10567  -0.02230   0.00000  -0.05592  -0.05620   2.04947
   A27        2.20564  -0.01169   0.00000  -0.04195  -0.04227   2.16336
    D1        0.00156  -0.00042   0.00000  -0.00104  -0.00112   0.00044
    D2       -3.13880   0.00010   0.00000   0.00097   0.00073  -3.13807
    D3        3.13916  -0.00093   0.00000  -0.00309  -0.00287   3.13630
    D4       -0.00120  -0.00041   0.00000  -0.00109  -0.00102  -0.00221
    D5       -0.00633  -0.00103   0.00000  -0.00386  -0.00348  -0.00982
    D6        3.13214  -0.00139   0.00000  -0.00492  -0.00440   3.12774
    D7        3.13927  -0.00051   0.00000  -0.00177  -0.00169   3.13758
    D8       -0.00544  -0.00088   0.00000  -0.00283  -0.00261  -0.00805
    D9        0.00186  -0.00075   0.00000  -0.00224  -0.00254  -0.00068
   D10       -3.13922  -0.00018   0.00000   0.00018   0.00002  -3.13920
   D11       -3.14096  -0.00128   0.00000  -0.00424  -0.00439   3.13783
   D12        0.00115  -0.00071   0.00000  -0.00182  -0.00183  -0.00069
   D13       -0.00037   0.00348   0.00000   0.01057   0.01071   0.01034
   D14       -3.13895   0.00295   0.00000   0.00956   0.00954  -3.12941
   D15        3.14071   0.00291   0.00000   0.00814   0.00813  -3.13435
   D16        0.00212   0.00237   0.00000   0.00713   0.00696   0.00908
   D17       -0.00449  -0.00516   0.00000  -0.01605  -0.01653  -0.02102
   D18        3.13114  -0.00630   0.00000  -0.02023  -0.02097   3.11018
   D19        3.13457  -0.00481   0.00000  -0.01550  -0.01575   3.11882
   D20       -0.01298  -0.00595   0.00000  -0.01968  -0.02018  -0.03316
   D21       -3.11854   0.00843   0.00000   0.02643   0.02618  -3.09235
   D22        0.04113  -0.01089   0.00000  -0.02701  -0.02920   0.01194
   D23        0.02581   0.00802   0.00000   0.02570   0.02526   0.05106
   D24       -3.09771  -0.01130   0.00000  -0.02774  -0.03012  -3.12783
   D25        0.00776   0.00385   0.00000   0.01235   0.01265   0.02040
   D26       -3.13072   0.00423   0.00000   0.01344   0.01360  -3.11712
   D27       -3.12581   0.00547   0.00000   0.01812   0.01883  -3.10698
   D28        0.01890   0.00585   0.00000   0.01921   0.01978   0.03868
   D29       -0.00409   0.00191   0.00000   0.00573   0.00574   0.00166
   D30       -3.14035  -0.00218   0.00000  -0.00623  -0.00612   3.13671
   D31        3.13030   0.00063   0.00000   0.00091   0.00082   3.13112
   D32       -0.00596  -0.00346   0.00000  -0.01105  -0.01105  -0.01700
   D33       -0.02902  -0.00643   0.00000  -0.02169  -0.02010  -0.04912
   D34        3.13163  -0.00027   0.00000  -0.00122   0.00112   3.13275
   D35        3.09916   0.00860   0.00000   0.02023   0.01611   3.11527
   D36       -0.02338   0.01477   0.00000   0.04070   0.03733   0.01396
   D37        0.02130   0.00399   0.00000   0.01251   0.01273   0.03403
   D38       -3.14066  -0.00269   0.00000  -0.00941  -0.01000   3.13252
   D39       -3.12547   0.00792   0.00000   0.02397   0.02443  -3.10104
   D40       -0.00424   0.00123   0.00000   0.00206   0.00170  -0.00255
         Item               Value     Threshold  Converged?
 Maximum Force            0.148333     0.000450     NO 
 RMS     Force            0.025499     0.000300     NO 
 Maximum Displacement     0.459582     0.001800     NO 
 RMS     Displacement     0.085257     0.001200     NO 
 Predicted change in Energy=-2.324749D+00
 GradGradGradGradGradGradGradGradGradGradGradGradGradGradGradGradGradGrad

                          Input orientation:                          
 ---------------------------------------------------------------------
 Center     Atomic      Atomic             Coordinates (Angstroms)
 Number     Number       Type             X           Y           Z
 ---------------------------------------------------------------------
      1          6           0       -2.231980    0.760534    0.004424
      2          6           0       -2.138188   -0.626643    0.013804
      3          6           0       -0.871191   -1.315582    0.007562
      4          6           0        0.280336   -0.566648   -0.009060
      5          6           0        0.178487    0.855211   -0.006540
      6          6           0       -1.049080    1.546648   -0.012475
      7          7           0        1.563619   -1.133299   -0.030737
      8          6           0        1.487950    1.236696    0.016119
      9          6           0        2.225575   -0.076067    0.021949
     10          1           0        2.644653   -2.821712   -0.064949
     11          1           0        1.900986    2.245089    0.021727
     12          1           0        3.301489   -0.163009    0.030627
     13          1           0       -3.053916   -1.214365    0.023372
     14          1           0       -0.835576   -2.405010    0.013017
     15          1           0       -3.211021    1.231092    0.004696
     16          1           0       -1.095241    2.634511   -0.032999
 ---------------------------------------------------------------------
                    Distance matrix (angstroms):
                    1          2          3          4          5
     1  C    0.000000
     2  C    1.390376   0.000000
     3  C    2.482340   1.442206   0.000000
     4  C    2.841360   2.419376   1.373751   0.000000
     5  C    2.412351   2.750144   2.411299   1.425504   0.000000
     6  C    1.420391   2.431057   2.867822   2.496673   1.408915
     7  N    4.241981   3.736584   2.441924   1.402989   2.423499
     8  C    3.750299   4.076876   3.475592   2.170487   1.364088
     9  C    4.535416   4.398367   3.335650   2.006386   2.249146
    10  H    6.051350   5.263088   3.825551   3.267787   4.427769
    11  H    4.391538   4.955990   4.512598   3.245507   2.213495
    12  H    5.610070   5.459425   4.328997   3.048256   3.285010
    13  H    2.139197   1.088148   2.185128   3.396738   3.838290
    14  H    3.459868   2.204402   1.090024   2.150656   3.414344
    15  H    1.086254   2.145282   3.458376   3.927039   3.410305
    16  H    2.192115   3.424187   3.956650   3.484280   2.188378
                    6          7          8          9         10
     6  C    0.000000
     7  N    3.742812   0.000000
     8  C    2.556054   2.371665   0.000000
     9  C    3.654826   1.248480   1.505812   0.000000
    10  H    5.720925   2.005129   4.220806   2.778803   0.000000
    11  H    3.031811   3.395597   1.089719   2.343742   5.121819
    12  H    4.674637   1.991336   2.290918   1.079455   2.740305
    13  H    3.412307   4.618563   5.161036   5.400810   5.921575
    14  H    3.957503   2.715750   4.319815   3.846388   3.505953
    15  H    2.184916   5.328113   4.698989   5.591560   7.121727
    16  H    1.089036   4.611501   2.937547   4.286966   6.614998
                   11         12         13         14         15
    11  H    0.000000
    12  H    2.785754   0.000000
    13  H    6.043085   6.441783   0.000000
    14  H    5.395578   4.705548   2.517693   0.000000
    15  H    5.211631   6.660103   2.450570   4.343277   0.000000
    16  H    3.021923   5.211660   4.318962   5.046417   2.539199
                   16
    16  H    0.000000
 Stoichiometry    C8H7N
 Framework group  C1[X(C8H7N)]
 Deg. of freedom    42
 Full point group                 C1      NOp   1
 Largest Abelian subgroup         C1      NOp   1
 Largest concise Abelian subgroup C1      NOp   1
                         Standard orientation:                         
 ---------------------------------------------------------------------
 Center     Atomic      Atomic             Coordinates (Angstroms)
 Number     Number       Type             X           Y           Z
 ---------------------------------------------------------------------
      1          6           0       -2.274699    0.419855    0.000360
      2          6           0       -1.995881   -0.942214    0.013438
      3          6           0       -0.647984   -1.455167    0.010295
      4          6           0        0.392820   -0.558720   -0.007081
      5          6           0        0.101354    0.836668   -0.008358
      6          6           0       -1.207788    1.357351   -0.017356
      7          7           0        1.740490   -0.948344   -0.025959
      8          6           0        1.347854    1.390242    0.014666
      9          6           0        2.254731    0.188184    0.024666
     10          1           0        3.038072   -2.476742   -0.054671
     11          1           0        1.622029    2.444900    0.018082
     12          1           0        3.332579    0.246226    0.034683
     13          1           0       -2.824605   -1.647323    0.023585
     14          1           0       -0.466711   -2.529980    0.018615
     15          1           0       -3.307966    0.754972   -0.001602
     16          1           0       -1.399281    2.429164   -0.040752
 ---------------------------------------------------------------------
 Rotational constants (GHZ):           3.6995777           1.6617341           1.1468629
 Standard basis: 6-31+G(d) (6D, 7F)
 There are   185 symmetry adapted cartesian basis functions of A   symmetry.
 There are   185 symmetry adapted basis functions of A   symmetry.
   185 basis functions,   316 primitive gaussians,   185 cartesian basis functions
    31 alpha electrons       31 beta electrons
       nuclear repulsion energy       397.8541953821 Hartrees.
 NAtoms=   16 NActive=   16 NUniq=   16 SFac= 1.00D+00 NAtFMM=   60 NAOKFM=F Big=F
 Integral buffers will be    131072 words long.
 Regular integral format.
 Two-electron integral symmetry is turned on.
 R6APFD:  NTU= -4 IXU= 1 FactS= 1.050
 Nuclear repulsion after empirical dispersion term =      397.8466949773 Hartrees.
 One-electron integrals computed using PRISM.
 NBasis=   185 RedAO= T EigKep=  3.30D-06  NBF=   185
 NBsUse=   184 1.00D-06 EigRej=  9.76D-07 NBFU=   184
 Initial guess from the checkpoint file:  "FuncsAPFD-V-3rd.chk"
 B after Tr=     0.000000    0.000000    0.000000
         Rot=    0.999419    0.000020    0.000149   -0.034073 Ang=   3.91 deg.
 ExpMin= 4.38D-02 ExpMax= 4.17D+03 ExpMxC= 6.27D+02 IAcc=3 IRadAn=         5 AccDes= 0.00D+00
 Harris functional with IExCor= 3731 and IRadAn=       5 diagonalized for initial guess.
 HarFok:  IExCor= 3731 AccDes= 0.00D+00 IRadAn=         5 IDoV= 1 UseB2=F ITyADJ=14
 ICtDFT=  3500011 ScaDFX=  1.000000  1.000000  1.000000  1.000000
 FoFCou: FMM=F IPFlag=           0 FMFlag=      100000 FMFlg1=           0
         NFxFlg=           0 DoJE=T BraDBF=F KetDBF=T FulRan=T
         wScrn=  0.000000 ICntrl=       500 IOpCl=  0 I1Cent=   200000004 NGrid=           0
         NMat0=    1 NMatS0=      1 NMatT0=    0 NMatD0=    1 NMtDS0=    0 NMtDT0=    0
 Petite list used in FoFCou.
 Keep R1 ints in memory in canonical form, NReq=152071459.
 Requested convergence on RMS density matrix=1.00D-08 within 128 cycles.
 Requested convergence on MAX density matrix=1.00D-06.
 Requested convergence on             energy=1.00D-06.
 No special actions if energy rises.
 >>>>>>>>>> Convergence criterion not met.
 SCF Done:  E(RAPFD) =  -363.305368720     A.U. after  129 cycles
            NFock=128  Conv=0.63D-04     -V/T= 2.0089
 Convergence failure -- run terminated.
 Error termination via Lnk1e in /cm/shared/apps/spack/cpu/opt/spack/linux-centos8-zen/gcc-8.3.1/gaussian-16.C.01-po5bqktfeugvmjyga3v7eigbecnokxng/g16/l502.exe at Tue Jun 15 13:23:38 2021.
 Job cpu time:       0 days  6 hours 14 minutes  4.9 seconds.
 Elapsed time:       0 days  1 hours 38 minutes 36.2 seconds.
 File lengths (MBytes):  RWF=    238 Int=      0 D2E=      0 Chk=     11 Scr=      1
