 Entering Gaussian System, Link 0=/cm/shared/apps/spack/cpu/opt/spack/linux-centos8-zen/gcc-8.3.1/gaussian-16.C.01-po5bqktfeugvmjyga3v7eigbecnokxng/g16/g16
 Initial command:
 /cm/shared/apps/spack/cpu/opt/spack/linux-centos8-zen/gcc-8.3.1/gaussian-16.C.01-po5bqktfeugvmjyga3v7eigbecnokxng/g16/l1.exe "/scratch/scaparas/job_3660075/Gau-35731.inp" -scrdir="/scratch/scaparas/job_3660075/"
 Entering Link 1 = /cm/shared/apps/spack/cpu/opt/spack/linux-centos8-zen/gcc-8.3.1/gaussian-16.C.01-po5bqktfeugvmjyga3v7eigbecnokxng/g16/l1.exe PID=     35732.
  
 Copyright (c) 1988-2019, Gaussian, Inc.  All Rights Reserved.
  
 This is part of the Gaussian(R) 16 program.  It is based on
 the Gaussian(R) 09 system (copyright 2009, Gaussian, Inc.),
 the Gaussian(R) 03 system (copyright 2003, Gaussian, Inc.),
 the Gaussian(R) 98 system (copyright 1998, Gaussian, Inc.),
 the Gaussian(R) 94 system (copyright 1995, Gaussian, Inc.),
 the Gaussian 92(TM) system (copyright 1992, Gaussian, Inc.),
 the Gaussian 90(TM) system (copyright 1990, Gaussian, Inc.),
 the Gaussian 88(TM) system (copyright 1988, Gaussian, Inc.),
 the Gaussian 86(TM) system (copyright 1986, Carnegie Mellon
 University), and the Gaussian 82(TM) system (copyright 1983,
 Carnegie Mellon University). Gaussian is a federally registered
 trademark of Gaussian, Inc.
  
 This software contains proprietary and confidential information,
 including trade secrets, belonging to Gaussian, Inc.
  
 This software is provided under written license and may be
 used, copied, transmitted, or stored only in accord with that
 written license.
  
 The following legend is applicable only to US Government
 contracts under FAR:
  
                    RESTRICTED RIGHTS LEGEND
  
 Use, reproduction and disclosure by the US Government is
 subject to restrictions as set forth in subparagraphs (a)
 and (c) of the Commercial Computer Software - Restricted
 Rights clause in FAR 52.227-19.
  
 Gaussian, Inc.
 340 Quinnipiac St., Bldg. 40, Wallingford CT 06492
  
  
 ---------------------------------------------------------------
 Warning -- This program may not be used in any manner that
 competes with the business of Gaussian, Inc. or will provide
 assistance to any competitor of Gaussian, Inc.  The licensee
 of this program is prohibited from giving any competitor of
 Gaussian, Inc. access to this program.  By using this program,
 the user acknowledges that Gaussian, Inc. is engaged in the
 business of creating and licensing software in the field of
 computational chemistry and represents and warrants to the
 licensee that it is not a competitor of Gaussian, Inc. and that
 it will not use this program in any manner prohibited above.
 ---------------------------------------------------------------
  

 Cite this work as:
 Gaussian 16, Revision C.01,
 M. J. Frisch, G. W. Trucks, H. B. Schlegel, G. E. Scuseria, 
 M. A. Robb, J. R. Cheeseman, G. Scalmani, V. Barone, 
 G. A. Petersson, H. Nakatsuji, X. Li, M. Caricato, A. V. Marenich, 
 J. Bloino, B. G. Janesko, R. Gomperts, B. Mennucci, H. P. Hratchian, 
 J. V. Ortiz, A. F. Izmaylov, J. L. Sonnenberg, D. Williams-Young, 
 F. Ding, F. Lipparini, F. Egidi, J. Goings, B. Peng, A. Petrone, 
 T. Henderson, D. Ranasinghe, V. G. Zakrzewski, J. Gao, N. Rega, 
 G. Zheng, W. Liang, M. Hada, M. Ehara, K. Toyota, R. Fukuda, 
 J. Hasegawa, M. Ishida, T. Nakajima, Y. Honda, O. Kitao, H. Nakai, 
 T. Vreven, K. Throssell, J. A. Montgomery, Jr., J. E. Peralta, 
 F. Ogliaro, M. J. Bearpark, J. J. Heyd, E. N. Brothers, K. N. Kudin, 
 V. N. Staroverov, T. A. Keith, R. Kobayashi, J. Normand, 
 K. Raghavachari, A. P. Rendell, J. C. Burant, S. S. Iyengar, 
 J. Tomasi, M. Cossi, J. M. Millam, M. Klene, C. Adamo, R. Cammi, 
 J. W. Ochterski, R. L. Martin, K. Morokuma, O. Farkas, 
 J. B. Foresman, and D. J. Fox, Gaussian, Inc., Wallingford CT, 2019.
 
 ******************************************
 Gaussian 16:  ES64L-G16RevC.01  3-Jul-2019
                28-Jun-2021 
 ******************************************
 %nprocshared=4
 Will use up to    4 processors via shared memory.
 %chk=FuncsPBEPBE-V-3rd.chk
 %Mem=3GB
 ------------------------------------------------------------
 # td= (nstates=6, root=3) PBEPBE/6-31+G* Opt density=current
 ------------------------------------------------------------
 1/18=20,19=15,26=3,38=1/1,3;
 2/9=110,12=2,17=6,18=5,40=1/2;
 3/5=1,6=6,7=11,11=9,25=1,30=1,71=1,74=1009/1,2,3,8;
 4//1;
 5/5=2,38=5/2;
 8/6=1,10=2,107=3,108=6/1;
 9/8=3,15=2,41=6,42=1,70=2/14;
 10/5=4,28=3/2;
 6/7=2,8=2,9=2,10=2,22=-1/1;
 7/12=6,13=5,14=3/1,2,3,16;
 1/18=20,19=15,26=3/3(2);
 2/9=110/2;
 99//99;
 2/9=110/2;
 3/5=1,6=6,7=11,11=9,25=1,30=1,71=1,74=1009/1,2,3,8;
 4/5=5,16=3,69=1/1;
 5/5=2,38=5/2;
 8/6=1,10=2,107=3,108=6/1;
 9/8=3,15=2,41=6,42=1,49=4,70=2/14;
 10/5=4,28=3/2;
 7/12=6,13=5,14=3/1,2,3,16;
 1/18=20,19=15,26=3/3(-8);
 2/9=110/2;
 6/7=2,8=2,9=2,10=2,22=-1/1;
 99/9=10/99;
 -----------------
 FuncsPBEPBE-V-3rd
 -----------------
 Symbolic Z-matrix:
 Charge =  0 Multiplicity = 1
 C                    -2.15106   0.68921   0.00009 
 C                    -2.12793  -0.71582   0.00008 
 C                    -0.9323   -1.4131   -0.00001 
 C                     0.24691  -0.6702   -0.00004 
 C                     0.24819   0.7483    0. 
 C                    -0.97947   1.42353   0.00003 
 N                     1.56177  -1.07759  -0.00029 
 C                     1.62013   1.1629   -0.00016 
 C                     2.38201   0.03081   0.00025 
 H                     1.87632  -2.03001   0.00044 
 H                     1.99217   2.17301  -0.00035 
 H                     3.45255  -0.08243   0.00041 
 H                    -3.06159  -1.26202   0.00009 
 H                    -0.91725  -2.49534  -0.00007 
 H                    -3.1042    1.20079   0.00009 
 H                    -1.00935   2.50542  -0.00002 
 

 GradGradGradGradGradGradGradGradGradGradGradGradGradGradGradGradGradGrad
 Berny optimization.
 Initialization pass.
                           ----------------------------
                           !    Initial Parameters    !
                           ! (Angstroms and Degrees)  !
 --------------------------                            --------------------------
 ! Name  Definition              Value          Derivative Info.                !
 --------------------------------------------------------------------------------
 ! R1    R(1,2)                  1.4052         estimate D2E/DX2                !
 ! R2    R(1,6)                  1.3827         estimate D2E/DX2                !
 ! R3    R(1,15)                 1.0818         estimate D2E/DX2                !
 ! R4    R(2,3)                  1.3841         estimate D2E/DX2                !
 ! R5    R(2,13)                 1.0817         estimate D2E/DX2                !
 ! R6    R(3,4)                  1.3937         estimate D2E/DX2                !
 ! R7    R(3,14)                 1.0823         estimate D2E/DX2                !
 ! R8    R(4,5)                  1.4185         estimate D2E/DX2                !
 ! R9    R(4,7)                  1.3765         estimate D2E/DX2                !
 ! R10   R(5,6)                  1.4011         estimate D2E/DX2                !
 ! R11   R(5,8)                  1.4332         estimate D2E/DX2                !
 ! R12   R(6,16)                 1.0823         estimate D2E/DX2                !
 ! R13   R(7,9)                  1.3789         estimate D2E/DX2                !
 ! R14   R(7,10)                 1.003          estimate D2E/DX2                !
 ! R15   R(8,9)                  1.3646         estimate D2E/DX2                !
 ! R16   R(8,11)                 1.0764         estimate D2E/DX2                !
 ! R17   R(9,12)                 1.0765         estimate D2E/DX2                !
 ! A1    A(2,1,6)              121.1349         estimate D2E/DX2                !
 ! A2    A(2,1,15)             119.1671         estimate D2E/DX2                !
 ! A3    A(6,1,15)             119.698          estimate D2E/DX2                !
 ! A4    A(1,2,3)              121.1938         estimate D2E/DX2                !
 ! A5    A(1,2,13)             119.3846         estimate D2E/DX2                !
 ! A6    A(3,2,13)             119.4217         estimate D2E/DX2                !
 ! A7    A(2,3,4)              117.5387         estimate D2E/DX2                !
 ! A8    A(2,3,14)             121.0469         estimate D2E/DX2                !
 ! A9    A(4,3,14)             121.4144         estimate D2E/DX2                !
 ! A10   A(3,4,5)              122.2626         estimate D2E/DX2                !
 ! A11   A(3,4,7)              130.5743         estimate D2E/DX2                !
 ! A12   A(5,4,7)              107.163          estimate D2E/DX2                !
 ! A13   A(4,5,6)              118.7594         estimate D2E/DX2                !
 ! A14   A(4,5,8)              106.8666         estimate D2E/DX2                !
 ! A15   A(6,5,8)              134.374          estimate D2E/DX2                !
 ! A16   A(1,6,5)              119.1105         estimate D2E/DX2                !
 ! A17   A(1,6,16)             120.4966         estimate D2E/DX2                !
 ! A18   A(5,6,16)             120.3928         estimate D2E/DX2                !
 ! A19   A(4,7,9)              109.2874         estimate D2E/DX2                !
 ! A20   A(4,7,10)             125.4909         estimate D2E/DX2                !
 ! A21   A(9,7,10)             125.2217         estimate D2E/DX2                !
 ! A22   A(5,8,9)              107.125          estimate D2E/DX2                !
 ! A23   A(5,8,11)             127.0344         estimate D2E/DX2                !
 ! A24   A(9,8,11)             125.8405         estimate D2E/DX2                !
 ! A25   A(7,9,8)              109.5578         estimate D2E/DX2                !
 ! A26   A(7,9,12)             120.4645         estimate D2E/DX2                !
 ! A27   A(8,9,12)             129.9776         estimate D2E/DX2                !
 ! D1    D(6,1,2,3)             -0.0008         estimate D2E/DX2                !
 ! D2    D(6,1,2,13)          -179.9981         estimate D2E/DX2                !
 ! D3    D(15,1,2,3)           179.996          estimate D2E/DX2                !
 ! D4    D(15,1,2,13)           -0.0013         estimate D2E/DX2                !
 ! D5    D(2,1,6,5)             -0.0018         estimate D2E/DX2                !
 ! D6    D(2,1,6,16)           179.9965         estimate D2E/DX2                !
 ! D7    D(15,1,6,5)          -179.9986         estimate D2E/DX2                !
 ! D8    D(15,1,6,16)           -0.0003         estimate D2E/DX2                !
 ! D9    D(1,2,3,4)              0.002          estimate D2E/DX2                !
 ! D10   D(1,2,3,14)          -179.9968         estimate D2E/DX2                !
 ! D11   D(13,2,3,4)           179.9992         estimate D2E/DX2                !
 ! D12   D(13,2,3,14)            0.0005         estimate D2E/DX2                !
 ! D13   D(2,3,4,5)             -0.0005         estimate D2E/DX2                !
 ! D14   D(2,3,4,7)           -179.9911         estimate D2E/DX2                !
 ! D15   D(14,3,4,5)           179.9982         estimate D2E/DX2                !
 ! D16   D(14,3,4,7)             0.0076         estimate D2E/DX2                !
 ! D17   D(3,4,5,6)             -0.002          estimate D2E/DX2                !
 ! D18   D(3,4,5,8)           -179.9955         estimate D2E/DX2                !
 ! D19   D(7,4,5,6)            179.9905         estimate D2E/DX2                !
 ! D20   D(7,4,5,8)             -0.003          estimate D2E/DX2                !
 ! D21   D(3,4,7,9)           -179.98           estimate D2E/DX2                !
 ! D22   D(3,4,7,10)            -0.0649         estimate D2E/DX2                !
 ! D23   D(5,4,7,9)              0.0284         estimate D2E/DX2                !
 ! D24   D(5,4,7,10)           179.9434         estimate D2E/DX2                !
 ! D25   D(4,5,6,1)              0.0031         estimate D2E/DX2                !
 ! D26   D(4,5,6,16)          -179.9951         estimate D2E/DX2                !
 ! D27   D(8,5,6,1)            179.9944         estimate D2E/DX2                !
 ! D28   D(8,5,6,16)            -0.0038         estimate D2E/DX2                !
 ! D29   D(4,5,8,9)             -0.0234         estimate D2E/DX2                !
 ! D30   D(4,5,8,11)           179.9883         estimate D2E/DX2                !
 ! D31   D(6,5,8,9)            179.9846         estimate D2E/DX2                !
 ! D32   D(6,5,8,11)            -0.0037         estimate D2E/DX2                !
 ! D33   D(4,7,9,8)             -0.0444         estimate D2E/DX2                !
 ! D34   D(4,7,9,12)           179.9847         estimate D2E/DX2                !
 ! D35   D(10,7,9,8)          -179.9597         estimate D2E/DX2                !
 ! D36   D(10,7,9,12)            0.0693         estimate D2E/DX2                !
 ! D37   D(5,8,9,7)              0.0414         estimate D2E/DX2                !
 ! D38   D(5,8,9,12)          -179.9913         estimate D2E/DX2                !
 ! D39   D(11,8,9,7)          -179.9702         estimate D2E/DX2                !
 ! D40   D(11,8,9,12)           -0.0029         estimate D2E/DX2                !
 --------------------------------------------------------------------------------
 Trust Radius=3.00D-01 FncErr=1.00D-07 GrdErr=1.00D-06 EigMax=2.50D+02 EigMin=1.00D-04
 Number of steps in this run=     94 maximum allowed number of steps=    100.
 GradGradGradGradGradGradGradGradGradGradGradGradGradGradGradGradGradGrad

                          Input orientation:                          
 ---------------------------------------------------------------------
 Center     Atomic      Atomic             Coordinates (Angstroms)
 Number     Number       Type             X           Y           Z
 ---------------------------------------------------------------------
      1          6           0       -2.151063    0.689208    0.000088
      2          6           0       -2.127927   -0.715818    0.000075
      3          6           0       -0.932297   -1.413100   -0.000011
      4          6           0        0.246911   -0.670201   -0.000042
      5          6           0        0.248193    0.748299    0.000000
      6          6           0       -0.979474    1.423526    0.000032
      7          7           0        1.561774   -1.077592   -0.000285
      8          6           0        1.620133    1.162900   -0.000157
      9          6           0        2.382013    0.030806    0.000248
     10          1           0        1.876315   -2.030011    0.000438
     11          1           0        1.992173    2.173010   -0.000348
     12          1           0        3.452549   -0.082425    0.000408
     13          1           0       -3.061594   -1.262020    0.000088
     14          1           0       -0.917252   -2.495342   -0.000073
     15          1           0       -3.104203    1.200785    0.000090
     16          1           0       -1.009348    2.505421   -0.000015
 ---------------------------------------------------------------------
                    Distance matrix (angstroms):
                    1          2          3          4          5
     1  C    0.000000
     2  C    1.405216   0.000000
     3  C    2.430039   1.384100   0.000000
     4  C    2.756496   2.375276   1.393711   0.000000
     5  C    2.399984   2.790983   2.462763   1.418501   0.000000
     6  C    1.382694   2.428114   2.837018   2.426461   1.401106
     7  N    4.111781   3.707395   2.516536   1.376529   2.249305
     8  C    3.800829   4.192557   3.626386   2.290414   1.433218
     9  C    4.580641   4.571324   3.615178   2.247236   2.251218
    10  H    4.859416   4.214387   2.875566   2.122273   3.220216
    11  H    4.400917   5.031953   4.627387   3.336134   2.251948
    12  H    5.656491   5.616307   4.582311   3.259079   3.310287
    13  H    2.153220   1.081698   2.134650   3.361020   3.872476
    14  H    3.415208   2.152310   1.082347   2.164813   3.446661
    15  H    1.081752   2.150926   3.398466   3.838040   3.382795
    16  H    2.145261   3.409927   3.919278   3.415079   2.160761
                    6          7          8          9         10
     6  C    0.000000
     7  N    3.565604   0.000000
     8  C    2.612639   2.241252   0.000000
     9  C    3.638580   1.378890   1.364587   0.000000
    10  H    4.481345   1.003015   3.203172   2.121956   0.000000
    11  H    3.064704   3.278972   1.076446   2.177387   4.204618
    12  H    4.680888   2.136677   2.215532   1.076508   2.505515
    13  H    3.398144   4.627045   5.272457   5.595021   4.997275
    14  H    3.919362   2.855798   4.452085   4.155307   2.832058
    15  H    2.136372   5.192528   4.724488   5.609583   5.936632
    16  H    1.082307   4.410062   2.952378   4.198220   5.375611
                   11         12         13         14         15
    11  H    0.000000
    12  H    2.686947   0.000000
    13  H    6.110646   6.620083   0.000000
    14  H    5.500751   4.991726   2.473719   0.000000
    15  H    5.188282   6.681139   2.463174   4.294661   0.000000
    16  H    3.019872   5.158049   4.290143   5.001611   2.467892
                   16
    16  H    0.000000
 Stoichiometry    C8H7N
 Framework group  C1[X(C8H7N)]
 Deg. of freedom    42
 Full point group                 C1      NOp   1
 Largest Abelian subgroup         C1      NOp   1
 Largest concise Abelian subgroup C1      NOp   1
                         Standard orientation:                         
 ---------------------------------------------------------------------
 Center     Atomic      Atomic             Coordinates (Angstroms)
 Number     Number       Type             X           Y           Z
 ---------------------------------------------------------------------
      1          6           0       -2.151063    0.689208    0.000088
      2          6           0       -2.127927   -0.715818    0.000075
      3          6           0       -0.932297   -1.413100   -0.000011
      4          6           0        0.246911   -0.670201   -0.000042
      5          6           0        0.248193    0.748299    0.000000
      6          6           0       -0.979474    1.423526    0.000032
      7          7           0        1.561774   -1.077592   -0.000285
      8          6           0        1.620133    1.162900   -0.000157
      9          6           0        2.382013    0.030806    0.000248
     10          1           0        1.876315   -2.030011    0.000438
     11          1           0        1.992173    2.173010   -0.000348
     12          1           0        3.452549   -0.082425    0.000408
     13          1           0       -3.061594   -1.262020    0.000088
     14          1           0       -0.917252   -2.495342   -0.000073
     15          1           0       -3.104203    1.200785    0.000090
     16          1           0       -1.009348    2.505421   -0.000015
 ---------------------------------------------------------------------
 Rotational constants (GHZ):           3.9080822           1.6429452           1.1566805
 Standard basis: 6-31+G(d) (6D, 7F)
 There are   185 symmetry adapted cartesian basis functions of A   symmetry.
 There are   185 symmetry adapted basis functions of A   symmetry.
   185 basis functions,   316 primitive gaussians,   185 cartesian basis functions
    31 alpha electrons       31 beta electrons
       nuclear repulsion energy       401.3368668897 Hartrees.
 NAtoms=   16 NActive=   16 NUniq=   16 SFac= 1.00D+00 NAtFMM=   60 NAOKFM=F Big=F
 Integral buffers will be    131072 words long.
 Regular integral format.
 Two-electron integral symmetry is turned on.
 One-electron integrals computed using PRISM.
 NBasis=   185 RedAO= T EigKep=  1.26D-06  NBF=   185
 NBsUse=   185 1.00D-06 EigRej= -1.00D+00 NBFU=   185
 ExpMin= 4.38D-02 ExpMax= 4.17D+03 ExpMxC= 6.27D+02 IAcc=3 IRadAn=         5 AccDes= 0.00D+00
 Harris functional with IExCor= 1009 and IRadAn=       5 diagonalized for initial guess.
 HarFok:  IExCor= 1009 AccDes= 0.00D+00 IRadAn=         5 IDoV= 1 UseB2=F ITyADJ=14
 ICtDFT=  3500011 ScaDFX=  1.000000  1.000000  1.000000  1.000000
 FoFCou: FMM=F IPFlag=           0 FMFlag=      100000 FMFlg1=           0
         NFxFlg=           0 DoJE=T BraDBF=F KetDBF=T FulRan=T
         wScrn=  0.000000 ICntrl=       500 IOpCl=  0 I1Cent=   200000004 NGrid=           0
         NMat0=    1 NMatS0=      1 NMatT0=    0 NMatD0=    1 NMtDS0=    0 NMtDT0=    0
 Petite list used in FoFCou.
 Keep J ints in memory in canonical form, NReq=152071459.
 Requested convergence on RMS density matrix=1.00D-08 within 128 cycles.
 Requested convergence on MAX density matrix=1.00D-06.
 Requested convergence on             energy=1.00D-06.
 No special actions if energy rises.
 SCF Done:  E(RPBE-PBE) =  -363.370217365     A.U. after   15 cycles
            NFock= 15  Conv=0.10D-07     -V/T= 2.0091
 DoSCS=F DFT=T ScalE2(SS,OS)=  1.000000  1.000000
 ExpMin= 4.38D-02 ExpMax= 4.17D+03 ExpMxC= 6.27D+02 IAcc=3 IRadAn=         5 AccDes= 0.00D+00
 HarFok:  IExCor=  205 AccDes= 0.00D+00 IRadAn=         5 IDoV=-2 UseB2=F ITyADJ=14
 ICtDFT= 12500011 ScaDFX=  1.000000  1.000000  1.000000  1.000000
 Range of M.O.s used for correlation:    10   185
 NBasis=   185 NAE=    31 NBE=    31 NFC=     9 NFV=     0
 NROrb=    176 NOA=    22 NOB=    22 NVA=   154 NVB=   154

 **** Warning!!: The largest alpha MO coefficient is  0.19938059D+03

 Keep J ints in memory in canonical form, NReq=168659827.
 Orbital symmetries:
       Occupied  (A) (A) (A) (A) (A) (A) (A) (A) (A) (A) (A) (A)
                 (A) (A) (A) (A) (A) (A) (A) (A) (A) (A) (A) (A)
                 (A) (A) (A) (A) (A) (A) (A)
       Virtual   (A) (A) (A) (A) (A) (A) (A) (A) (A) (A) (A) (A)
                 (A) (A) (A) (A) (A) (A) (A) (A) (A) (A) (A) (A)
                 (A) (A) (A) (A) (A) (A) (A) (A) (A) (A) (A) (A)
                 (A) (A) (A) (A) (A) (A) (A) (A) (A) (A) (A) (A)
                 (A) (A) (A) (A) (A) (A) (A) (A) (A) (A) (A) (A)
                 (A) (A) (A) (A) (A) (A) (A) (A) (A) (A) (A) (A)
                 (A) (A) (A) (A) (A) (A) (A) (A) (A) (A) (A) (A)
                 (A) (A) (A) (A) (A) (A) (A) (A) (A) (A) (A) (A)
                 (A) (A) (A) (A) (A) (A) (A) (A) (A) (A) (A) (A)
                 (A) (A) (A) (A) (A) (A) (A) (A) (A) (A) (A) (A)
                 (A) (A) (A) (A) (A) (A) (A) (A) (A) (A) (A) (A)
                 (A) (A) (A) (A) (A) (A) (A) (A) (A) (A) (A) (A)
                 (A) (A) (A) (A) (A) (A) (A) (A) (A) (A)
    24 initial guesses have been made.
 Convergence on wavefunction:    0.000001000000000
 Iteration     1 Dimension    24 NMult     0 NNew     24
 CISAX will form    24 AO SS matrices at one time.
 New state      1 was old state      3
 New state      2 was old state      1
 New state      3 was old state      2
 New state      4 was old state      5
 New state      5 was old state      6
 New state      6 was old state      8
 Iteration     2 Dimension    48 NMult    24 NNew     24
 New state      1 was old state      2
 New state      2 was old state      1
 Iteration     3 Dimension    54 NMult    48 NNew      6
 Iteration     4 Dimension    60 NMult    54 NNew      6
 Iteration     5 Dimension    66 NMult    60 NNew      6
 Iteration     6 Dimension    72 NMult    66 NNew      6
 Iteration     7 Dimension    78 NMult    72 NNew      6
 Iteration     8 Dimension    84 NMult    78 NNew      6
 Iteration     9 Dimension    90 NMult    84 NNew      6
 Iteration    10 Dimension    96 NMult    90 NNew      6
 Iteration    11 Dimension   102 NMult    96 NNew      6
 Iteration    12 Dimension   108 NMult   102 NNew      6
 Iteration    13 Dimension   114 NMult   108 NNew      6
 Iteration    14 Dimension   120 NMult   114 NNew      6
 Iteration    15 Dimension   126 NMult   120 NNew      6
 Iteration    16 Dimension   129 NMult   126 NNew      3
 Iteration    17 Dimension   134 NMult   129 NNew      5
 Iteration    18 Dimension   138 NMult   134 NNew      4
 Iteration    19 Dimension   139 NMult   138 NNew      1
 Iteration    20 Dimension   140 NMult   139 NNew      1
 Iteration    21 Dimension   141 NMult   140 NNew      1
 ***********************************************************************
 Excited states from <AA,BB:AA,BB> singles matrix:
 ***********************************************************************
 
 Ground to excited state transition densities written to RWF  633
 Ground to excited state transition electric dipole moments (Au):
       state          X           Y           Z        Dip. S.      Osc.
         1        -0.4640      0.5297     -0.0002      0.4958      0.0540
         2         0.0007     -0.0010     -0.1055      0.0111      0.0012
         3        -0.3910     -0.1218     -0.0000      0.1677      0.0193
         4        -0.0002      0.0002     -0.1278      0.0163      0.0020
         5        -0.0003      0.0000     -0.0110      0.0001      0.0000
         6        -0.0004     -0.0001     -0.0975      0.0095      0.0012
 Ground to excited state transition velocity dipole moments (Au):
       state          X           Y           Z        Dip. S.      Osc.
         1         0.0675     -0.0948      0.0000      0.0135      0.0553
         2        -0.0001      0.0002      0.0092      0.0001      0.0003
         3         0.0634      0.0221      0.0000      0.0045      0.0174
         4         0.0000     -0.0000      0.0245      0.0006      0.0022
         5         0.0001     -0.0000      0.0007      0.0000      0.0000
         6         0.0001      0.0000      0.0191      0.0004      0.0012
 Ground to excited state transition magnetic dipole moments (Au):
       state          X           Y           Z
         1         0.0003     -0.0000      0.2138
         2         0.1112     -0.0333     -0.0001
         3        -0.0001     -0.0002      0.0093
         4         0.0078     -0.1802      0.0000
         5        -0.2694      0.0902     -0.0002
         6        -0.0432     -0.3235     -0.0003
 Ground to excited state transition velocity quadrupole moments (Au):
       state          XX          YY          ZZ          XY          XZ          YZ
         1         0.1466     -0.0877      0.0107      0.0701      0.0001      0.0001
         2        -0.0003      0.0001      0.0001     -0.0000      0.0306      0.0503
         3         0.0510     -0.0824      0.0241      0.0103      0.0001     -0.0001
         4        -0.0000      0.0001     -0.0000     -0.0000      0.1131     -0.0468
         5         0.0001      0.0001     -0.0000     -0.0001     -0.1105     -0.2012
         6        -0.0001      0.0001     -0.0000     -0.0001      0.2801      0.0230
 <0|del|b> * <b|rxdel|0> + <0|del|b> * <b|delr+rdel|0>
 Rotatory Strengths (R) in cgs (10**-40 erg-esu-cm/Gauss)
       state          XX          YY          ZZ    R(velocity)    E-M Angle
         1         0.0380      0.0723      0.0238      0.0447       90.00
         2        -0.0267     -0.0350     -0.0138     -0.0252       90.00
         3        -0.0109     -0.0268     -0.0118     -0.0165       90.00
         4         0.0228     -0.0007      0.0101      0.0107       90.00
         5        -0.0040     -0.0504     -0.0069     -0.0204       90.00
         6        -0.0325     -0.0085     -0.0093     -0.0168       90.00
 1/2[<0|r|b>*<b|rxdel|0> + (<0|rxdel|b>*<b|r|0>)*]
 Rotatory Strengths (R) in cgs (10**-40 erg-esu-cm/Gauss)
       state          XX          YY          ZZ     R(length)
         1         0.1141      0.0120      0.0337      0.0533
         2        -0.0561     -0.0231     -0.0066     -0.0286
         3        -0.0362     -0.0153      0.0003     -0.0171
         4         0.0012      0.0267      0.0039      0.0106
         5        -0.0619     -0.0031     -0.0013     -0.0221
         6        -0.0112     -0.0305     -0.0218     -0.0212
  1/2[<0|del|b>*<b|r|0> + (<0|r|b>*<b|del|0>)*] (Au)
       state          X           Y           Z        Dip. S.   Osc.(frdel)
         1        -0.0313     -0.0502     -0.0000      0.0815      0.0543
         2        -0.0000     -0.0000     -0.0010      0.0010      0.0006
         3        -0.0248     -0.0027     -0.0000      0.0275      0.0183
         4        -0.0000     -0.0000     -0.0031      0.0031      0.0021
         5        -0.0000     -0.0000     -0.0000      0.0000      0.0000
         6        -0.0000     -0.0000     -0.0019      0.0019      0.0012

 Excitation energies and oscillator strengths:
 
 Excited State   1:      Singlet-A      4.4430 eV  279.05 nm  f=0.0540  <S**2>=0.000
      29 -> 32         0.13623
      30 -> 34         0.11724
      31 -> 32         0.66186
 
 Excited State   2:      Singlet-A      4.5725 eV  271.15 nm  f=0.0012  <S**2>=0.000
      31 -> 33         0.70692
 
 Excited State   3:      Singlet-A      4.7004 eV  263.77 nm  f=0.0193  <S**2>=0.000
      30 -> 32         0.55217
      31 -> 34        -0.43453
 This state for optimization and/or second-order correction.
 Total Energy, E(TD-HF/TD-DFT) =  -363.197481576    
 Copying the excited state density for this state as the 1-particle RhoCI density.
 
 Excited State   4:      Singlet-A      5.0223 eV  246.87 nm  f=0.0020  <S**2>=0.000
      30 -> 33         0.70671
 
 Excited State   5:      Singlet-A      5.1168 eV  242.31 nm  f=0.0000  <S**2>=0.000
      31 -> 35         0.70668
 
 Excited State   6:      Singlet-A      5.2968 eV  234.07 nm  f=0.0012  <S**2>=0.000
      31 -> 36         0.70686
 SavETr:  write IOETrn=   770 NScale= 10 NData=  16 NLR=1 NState=    6 LETran=     118.
          IDoAtm=1111111111111111
          Differentiating once with respect to electric field.
                with respect to dipole field.
          Differentiating once with respect to nuclear coordinates.
 Keep J ints in memory in canonical form, NReq=152083851.
          There are     1 degrees of freedom in the 1st order CPHF.  IDoFFX=0 NUNeed=     1.
 LinEq1:  Iter=  0 NonCon=     1 RMS=7.12D-03 Max=2.37D-01 NDo=     1
 AX will form     1 AO Fock derivatives at one time.
 LinEq1:  Iter=  1 NonCon=     1 RMS=4.04D-03 Max=1.05D-01 NDo=     1
 LinEq1:  Iter=  2 NonCon=     1 RMS=4.59D-03 Max=1.42D-01 NDo=     1
 LinEq1:  Iter=  3 NonCon=     1 RMS=2.25D-03 Max=5.02D-02 NDo=     1
 LinEq1:  Iter=  4 NonCon=     1 RMS=2.25D-03 Max=7.59D-02 NDo=     1
 LinEq1:  Iter=  5 NonCon=     1 RMS=1.24D-03 Max=2.95D-02 NDo=     1
 LinEq1:  Iter=  6 NonCon=     1 RMS=8.01D-04 Max=1.45D-02 NDo=     1
 LinEq1:  Iter=  7 NonCon=     1 RMS=5.64D-04 Max=1.02D-02 NDo=     1
 LinEq1:  Iter=  8 NonCon=     1 RMS=2.12D-04 Max=3.83D-03 NDo=     1
 LinEq1:  Iter=  9 NonCon=     1 RMS=1.73D-04 Max=5.23D-03 NDo=     1
 LinEq1:  Iter= 10 NonCon=     1 RMS=7.79D-05 Max=1.66D-03 NDo=     1
 LinEq1:  Iter= 11 NonCon=     1 RMS=6.29D-05 Max=1.42D-03 NDo=     1
 LinEq1:  Iter= 12 NonCon=     1 RMS=2.45D-05 Max=5.79D-04 NDo=     1
 LinEq1:  Iter= 13 NonCon=     1 RMS=1.40D-05 Max=3.38D-04 NDo=     1
 LinEq1:  Iter= 14 NonCon=     1 RMS=6.05D-06 Max=5.34D-05 NDo=     1
 LinEq1:  Iter= 15 NonCon=     1 RMS=1.12D-06 Max=2.28D-05 NDo=     1
 LinEq1:  Iter= 16 NonCon=     1 RMS=8.75D-07 Max=1.72D-05 NDo=     1
 LinEq1:  Iter= 17 NonCon=     1 RMS=1.92D-07 Max=1.51D-06 NDo=     1
 LinEq1:  Iter= 18 NonCon=     1 RMS=3.50D-08 Max=2.97D-07 NDo=     1
 LinEq1:  Iter= 19 NonCon=     1 RMS=1.22D-08 Max=1.39D-07 NDo=     1
 LinEq1:  Iter= 20 NonCon=     1 RMS=3.54D-09 Max=3.13D-08 NDo=     1
 LinEq1:  Iter= 21 NonCon=     1 RMS=5.32D-10 Max=5.64D-09 NDo=     1
 LinEq1:  Iter= 22 NonCon=     0 RMS=8.23D-11 Max=6.87D-10 NDo=     1
 Linear equations converged to 1.000D-10 1.000D-09 after    22 iterations.
 End of Minotr F.D. properties file   721 does not exist.
 End of Minotr F.D. properties file   722 does not exist.
 End of Minotr F.D. properties file   788 does not exist.

 **********************************************************************

            Population analysis using the CI Density.

 **********************************************************************

 Orbital symmetries:
       Occupied  (A) (A) (A) (A) (A) (A) (A) (A) (A) (A) (A) (A)
                 (A) (A) (A) (A) (A) (A) (A) (A) (A) (A) (A) (A)
                 (A) (A) (A) (A) (A) (A) (A)
       Virtual   (A) (A) (A) (A) (A) (A) (A) (A) (A) (A) (A) (A)
                 (A) (A) (A) (A) (A) (A) (A) (A) (A) (A) (A) (A)
                 (A) (A) (A) (A) (A) (A) (A) (A) (A) (A) (A) (A)
                 (A) (A) (A) (A) (A) (A) (A) (A) (A) (A) (A) (A)
                 (A) (A) (A) (A) (A) (A) (A) (A) (A) (A) (A) (A)
                 (A) (A) (A) (A) (A) (A) (A) (A) (A) (A) (A) (A)
                 (A) (A) (A) (A) (A) (A) (A) (A) (A) (A) (A) (A)
                 (A) (A) (A) (A) (A) (A) (A) (A) (A) (A) (A) (A)
                 (A) (A) (A) (A) (A) (A) (A) (A) (A) (A) (A) (A)
                 (A) (A) (A) (A) (A) (A) (A) (A) (A) (A) (A) (A)
                 (A) (A) (A) (A) (A) (A) (A) (A) (A) (A) (A) (A)
                 (A) (A) (A) (A) (A) (A) (A) (A) (A) (A) (A) (A)
                 (A) (A) (A) (A) (A) (A) (A) (A) (A) (A)
 The electronic state is 1-A.
 Alpha  occ. eigenvalues --  -14.05708  -9.93305  -9.93169  -9.90258  -9.89891
 Alpha  occ. eigenvalues --   -9.89660  -9.89650  -9.89216  -9.89074  -0.90542
 Alpha  occ. eigenvalues --   -0.76638  -0.71393  -0.66877  -0.65121  -0.56788
 Alpha  occ. eigenvalues --   -0.54022  -0.52668  -0.48949  -0.43484  -0.42254
 Alpha  occ. eigenvalues --   -0.39236  -0.38309  -0.37935  -0.36548  -0.34801
 Alpha  occ. eigenvalues --   -0.31209  -0.29870  -0.29344  -0.24908  -0.20074
 Alpha  occ. eigenvalues --   -0.18387
 Alpha virt. eigenvalues --   -0.04211  -0.01595  -0.00809   0.00434   0.01114
 Alpha virt. eigenvalues --    0.02025   0.02619   0.02835   0.04546   0.04750
 Alpha virt. eigenvalues --    0.05446   0.05703   0.07275   0.07519   0.09505
 Alpha virt. eigenvalues --    0.09813   0.09941   0.11230   0.12031   0.12452
 Alpha virt. eigenvalues --    0.14085   0.14127   0.14704   0.14998   0.15713
 Alpha virt. eigenvalues --    0.16212   0.16922   0.17020   0.18021   0.18244
 Alpha virt. eigenvalues --    0.18410   0.18530   0.20151   0.20566   0.21466
 Alpha virt. eigenvalues --    0.22079   0.22080   0.22764   0.23768   0.24210
 Alpha virt. eigenvalues --    0.25472   0.25822   0.26139   0.27196   0.27539
 Alpha virt. eigenvalues --    0.28344   0.29458   0.30782   0.32512   0.33746
 Alpha virt. eigenvalues --    0.34645   0.36776   0.39105   0.41428   0.47437
 Alpha virt. eigenvalues --    0.53699   0.57742   0.63098   0.63753   0.65603
 Alpha virt. eigenvalues --    0.67255   0.67762   0.68547   0.69290   0.69502
 Alpha virt. eigenvalues --    0.70883   0.70991   0.73257   0.74690   0.75211
 Alpha virt. eigenvalues --    0.76924   0.80767   0.84440   0.85049   0.86178
 Alpha virt. eigenvalues --    0.88594   0.89163   0.90343   0.90717   0.93455
 Alpha virt. eigenvalues --    0.95190   0.98301   1.00176   1.01118   1.05157
 Alpha virt. eigenvalues --    1.06737   1.06947   1.12471   1.13310   1.15802
 Alpha virt. eigenvalues --    1.17607   1.17905   1.20268   1.25946   1.26520
 Alpha virt. eigenvalues --    1.27999   1.31824   1.35102   1.36635   1.39536
 Alpha virt. eigenvalues --    1.39765   1.40341   1.43302   1.43817   1.48540
 Alpha virt. eigenvalues --    1.53232   1.59241   1.72287   1.77738   1.81410
 Alpha virt. eigenvalues --    1.82355   1.85246   1.88117   1.92329   1.92677
 Alpha virt. eigenvalues --    1.93464   1.99070   2.02679   2.07097   2.09959
 Alpha virt. eigenvalues --    2.10142   2.12564   2.17465   2.18719   2.19212
 Alpha virt. eigenvalues --    2.21598   2.24318   2.30602   2.33325   2.37395
 Alpha virt. eigenvalues --    2.47394   2.48075   2.56278   2.58440   2.59238
 Alpha virt. eigenvalues --    2.62189   2.65832   2.73176   2.77050   2.77860
 Alpha virt. eigenvalues --    2.87785   2.90407   3.02962   3.15961   3.36459
 Alpha virt. eigenvalues --    4.05895   4.17268   4.20266   4.23706   4.27257
 Alpha virt. eigenvalues --    4.30762   4.39122   4.43025   4.69885
          Condensed to atoms (all electrons):
               1          2          3          4          5          6
     1  C    6.046048   0.282858   0.191474  -0.736367  -0.046284  -0.251111
     2  C    0.282858   6.172652  -0.143730   0.440872  -1.000229   0.799485
     3  C    0.191474  -0.143730  15.365605  -3.518293  -4.202680  -3.605908
     4  C   -0.736367   0.440872  -3.518293  16.014336  -4.434158  -0.743602
     5  C   -0.046284  -1.000229  -4.202680  -4.434158  17.151492  -0.640263
     6  C   -0.251111   0.799485  -3.605908  -0.743602  -0.640263  14.176904
     7  N   -0.038854   0.006674  -0.522581  -0.574066   0.940372   0.174634
     8  C    0.249632  -0.380458   4.036902   0.991591  -5.890571  -4.295716
     9  C   -0.091578   0.049143  -1.494474  -0.360036   2.257362   1.088221
    10  H   -0.002117  -0.013529  -0.155011  -0.089368   0.207902   0.031472
    11  H    0.000926   0.001065   0.006072   0.072858  -0.060656  -0.030493
    12  H    0.000666   0.000946   0.035774   0.108566  -0.094386  -0.027702
    13  H   -0.006786   0.276924  -0.016603   0.024403  -0.000946   0.018187
    14  H    0.021869   0.035418   0.224817   0.013646   0.019357  -0.028317
    15  H    0.298547  -0.016705   0.035256  -0.027904   0.039243  -0.038574
    16  H    0.013350   0.026099  -0.044879   0.027941   0.053834   0.247773
               7          8          9         10         11         12
     1  C   -0.038854   0.249632  -0.091578  -0.002117   0.000926   0.000666
     2  C    0.006674  -0.380458   0.049143  -0.013529   0.001065   0.000946
     3  C   -0.522581   4.036902  -1.494474  -0.155011   0.006072   0.035774
     4  C   -0.574066   0.991591  -0.360036  -0.089368   0.072858   0.108566
     5  C    0.940372  -5.890571   2.257362   0.207902  -0.060656  -0.094386
     6  C    0.174634  -4.295716   1.088221   0.031472  -0.030493  -0.027702
     7  N    7.412942  -0.691262   0.503814   0.267028   0.007866  -0.062965
     8  C   -0.691262  14.336658  -2.855754   0.011525   0.343880   0.004646
     9  C    0.503814  -2.855754   6.963490  -0.036999  -0.053481   0.334861
    10  H    0.267028   0.011525  -0.036999   0.360820  -0.000102  -0.002910
    11  H    0.007866   0.343880  -0.053481  -0.000102   0.508109  -0.001402
    12  H   -0.062965   0.004646   0.334861  -0.002910  -0.001402   0.496499
    13  H   -0.000551  -0.001271   0.001598  -0.000003   0.000000  -0.000000
    14  H   -0.012222  -0.003844   0.006230   0.002489   0.000002   0.000002
    15  H    0.000359   0.005462  -0.000216  -0.000000  -0.000002  -0.000000
    16  H   -0.001039  -0.049344   0.004340   0.000005   0.001697  -0.000002
              13         14         15         16
     1  C   -0.006786   0.021869   0.298547   0.013350
     2  C    0.276924   0.035418  -0.016705   0.026099
     3  C   -0.016603   0.224817   0.035256  -0.044879
     4  C    0.024403   0.013646  -0.027904   0.027941
     5  C   -0.000946   0.019357   0.039243   0.053834
     6  C    0.018187  -0.028317  -0.038574   0.247773
     7  N   -0.000551  -0.012222   0.000359  -0.001039
     8  C   -0.001271  -0.003844   0.005462  -0.049344
     9  C    0.001598   0.006230  -0.000216   0.004340
    10  H   -0.000003   0.002489  -0.000000   0.000005
    11  H    0.000000   0.000002  -0.000002   0.001697
    12  H   -0.000000   0.000002  -0.000000  -0.000002
    13  H    0.527250  -0.005473  -0.005405  -0.000168
    14  H   -0.005473   0.539699  -0.000167   0.000021
    15  H   -0.005405  -0.000167   0.525840  -0.005336
    16  H   -0.000168   0.000021  -0.005336   0.535442
 Mulliken charges:
               1
     1  C    0.067727
     2  C   -0.537486
     3  C   -0.191743
     4  C   -1.210418
     5  C    1.700610
     6  C   -0.874990
     7  N   -0.410148
     8  C    0.187922
     9  C   -0.316521
    10  H    0.418797
    11  H    0.203660
    12  H    0.207406
    13  H    0.188843
    14  H    0.186474
    15  H    0.189601
    16  H    0.190265
 Sum of Mulliken charges =  -0.00000
 Mulliken charges with hydrogens summed into heavy atoms:
               1
     1  C    0.257329
     2  C   -0.348643
     3  C   -0.005269
     4  C   -1.210418
     5  C    1.700610
     6  C   -0.684725
     7  N    0.008649
     8  C    0.391583
     9  C   -0.109115
 Electronic spatial extent (au):  <R**2>=           1007.8442
 Charge=             -0.0000 electrons
 Dipole moment (field-independent basis, Debye):
    X=              2.2405    Y=             -1.3342    Z=              0.0001  Tot=              2.6076
 Quadrupole moment (field-independent basis, Debye-Ang):
   XX=            -46.4786   YY=            -46.1853   ZZ=            -59.5334
   XY=             -2.9625   XZ=              0.0003   YZ=             -0.0022
 Traceless Quadrupole moment (field-independent basis, Debye-Ang):
   XX=              4.2538   YY=              4.5472   ZZ=             -8.8010
   XY=             -2.9625   XZ=              0.0003   YZ=             -0.0022
 Octapole moment (field-independent basis, Debye-Ang**2):
  XXX=             17.7081  YYY=             -9.1579  ZZZ=             -0.0081  XYY=             11.3243
  XXY=             -6.5772  XXZ=             -0.0003  XZZ=              3.0101  YZZ=             -1.1892
  YYZ=             -0.0011  XYZ=             -0.0031
 Hexadecapole moment (field-independent basis, Debye-Ang**3):
 XXXX=           -849.3801 YYYY=           -388.2573 ZZZZ=            -81.8226 XXXY=            -19.2909
 XXXZ=             -0.0071 YYYX=            -18.9716 YYYZ=             -0.0051 ZZZX=             -0.0096
 ZZZY=              0.0044 XXYY=           -200.7652 XXZZ=           -198.2105 YYZZ=            -99.9731
 XXYZ=             -0.0131 YYXZ=              0.0033 ZZXY=             -3.4029
 N-N= 4.013368668897D+02 E-N=-1.644918866800D+03  KE= 3.603194430152D+02
 Calling FoFJK, ICntrl=  10005527 FMM=F ISym2X=0 I1Cent= 0 IOpClX= 0 NMat=1 NMatS=1 NMatT=0.
 ***** Axes restored to original set *****
 -------------------------------------------------------------------
 Center     Atomic                   Forces (Hartrees/Bohr)
 Number     Number              X              Y              Z
 -------------------------------------------------------------------
      1        6          -0.027717117    0.004092470    0.000004955
      2        6          -0.018629848   -0.014017821   -0.000002844
      3        6           0.004014966   -0.026404725    0.000011552
      4        6           0.008821055   -0.014652844   -0.000004465
      5        6           0.014445619    0.026508441   -0.000025729
      6        6           0.021722317    0.030242460   -0.000011618
      7        7          -0.005801927   -0.005598359    0.000010957
      8        6          -0.026443546    0.018092999    0.000030923
      9        6           0.028534549   -0.013856907   -0.000030497
     10        1           0.003860170   -0.011547532    0.000011429
     11        1           0.002941271    0.009013902    0.000005612
     12        1           0.009285811   -0.001195688   -0.000001754
     13        1          -0.007582714   -0.004584978    0.000000306
     14        1           0.000088384   -0.008828922   -0.000001361
     15        1          -0.007899781    0.004141094    0.000001400
     16        1           0.000360790    0.008596413    0.000001133
 -------------------------------------------------------------------
 Cartesian Forces:  Max     0.030242460 RMS     0.012387802

 GradGradGradGradGradGradGradGradGradGradGradGradGradGradGradGradGradGrad
 Berny optimization.
 FormGI is forming the generalized inverse of G from B-inverse, IUseBI=4.
 Internal  Forces:  Max     0.044912279 RMS     0.010534976
 Search for a local minimum.
 Step number   1 out of a maximum of   94
 All quantities printed in internal units (Hartrees-Bohrs-Radians)
 Mixed Optimization -- RFO/linear search
 Second derivative matrix not updated -- first step.
 ITU=  0
     Eigenvalues ---    0.01853   0.01931   0.01986   0.02012   0.02070
     Eigenvalues ---    0.02113   0.02148   0.02153   0.02172   0.02209
     Eigenvalues ---    0.02233   0.02248   0.02338   0.16000   0.16000
     Eigenvalues ---    0.16000   0.16000   0.16000   0.16000   0.16000
     Eigenvalues ---    0.22000   0.22188   0.22662   0.24011   0.24651
     Eigenvalues ---    0.35712   0.35717   0.35783   0.35790   0.36420
     Eigenvalues ---    0.36427   0.37009   0.38432   0.42633   0.43465
     Eigenvalues ---    0.45769   0.46692   0.47162   0.47468   0.47567
     Eigenvalues ---    0.48125   0.50955
 RFO step:  Lambda=-1.94890327D-02 EMin= 1.85287394D-02
 Linear search not attempted -- first point.
 Iteration  1 RMS(Cart)=  0.03588715 RMS(Int)=  0.00010513
 Iteration  2 RMS(Cart)=  0.00014697 RMS(Int)=  0.00001848
 Iteration  3 RMS(Cart)=  0.00000002 RMS(Int)=  0.00001848
 Variable       Old X    -DE/DX   Delta X   Delta X   Delta X     New X
                                 (Linear)    (Quad)   (Total)
    R1        2.65547   0.03496   0.00000   0.07613   0.07614   2.73161
    R2        2.61291   0.04491   0.00000   0.08962   0.08963   2.70255
    R3        2.04421   0.00892   0.00000   0.02364   0.02364   2.06785
    R4        2.61557   0.03035   0.00000   0.06077   0.06077   2.67634
    R5        2.04411   0.00886   0.00000   0.02348   0.02348   2.06759
    R6        2.63373   0.02823   0.00000   0.05723   0.05721   2.69094
    R7        2.04534   0.00883   0.00000   0.02344   0.02344   2.06878
    R8        2.68058   0.03749   0.00000   0.08086   0.08081   2.76139
    R9        2.60126   0.01261   0.00000   0.02413   0.02413   2.62540
   R10        2.64771   0.01824   0.00000   0.03804   0.03805   2.68576
   R11        2.70839   0.00007   0.00000  -0.00060  -0.00064   2.70775
   R12        2.04526   0.00858   0.00000   0.02279   0.02279   2.06805
   R13        2.60573   0.01886   0.00000   0.03815   0.03820   2.64393
   R14        1.89542   0.01218   0.00000   0.02479   0.02479   1.92021
   R15        2.57870   0.03676   0.00000   0.06922   0.06924   2.64794
   R16        2.03419   0.00948   0.00000   0.02469   0.02469   2.05888
   R17        2.03430   0.00936   0.00000   0.02440   0.02440   2.05870
    A1        2.11420   0.00134   0.00000   0.00936   0.00938   2.12358
    A2        2.07986  -0.00076   0.00000  -0.00518  -0.00519   2.07467
    A3        2.08912  -0.00058   0.00000  -0.00418  -0.00419   2.08493
    A4        2.11523  -0.00064   0.00000   0.00033   0.00032   2.11555
    A5        2.08365   0.00045   0.00000   0.00057   0.00057   2.08423
    A6        2.08430   0.00019   0.00000  -0.00090  -0.00089   2.08341
    A7        2.05144  -0.00276   0.00000  -0.01268  -0.01272   2.03872
    A8        2.11267   0.00134   0.00000   0.00615   0.00616   2.11883
    A9        2.11908   0.00141   0.00000   0.00654   0.00655   2.12563
   A10        2.13389   0.00402   0.00000   0.01295   0.01293   2.14682
   A11        2.27895  -0.00368   0.00000  -0.00954  -0.00951   2.26945
   A12        1.87035  -0.00034   0.00000  -0.00340  -0.00343   1.86692
   A13        2.07274   0.00228   0.00000   0.00742   0.00744   2.08019
   A14        1.86517  -0.00032   0.00000  -0.00429  -0.00436   1.86081
   A15        2.34527  -0.00196   0.00000  -0.00312  -0.00308   2.34219
   A16        2.07887  -0.00425   0.00000  -0.01737  -0.01736   2.06151
   A17        2.10306   0.00274   0.00000   0.01209   0.01209   2.11515
   A18        2.10125   0.00151   0.00000   0.00528   0.00527   2.10652
   A19        1.90743   0.00180   0.00000   0.00855   0.00860   1.91602
   A20        2.19023  -0.00086   0.00000  -0.00404  -0.00406   2.18617
   A21        2.18553  -0.00094   0.00000  -0.00451  -0.00453   2.18100
   A22        1.86968   0.00299   0.00000   0.01254   0.01252   1.88221
   A23        2.21717  -0.00186   0.00000  -0.00828  -0.00828   2.20889
   A24        2.19633  -0.00113   0.00000  -0.00425  -0.00425   2.19208
   A25        1.91215  -0.00413   0.00000  -0.01339  -0.01333   1.89882
   A26        2.10250   0.00185   0.00000   0.00549   0.00546   2.10796
   A27        2.26854   0.00228   0.00000   0.00790   0.00787   2.27640
    D1       -0.00001   0.00000   0.00000   0.00003   0.00003   0.00002
    D2       -3.14156   0.00000   0.00000   0.00000   0.00000  -3.14155
    D3        3.14152   0.00000   0.00000   0.00006   0.00006   3.14158
    D4       -0.00002   0.00000   0.00000   0.00003   0.00003   0.00001
    D5       -0.00003  -0.00000   0.00000   0.00000   0.00000  -0.00003
    D6        3.14153   0.00000   0.00000   0.00007   0.00007  -3.14158
    D7       -3.14157  -0.00000   0.00000  -0.00003  -0.00003   3.14159
    D8       -0.00001   0.00000   0.00000   0.00005   0.00005   0.00004
    D9        0.00003  -0.00000   0.00000  -0.00006  -0.00006  -0.00003
   D10       -3.14154   0.00000   0.00000   0.00001   0.00001  -3.14153
   D11        3.14158  -0.00000   0.00000  -0.00004  -0.00004   3.14154
   D12        0.00001   0.00000   0.00000   0.00004   0.00004   0.00005
   D13       -0.00001   0.00000   0.00000   0.00007   0.00007   0.00006
   D14       -3.14144   0.00000   0.00000   0.00006   0.00006  -3.14138
   D15        3.14156  -0.00000   0.00000  -0.00001  -0.00001   3.14155
   D16        0.00013  -0.00000   0.00000  -0.00002  -0.00002   0.00011
   D17       -0.00004  -0.00000   0.00000  -0.00004  -0.00004  -0.00007
   D18       -3.14151  -0.00001   0.00000  -0.00016  -0.00016   3.14151
   D19        3.14143  -0.00000   0.00000  -0.00003  -0.00003   3.14140
   D20       -0.00005  -0.00001   0.00000  -0.00016  -0.00016  -0.00021
   D21       -3.14124  -0.00000   0.00000  -0.00015  -0.00016  -3.14140
   D22       -0.00113   0.00000   0.00000   0.00005   0.00005  -0.00108
   D23        0.00049  -0.00001   0.00000  -0.00016  -0.00017   0.00033
   D24        3.14060   0.00000   0.00000   0.00005   0.00004   3.14065
   D25        0.00005  -0.00000   0.00000   0.00000   0.00000   0.00006
   D26       -3.14151  -0.00000   0.00000  -0.00007  -0.00007  -3.14158
   D27        3.14150   0.00001   0.00000   0.00017   0.00017  -3.14152
   D28       -0.00007   0.00000   0.00000   0.00010   0.00010   0.00003
   D29       -0.00041   0.00002   0.00000   0.00042   0.00042   0.00001
   D30        3.14139   0.00001   0.00000   0.00015   0.00015   3.14154
   D31        3.14132   0.00001   0.00000   0.00027   0.00027   3.14159
   D32       -0.00006   0.00000   0.00000  -0.00000  -0.00000  -0.00007
   D33       -0.00077   0.00002   0.00000   0.00045   0.00045  -0.00033
   D34        3.14133   0.00001   0.00000   0.00012   0.00012   3.14145
   D35       -3.14089   0.00001   0.00000   0.00024   0.00024  -3.14065
   D36        0.00121  -0.00000   0.00000  -0.00008  -0.00009   0.00112
   D37        0.00072  -0.00002   0.00000  -0.00053  -0.00054   0.00019
   D38       -3.14144  -0.00001   0.00000  -0.00017  -0.00017   3.14157
   D39       -3.14107  -0.00001   0.00000  -0.00027  -0.00027  -3.14134
   D40       -0.00005   0.00000   0.00000   0.00009   0.00009   0.00004
         Item               Value     Threshold  Converged?
 Maximum Force            0.044912     0.000450     NO 
 RMS     Force            0.010535     0.000300     NO 
 Maximum Displacement     0.117784     0.001800     NO 
 RMS     Displacement     0.035863     0.001200     NO 
 Predicted change in Energy=-1.014789D-02
 GradGradGradGradGradGradGradGradGradGradGradGradGradGradGradGradGradGrad

                          Input orientation:                          
 ---------------------------------------------------------------------
 Center     Atomic      Atomic             Coordinates (Angstroms)
 Number     Number       Type             X           Y           Z
 ---------------------------------------------------------------------
      1          6           0       -2.186125    0.704547    0.000014
      2          6           0       -2.164364   -0.740796    0.000058
      3          6           0       -0.942192   -1.456394    0.000073
      4          6           0        0.254221   -0.684168    0.000003
      5          6           0        0.258387    0.777091   -0.000010
      6          6           0       -0.980436    1.473685   -0.000040
      7          7           0        1.581889   -1.093376   -0.000229
      8          6           0        1.632592    1.182930    0.000029
      9          6           0        2.422136    0.025321    0.000046
     10          1           0        1.898049   -2.059073    0.000508
     11          1           0        2.007138    2.206038   -0.000012
     12          1           0        3.505319   -0.091061    0.000058
     13          1           0       -3.109217   -1.292482    0.000063
     14          1           0       -0.922123   -2.550962    0.000043
     15          1           0       -3.152234    1.218395   -0.000006
     16          1           0       -1.006137    2.567750   -0.000063
 ---------------------------------------------------------------------
                    Distance matrix (angstroms):
                    1          2          3          4          5
     1  C    0.000000
     2  C    1.445507   0.000000
     3  C    2.493398   1.416257   0.000000
     4  C    2.807814   2.419248   1.423986   0.000000
     5  C    2.445588   2.858969   2.535713   1.461264   0.000000
     6  C    1.430126   2.511099   2.930329   2.486103   1.421240
     7  N    4.174980   3.762808   2.550052   1.389300   2.291354
     8  C    3.848565   4.256477   3.687213   2.320767   1.432881
     9  C    4.658049   4.650045   3.676164   2.281059   2.290627
    10  H    4.931336   4.270955   2.903479   2.143020   3.276022
    11  H    4.453980   5.107374   4.702335   3.380238   2.258323
    12  H    5.746784   5.706790   4.652363   3.304756   3.360990
    13  H    2.200050   1.094122   2.173215   3.418005   3.952705
    14  H    3.492284   2.195419   1.094753   2.206514   3.531223
    15  H    1.094260   2.194156   3.469695   3.901753   3.439052
    16  H    2.205424   3.505419   4.024651   3.487617   2.192140
                    6          7          8          9         10
     6  C    0.000000
     7  N    3.627025   0.000000
     8  C    2.629155   2.276870   0.000000
     9  C    3.698007   1.399106   1.401227   0.000000
    10  H    4.556979   1.016134   3.252852   2.149270   0.000000
    11  H    3.076026   3.326705   1.089511   2.219854   4.266506
    12  H    4.750834   2.168921   2.264985   1.089417   2.540942
    13  H    3.490471   4.695329   5.349057   5.686164   5.065607
    14  H    4.025070   2.897349   4.524215   4.221528   2.862747
    15  H    2.186751   5.268416   4.784958   5.700616   6.020561
    16  H    1.094366   4.483494   2.980037   4.268138   5.462763
                   11         12         13         14         15
    11  H    0.000000
    12  H    2.742482   0.000000
    13  H    6.198123   6.722759   0.000000
    14  H    5.586557   5.064914   2.523322   0.000000
    15  H    5.253052   6.785107   2.511245   4.379664   0.000000
    16  H    3.034908   5.236650   4.395944   5.119401   2.535052
                   16
    16  H    0.000000
 Stoichiometry    C8H7N
 Framework group  C1[X(C8H7N)]
 Deg. of freedom    42
 Full point group                 C1      NOp   1
 Largest Abelian subgroup         C1      NOp   1
 Largest concise Abelian subgroup C1      NOp   1
                         Standard orientation:                         
 ---------------------------------------------------------------------
 Center     Atomic      Atomic             Coordinates (Angstroms)
 Number     Number       Type             X           Y           Z
 ---------------------------------------------------------------------
      1          6           0       -2.186369    0.706143    0.000014
      2          6           0       -2.166070   -0.739222    0.000058
      3          6           0       -0.944623   -1.456056    0.000072
      4          6           0        0.252571   -0.685041    0.000002
      5          6           0        0.258215    0.776213   -0.000011
      6          6           0       -0.979901    1.474061   -0.000040
      7          7           0        1.579824   -1.095592   -0.000229
      8          6           0        1.632831    1.180661    0.000029
      9          6           0        2.421203    0.022253    0.000045
     10          1           0        1.895007   -2.061609    0.000507
     11          1           0        2.008412    2.203389   -0.000012
     12          1           0        3.504267   -0.095224    0.000058
     13          1           0       -3.111480   -1.289951    0.000063
     14          1           0       -0.925661   -2.550644    0.000043
     15          1           0       -3.151957    1.220968   -0.000007
     16          1           0       -1.004496    2.568150   -0.000063
 ---------------------------------------------------------------------
 Rotational constants (GHZ):           3.7152531           1.5969970           1.1168992
 Standard basis: 6-31+G(d) (6D, 7F)
 There are   185 symmetry adapted cartesian basis functions of A   symmetry.
 There are   185 symmetry adapted basis functions of A   symmetry.
   185 basis functions,   316 primitive gaussians,   185 cartesian basis functions
    31 alpha electrons       31 beta electrons
       nuclear repulsion energy       393.9914292974 Hartrees.
 NAtoms=   16 NActive=   16 NUniq=   16 SFac= 1.00D+00 NAtFMM=   60 NAOKFM=F Big=F
 Integral buffers will be    131072 words long.
 Regular integral format.
 Two-electron integral symmetry is turned on.
 One-electron integrals computed using PRISM.
 NBasis=   185 RedAO= T EigKep=  1.56D-06  NBF=   185
 NBsUse=   185 1.00D-06 EigRej= -1.00D+00 NBFU=   185
 Initial guess from the checkpoint file:  "FuncsPBEPBE-V-3rd.chk"
 B after Tr=     0.000000   -0.000000    0.000000
         Rot=    1.000000    0.000005    0.000002    0.000526 Ang=   0.06 deg.
 ExpMin= 4.38D-02 ExpMax= 4.17D+03 ExpMxC= 6.27D+02 IAcc=3 IRadAn=         5 AccDes= 0.00D+00
 Harris functional with IExCor= 1009 and IRadAn=       5 diagonalized for initial guess.
 HarFok:  IExCor= 1009 AccDes= 0.00D+00 IRadAn=         5 IDoV= 1 UseB2=F ITyADJ=14
 ICtDFT=  3500011 ScaDFX=  1.000000  1.000000  1.000000  1.000000
 FoFCou: FMM=F IPFlag=           0 FMFlag=      100000 FMFlg1=           0
         NFxFlg=           0 DoJE=T BraDBF=F KetDBF=T FulRan=T
         wScrn=  0.000000 ICntrl=       500 IOpCl=  0 I1Cent=   200000004 NGrid=           0
         NMat0=    1 NMatS0=      1 NMatT0=    0 NMatD0=    1 NMtDS0=    0 NMtDT0=    0
 Petite list used in FoFCou.
 Keep J ints in memory in canonical form, NReq=152071459.
 Requested convergence on RMS density matrix=1.00D-08 within 128 cycles.
 Requested convergence on MAX density matrix=1.00D-06.
 Requested convergence on             energy=1.00D-06.
 No special actions if energy rises.
 SCF Done:  E(RPBE-PBE) =  -363.369302505     A.U. after   13 cycles
            NFock= 13  Conv=0.56D-08     -V/T= 2.0113
 DoSCS=F DFT=T ScalE2(SS,OS)=  1.000000  1.000000
 ExpMin= 4.38D-02 ExpMax= 4.17D+03 ExpMxC= 6.27D+02 IAcc=3 IRadAn=         5 AccDes= 0.00D+00
 HarFok:  IExCor=  205 AccDes= 0.00D+00 IRadAn=         5 IDoV=-2 UseB2=F ITyADJ=14
 ICtDFT= 12500011 ScaDFX=  1.000000  1.000000  1.000000  1.000000
 Range of M.O.s used for correlation:    10   185
 NBasis=   185 NAE=    31 NBE=    31 NFC=     9 NFV=     0
 NROrb=    176 NOA=    22 NOB=    22 NVA=   154 NVB=   154

 **** Warning!!: The largest alpha MO coefficient is  0.18075170D+03

 Keep J ints in memory in canonical form, NReq=156218803.
 Orbital symmetries:
       Occupied  (A) (A) (A) (A) (A) (A) (A) (A) (A) (A) (A) (A)
                 (A) (A) (A) (A) (A) (A) (A) (A) (A) (A) (A) (A)
                 (A) (A) (A) (A) (A) (A) (A)
       Virtual   (A) (A) (A) (A) (A) (A) (A) (A) (A) (A) (A) (A)
                 (A) (A) (A) (A) (A) (A) (A) (A) (A) (A) (A) (A)
                 (A) (A) (A) (A) (A) (A) (A) (A) (A) (A) (A) (A)
                 (A) (A) (A) (A) (A) (A) (A) (A) (A) (A) (A) (A)
                 (A) (A) (A) (A) (A) (A) (A) (A) (A) (A) (A) (A)
                 (A) (A) (A) (A) (A) (A) (A) (A) (A) (A) (A) (A)
                 (A) (A) (A) (A) (A) (A) (A) (A) (A) (A) (A) (A)
                 (A) (A) (A) (A) (A) (A) (A) (A) (A) (A) (A) (A)
                 (A) (A) (A) (A) (A) (A) (A) (A) (A) (A) (A) (A)
                 (A) (A) (A) (A) (A) (A) (A) (A) (A) (A) (A) (A)
                 (A) (A) (A) (A) (A) (A) (A) (A) (A) (A) (A) (A)
                 (A) (A) (A) (A) (A) (A) (A) (A) (A) (A) (A) (A)
                 (A) (A) (A) (A) (A) (A) (A) (A) (A) (A)
 Generating guess from densities on rwf.
 Convergence on wavefunction:    0.000001000000000
 Iteration     1 Dimension     6 NMult     0 NNew      6
 CISAX will form     6 AO SS matrices at one time.
 New state      2 was old state      3
 New state      3 was old state      2
 Iteration     2 Dimension    12 NMult     6 NNew      6
 Iteration     3 Dimension    18 NMult    12 NNew      6
 Iteration     4 Dimension    24 NMult    18 NNew      6
 Iteration     5 Dimension    30 NMult    24 NNew      6
 Iteration     6 Dimension    36 NMult    30 NNew      6
 Iteration     7 Dimension    42 NMult    36 NNew      6
 Iteration     8 Dimension    48 NMult    42 NNew      6
 Iteration     9 Dimension    54 NMult    48 NNew      6
 Iteration    10 Dimension    60 NMult    54 NNew      6
 Iteration    11 Dimension    66 NMult    60 NNew      6
 Iteration    12 Dimension    72 NMult    66 NNew      6
 Iteration    13 Dimension    78 NMult    72 NNew      6
 Iteration    14 Dimension    84 NMult    78 NNew      6
 Iteration    15 Dimension    90 NMult    84 NNew      6
 Iteration    16 Dimension    96 NMult    90 NNew      6
 Iteration    17 Dimension   102 NMult    96 NNew      6
 Iteration    18 Dimension   107 NMult   102 NNew      5
 Iteration    19 Dimension   111 NMult   107 NNew      4
 Iteration    20 Dimension   115 NMult   111 NNew      4
 Iteration    21 Dimension   119 NMult   115 NNew      4
 Iteration    22 Dimension   123 NMult   119 NNew      4
 Iteration    23 Dimension   127 NMult   123 NNew      4
 Iteration    24 Dimension   131 NMult   127 NNew      4
 Iteration    25 Dimension   135 NMult   131 NNew      4
 Iteration    26 Dimension   139 NMult   135 NNew      4
 Iteration    27 Dimension   143 NMult   139 NNew      4
 Iteration    28 Dimension   147 NMult   143 NNew      4
 Iteration    29 Dimension   150 NMult   147 NNew      3
 Iteration    30 Dimension   152 NMult   150 NNew      2
 Iteration    31 Dimension   154 NMult   152 NNew      2
 Iteration    32 Dimension   156 NMult   154 NNew      2
 Iteration    33 Dimension   157 NMult   156 NNew      1
 Iteration    34 Dimension   158 NMult   157 NNew      1
 Iteration    35 Dimension   159 NMult   158 NNew      1
 Iteration    36 Dimension   160 NMult   159 NNew      1
 Iteration    37 Dimension   161 NMult   160 NNew      1
 Iteration    38 Dimension   162 NMult   161 NNew      1
 Iteration    39 Dimension   163 NMult   162 NNew      1
 Iteration    40 Dimension   164 NMult   163 NNew      1
 Iteration    41 Dimension   165 NMult   164 NNew      1
 Iteration    42 Dimension   166 NMult   165 NNew      1
 Iteration    43 Dimension   167 NMult   166 NNew      1
 Iteration    44 Dimension   168 NMult   167 NNew      1
 Iteration    45 Dimension   169 NMult   168 NNew      1
 Iteration    46 Dimension   170 NMult   169 NNew      1
 Iteration    47 Dimension   171 NMult   170 NNew      1
 Iteration    48 Dimension   172 NMult   171 NNew      1
 Iteration    49 Dimension   173 NMult   172 NNew      1
 Iteration    50 Dimension   174 NMult   173 NNew      1
 Iteration    51 Dimension   175 NMult   174 NNew      1
 Iteration    52 Dimension   176 NMult   175 NNew      1
 Iteration    53 Dimension   177 NMult   176 NNew      1
 Iteration    54 Dimension   178 NMult   177 NNew      1
 Iteration    55 Dimension   179 NMult   178 NNew      1
 Iteration    56 Dimension   180 NMult   179 NNew      1
 Iteration    57 Dimension   181 NMult   180 NNew      1
 Iteration    58 Dimension   182 NMult   181 NNew      1
 Iteration    59 Dimension   183 NMult   182 NNew      1
 Iteration    60 Dimension   184 NMult   183 NNew      1
 Iteration    61 Dimension   185 NMult   184 NNew      1
 Iteration    62 Dimension   186 NMult   185 NNew      1
 Iteration    63 Dimension   187 NMult   186 NNew      1
 Iteration    64 Dimension   188 NMult   187 NNew      1
 Iteration    65 Dimension   189 NMult   188 NNew      1
 Iteration    66 Dimension   190 NMult   189 NNew      1
 Iteration    67 Dimension   191 NMult   190 NNew      1
 Iteration    68 Dimension   192 NMult   191 NNew      1
 Iteration    69 Dimension   193 NMult   192 NNew      1
 Iteration    70 Dimension   194 NMult   193 NNew      1
 Iteration    71 Dimension   195 NMult   194 NNew      1
 Iteration    72 Dimension   196 NMult   195 NNew      1
 Iteration    73 Dimension   197 NMult   196 NNew      1
 Iteration    74 Dimension   198 NMult   197 NNew      1
 Iteration    75 Dimension   199 NMult   198 NNew      1
 Iteration    76 Dimension   200 NMult   199 NNew      1
 Iteration    77 Dimension   201 NMult   200 NNew      1
 Iteration    78 Dimension   202 NMult   201 NNew      1
 Iteration    79 Dimension   203 NMult   202 NNew      1
 Iteration    80 Dimension   204 NMult   203 NNew      1
 Iteration    81 Dimension   205 NMult   204 NNew      1
 Iteration    82 Dimension   206 NMult   205 NNew      1
 Iteration    83 Dimension   207 NMult   206 NNew      1
 Iteration    84 Dimension   208 NMult   207 NNew      1
 Iteration    85 Dimension   209 NMult   208 NNew      1
 Iteration    86 Dimension   210 NMult   209 NNew      1
 Iteration    87 Dimension   211 NMult   210 NNew      1
 Iteration    88 Dimension   212 NMult   211 NNew      1
 Iteration    89 Dimension   213 NMult   212 NNew      1
 Iteration    90 Dimension   214 NMult   213 NNew      1
 Iteration    91 Dimension   215 NMult   214 NNew      1
 Iteration    92 Dimension   216 NMult   215 NNew      1
 Iteration    93 Dimension   217 NMult   216 NNew      1
 Iteration    94 Dimension   218 NMult   217 NNew      1
 Iteration    95 Dimension   219 NMult   218 NNew      1
 Iteration    96 Dimension   220 NMult   219 NNew      1
 Iteration    97 Dimension   221 NMult   220 NNew      1
 Iteration    98 Dimension   222 NMult   221 NNew      1
 Iteration    99 Dimension   223 NMult   222 NNew      1
 Iteration   100 Dimension   224 NMult   223 NNew      1
 Iteration   101 Dimension   225 NMult   224 NNew      1
 Iteration   102 Dimension   226 NMult   225 NNew      1
 Iteration   103 Dimension   227 NMult   226 NNew      1
 Iteration   104 Dimension   228 NMult   227 NNew      1
 Iteration   105 Dimension   229 NMult   228 NNew      1
 Iteration   106 Dimension   230 NMult   229 NNew      1
 Iteration   107 Dimension   231 NMult   230 NNew      1
 Iteration   108 Dimension   232 NMult   231 NNew      1
 Iteration   109 Dimension   233 NMult   232 NNew      1
 Iteration   110 Dimension   234 NMult   233 NNew      1
 Iteration   111 Dimension   235 NMult   234 NNew      1
 Iteration   112 Dimension   236 NMult   235 NNew      1
 Iteration   113 Dimension   237 NMult   236 NNew      1
 Iteration   114 Dimension   238 NMult   237 NNew      1
 Iteration   115 Dimension   239 NMult   238 NNew      1
 Iteration   116 Dimension   240 NMult   239 NNew      1
 Iteration   117 Dimension   241 NMult   240 NNew      1
 Iteration   118 Dimension   242 NMult   241 NNew      1
 Iteration   119 Dimension   243 NMult   242 NNew      1
 Iteration   120 Dimension   244 NMult   243 NNew      1
 Iteration   121 Dimension   245 NMult   244 NNew      1
 Iteration   122 Dimension   246 NMult   245 NNew      1
 Iteration   123 Dimension   247 NMult   246 NNew      1
 Iteration   124 Dimension   248 NMult   247 NNew      1
 Iteration   125 Dimension   249 NMult   248 NNew      1
 Iteration   126 Dimension   250 NMult   249 NNew      1
 Iteration   127 Dimension   251 NMult   250 NNew      1
 Iteration   128 Dimension   252 NMult   251 NNew      1
 Iteration   129 Dimension   253 NMult   252 NNew      1
 Iteration   130 Dimension   254 NMult   253 NNew      1
 Iteration   131 Dimension   255 NMult   254 NNew      1
 Iteration   132 Dimension   256 NMult   255 NNew      1
 Iteration   133 Dimension   257 NMult   256 NNew      1
 Iteration   134 Dimension   258 NMult   257 NNew      1
 Iteration   135 Dimension   259 NMult   258 NNew      1
 Iteration   136 Dimension   260 NMult   259 NNew      1
 Iteration   137 Dimension   261 NMult   260 NNew      1
 Iteration   138 Dimension   262 NMult   261 NNew      1
 Iteration   139 Dimension   263 NMult   262 NNew      1
 Iteration   140 Dimension   264 NMult   263 NNew      1
 Iteration   141 Dimension   265 NMult   264 NNew      1
 Iteration   142 Dimension   266 NMult   265 NNew      1
 Iteration   143 Dimension   267 NMult   266 NNew      1
 Iteration   144 Dimension   268 NMult   267 NNew      1
 Iteration   145 Dimension   269 NMult   268 NNew      1
 Iteration   146 Dimension   270 NMult   269 NNew      1
 Iteration   147 Dimension   271 NMult   270 NNew      1
 Iteration   148 Dimension   272 NMult   271 NNew      1
 Iteration   149 Dimension   273 NMult   272 NNew      1
 Iteration   150 Dimension   274 NMult   273 NNew      1
 Iteration   151 Dimension   275 NMult   274 NNew      1
 Iteration   152 Dimension   276 NMult   275 NNew      1
 Iteration   153 Dimension   277 NMult   276 NNew      1
 Iteration   154 Dimension   278 NMult   277 NNew      1
 Iteration   155 Dimension   279 NMult   278 NNew      1
 Iteration   156 Dimension   280 NMult   279 NNew      1
 Iteration   157 Dimension   281 NMult   280 NNew      1
 Iteration   158 Dimension   282 NMult   281 NNew      1
 Iteration   159 Dimension   283 NMult   282 NNew      1
 Iteration   160 Dimension   284 NMult   283 NNew      1
 Iteration   161 Dimension   285 NMult   284 NNew      1
 Iteration   162 Dimension   286 NMult   285 NNew      1
 Iteration   163 Dimension   287 NMult   286 NNew      1
 Iteration   164 Dimension   288 NMult   287 NNew      1
 Iteration   165 Dimension   290 NMult   288 NNew      2
 Iteration   166 Dimension   292 NMult   290 NNew      2
 Iteration   167 Dimension   294 NMult   292 NNew      2
 Iteration   168 Dimension   295 NMult   294 NNew      1
 Iteration   169 Dimension   296 NMult   295 NNew      1
 Iteration   170 Dimension   297 NMult   296 NNew      1
 Iteration   171 Dimension   298 NMult   297 NNew      1
 Iteration   172 Dimension   299 NMult   298 NNew      1
 Iteration   173 Dimension   300 NMult   299 NNew      1
 Iteration   174 Dimension   301 NMult   300 NNew      1
 Iteration   175 Dimension   302 NMult   301 NNew      1
 Iteration   176 Dimension   303 NMult   302 NNew      1
 Iteration   177 Dimension   304 NMult   303 NNew      1
 Iteration   178 Dimension   305 NMult   304 NNew      1
 Iteration   179 Dimension   306 NMult   305 NNew      1
 Iteration   180 Dimension   307 NMult   306 NNew      1
 Iteration   181 Dimension   308 NMult   307 NNew      1
 Iteration   182 Dimension   309 NMult   308 NNew      1
 Iteration   183 Dimension   310 NMult   309 NNew      1
 Iteration   184 Dimension   311 NMult   310 NNew      1
 Iteration   185 Dimension   312 NMult   311 NNew      1
 Iteration   186 Dimension   313 NMult   312 NNew      1
 Iteration   187 Dimension   314 NMult   313 NNew      1
 Iteration   188 Dimension   315 NMult   314 NNew      1
 Iteration   189 Dimension   316 NMult   315 NNew      1
 Iteration   190 Dimension   317 NMult   316 NNew      1
 Iteration   191 Dimension   318 NMult   317 NNew      1
 Iteration   192 Dimension   319 NMult   318 NNew      1
 Iteration   193 Dimension   320 NMult   319 NNew      1
 ***********************************************************************
 Excited states from <AA,BB:AA,BB> singles matrix:
 ***********************************************************************
 
 Ground to excited state transition densities written to RWF  633
 Ground to excited state transition electric dipole moments (Au):
       state          X           Y           Z        Dip. S.      Osc.
         1        -0.4924      0.5490     -0.0001      0.5439      0.0566
         2         0.0006     -0.0002     -0.1101      0.0121      0.0013
         3        -0.3855     -0.1541     -0.0001      0.1723      0.0186
         4        -0.0002      0.0001     -0.1115      0.0124      0.0015
         5        -0.0001      0.0000     -0.0076      0.0001      0.0000
         6        -0.0004     -0.0001     -0.0991      0.0098      0.0013
 Ground to excited state transition velocity dipole moments (Au):
       state          X           Y           Z        Dip. S.      Osc.
         1         0.0686     -0.0932      0.0000      0.0134      0.0572
         2        -0.0001      0.0000      0.0098      0.0001      0.0004
         3         0.0588      0.0262      0.0000      0.0041      0.0171
         4         0.0000     -0.0000      0.0220      0.0005      0.0018
         5         0.0000     -0.0000     -0.0003      0.0000      0.0000
         6         0.0001      0.0000      0.0187      0.0003      0.0012
 Ground to excited state transition magnetic dipole moments (Au):
       state          X           Y           Z
         1         0.0001      0.0001      0.1923
         2         0.1164     -0.0478      0.0001
         3        -0.0000     -0.0001      0.0004
         4         0.0104     -0.1888     -0.0000
         5        -0.2662      0.1156     -0.0002
         6        -0.0604     -0.3138     -0.0003
 Ground to excited state transition velocity quadrupole moments (Au):
       state          XX          YY          ZZ          XY          XZ          YZ
         1         0.1580     -0.0995      0.0094      0.0585      0.0000      0.0000
         2        -0.0001      0.0001      0.0001      0.0001      0.0368      0.0443
         3         0.0382     -0.0736      0.0185      0.0047      0.0000     -0.0000
         4         0.0000      0.0000     -0.0000     -0.0001      0.1106     -0.0432
         5         0.0000      0.0000      0.0000     -0.0001     -0.1310     -0.1988
         6        -0.0000     -0.0000     -0.0000     -0.0002      0.2745      0.0136
 <0|del|b> * <b|rxdel|0> + <0|del|b> * <b|delr+rdel|0>
 Rotatory Strengths (R) in cgs (10**-40 erg-esu-cm/Gauss)
       state          XX          YY          ZZ    R(velocity)    E-M Angle
         1        -0.0069      0.0219      0.0010      0.0053       90.00
         2        -0.0030     -0.0262     -0.0131     -0.0141       90.00
         3        -0.0086     -0.0072     -0.0063     -0.0074       90.00
         4         0.0062     -0.0016      0.0075      0.0040       90.00
         5        -0.0044     -0.0195     -0.0025     -0.0088       90.00
         6        -0.0263     -0.0091     -0.0107     -0.0154       90.00
 1/2[<0|r|b>*<b|rxdel|0> + (<0|rxdel|b>*<b|r|0>)*]
 Rotatory Strengths (R) in cgs (10**-40 erg-esu-cm/Gauss)
       state          XX          YY          ZZ     R(length)
         1         0.0416     -0.0258      0.0108      0.0089
         2        -0.0453     -0.0070      0.0090     -0.0144
         3        -0.0110     -0.0112      0.0000     -0.0074
         4         0.0017      0.0164     -0.0027      0.0051
         5        -0.0254     -0.0038     -0.0009     -0.0100
         6        -0.0170     -0.0137     -0.0197     -0.0168
  1/2[<0|del|b>*<b|r|0> + (<0|r|b>*<b|del|0>)*] (Au)
       state          X           Y           Z        Dip. S.   Osc.(frdel)
         1        -0.0338     -0.0512     -0.0000      0.0850      0.0567
         2        -0.0000     -0.0000     -0.0011      0.0011      0.0007
         3        -0.0227     -0.0040     -0.0000      0.0267      0.0178
         4        -0.0000     -0.0000     -0.0024      0.0024      0.0016
         5        -0.0000     -0.0000      0.0000     -0.0000     -0.0000
         6        -0.0000     -0.0000     -0.0019      0.0019      0.0012

 Excitation energies and oscillator strengths:
 
 Excited State   1:      Singlet-A      4.2490 eV  291.80 nm  f=0.0566  <S**2>=0.000
      29 -> 32         0.13286
      30 -> 33        -0.12074
      31 -> 32         0.66098
 
 Excited State   2:      Singlet-A      4.5178 eV  274.44 nm  f=0.0013  <S**2>=0.000
      31 -> 33         0.14295
      31 -> 34         0.69225
 
 Excited State   3:      Singlet-A      4.4115 eV  281.05 nm  f=0.0186  <S**2>=0.000
      30 -> 32         0.55651
      31 -> 33         0.42144
 This state for optimization and/or second-order correction.
 Total Energy, E(TD-HF/TD-DFT) =  -363.207183731    
 Copying the excited state density for this state as the 1-particle RhoCI density.
 
 Excited State   4:      Singlet-A      4.9041 eV  252.82 nm  f=0.0015  <S**2>=0.000
      30 -> 33         0.14319
      30 -> 34         0.69214
 
 Excited State   5:      Singlet-A      5.0781 eV  244.15 nm  f=0.0000  <S**2>=0.000
      31 -> 35         0.70681
 
 Excited State   6:      Singlet-A      5.2475 eV  236.27 nm  f=0.0013  <S**2>=0.000
      31 -> 36         0.70683
 SavETr:  write IOETrn=   770 NScale= 10 NData=  16 NLR=1 NState=    6 LETran=     118.
          IDoAtm=1111111111111111
          Differentiating once with respect to electric field.
                with respect to dipole field.
          Differentiating once with respect to nuclear coordinates.
 Keep J ints in memory in canonical form, NReq=152083851.
          There are     1 degrees of freedom in the 1st order CPHF.  IDoFFX=0 NUNeed=     1.
 LinEq1:  Iter=  0 NonCon=     1 RMS=6.27D-03 Max=1.85D-01 NDo=     1
 AX will form     1 AO Fock derivatives at one time.
 LinEq1:  Iter=  1 NonCon=     1 RMS=3.59D-03 Max=1.01D-01 NDo=     1
 LinEq1:  Iter=  2 NonCon=     1 RMS=4.54D-03 Max=1.53D-01 NDo=     1
 LinEq1:  Iter=  3 NonCon=     1 RMS=2.18D-03 Max=5.00D-02 NDo=     1
 LinEq1:  Iter=  4 NonCon=     1 RMS=2.02D-03 Max=7.26D-02 NDo=     1
 LinEq1:  Iter=  5 NonCon=     1 RMS=1.32D-03 Max=2.72D-02 NDo=     1
 LinEq1:  Iter=  6 NonCon=     1 RMS=8.22D-04 Max=1.98D-02 NDo=     1
 LinEq1:  Iter=  7 NonCon=     1 RMS=6.57D-04 Max=1.53D-02 NDo=     1
 LinEq1:  Iter=  8 NonCon=     1 RMS=2.78D-04 Max=6.06D-03 NDo=     1
 LinEq1:  Iter=  9 NonCon=     1 RMS=2.53D-04 Max=7.75D-03 NDo=     1
 LinEq1:  Iter= 10 NonCon=     1 RMS=1.12D-04 Max=1.99D-03 NDo=     1
 LinEq1:  Iter= 11 NonCon=     1 RMS=9.52D-05 Max=2.01D-03 NDo=     1
 LinEq1:  Iter= 12 NonCon=     1 RMS=3.70D-05 Max=6.90D-04 NDo=     1
 LinEq1:  Iter= 13 NonCon=     1 RMS=2.51D-05 Max=4.57D-04 NDo=     1
 LinEq1:  Iter= 14 NonCon=     1 RMS=9.11D-06 Max=1.07D-04 NDo=     1
 LinEq1:  Iter= 15 NonCon=     1 RMS=3.28D-06 Max=6.05D-05 NDo=     1
 LinEq1:  Iter= 16 NonCon=     1 RMS=1.74D-06 Max=1.62D-05 NDo=     1
 LinEq1:  Iter= 17 NonCon=     1 RMS=3.08D-07 Max=2.81D-06 NDo=     1
 LinEq1:  Iter= 18 NonCon=     1 RMS=5.33D-08 Max=5.17D-07 NDo=     1
 LinEq1:  Iter= 19 NonCon=     1 RMS=9.50D-09 Max=9.51D-08 NDo=     1
 LinEq1:  Iter= 20 NonCon=     1 RMS=1.82D-09 Max=1.87D-08 NDo=     1
 LinEq1:  Iter= 21 NonCon=     1 RMS=6.94D-10 Max=6.68D-09 NDo=     1
 LinEq1:  Iter= 22 NonCon=     1 RMS=1.46D-10 Max=1.20D-09 NDo=     1
 LinEq1:  Iter= 23 NonCon=     0 RMS=2.71D-11 Max=2.22D-10 NDo=     1
 Linear equations converged to 1.000D-10 1.000D-09 after    23 iterations.
 End of Minotr F.D. properties file   721 does not exist.
 End of Minotr F.D. properties file   722 does not exist.
 End of Minotr F.D. properties file   788 does not exist.
 Calling FoFJK, ICntrl=  10005527 FMM=F ISym2X=0 I1Cent= 0 IOpClX= 0 NMat=1 NMatS=1 NMatT=0.
 ***** Axes restored to original set *****
 -------------------------------------------------------------------
[...]
 ! D9    D(1,2,3,4)              0.0028         -DE/DX =    0.0                 !
 ! D10   D(1,2,3,14)          -179.9919         -DE/DX =    0.0                 !
 ! D11   D(13,2,3,4)           179.9979         -DE/DX =    0.0                 !
 ! D12   D(13,2,3,14)            0.0032         -DE/DX =    0.0                 !
 ! D13   D(2,3,4,5)              0.0078         -DE/DX =    0.0                 !
 ! D14   D(2,3,4,7)           -179.9986         -DE/DX =    0.0                 !
 ! D15   D(14,3,4,5)          -179.9975         -DE/DX =    0.0                 !
 ! D16   D(14,3,4,7)            -0.0039         -DE/DX =    0.0                 !
 ! D17   D(3,4,5,6)             -0.0128         -DE/DX =    0.0                 !
 ! D18   D(3,4,5,8)            179.9869         -DE/DX =    0.0                 !
 ! D19   D(7,4,5,6)            179.9923         -DE/DX =    0.0                 !
 ! D20   D(7,4,5,8)             -0.008          -DE/DX =    0.0                 !
 ! D21   D(3,4,7,9)           -179.9825         -DE/DX =    0.0                 !
 ! D22   D(3,4,7,10)            -0.0487         -DE/DX =    0.0                 !
 ! D23   D(5,4,7,9)              0.0119         -DE/DX =    0.0                 !
 ! D24   D(5,4,7,10)           179.9457         -DE/DX =    0.0                 !
 ! D25   D(4,5,6,1)              0.0067         -DE/DX =    0.0                 !
 ! D26   D(4,5,6,16)          -179.9954         -DE/DX =    0.0                 !
 ! D27   D(8,5,6,1)           -179.993          -DE/DX =    0.0                 !
 ! D28   D(8,5,6,16)             0.0049         -DE/DX =    0.0                 !
 ! D29   D(4,5,8,9)              0.0012         -DE/DX =    0.0                 !
 ! D30   D(4,5,8,11)          -180.0003         -DE/DX =    0.0                 !
 ! D31   D(6,5,8,9)           -179.9991         -DE/DX =    0.0                 !
 ! D32   D(6,5,8,11)            -0.0006         -DE/DX =    0.0                 !
 ! D33   D(4,7,9,8)             -0.0113         -DE/DX =    0.0                 !
 ! D34   D(4,7,9,12)           179.997          -DE/DX =    0.0                 !
 ! D35   D(10,7,9,8)          -179.9454         -DE/DX =    0.0                 !
 ! D36   D(10,7,9,12)            0.063          -DE/DX =    0.0                 !
 ! D37   D(5,8,9,7)              0.0059         -DE/DX =    0.0                 !
 ! D38   D(5,8,9,12)           179.9964         -DE/DX =    0.0                 !
 ! D39   D(11,8,9,7)          -179.9926         -DE/DX =    0.0                 !
 ! D40   D(11,8,9,12)           -0.002          -DE/DX =    0.0                 !
 --------------------------------------------------------------------------------
 GradGradGradGradGradGradGradGradGradGradGradGradGradGradGradGradGradGrad

                          Input orientation:                          
 ---------------------------------------------------------------------
 Center     Atomic      Atomic             Coordinates (Angstroms)
 Number     Number       Type             X           Y           Z
 ---------------------------------------------------------------------
      1          6           0       -2.182134    0.701190   -0.000030
      2          6           0       -2.161155   -0.742907    0.000122
      3          6           0       -0.940813   -1.460205    0.000056
      4          6           0        0.251521   -0.684996   -0.000106
      5          6           0        0.261498    0.781894   -0.000035
      6          6           0       -0.974814    1.477379   -0.000072
      7          7           0        1.575682   -1.089564   -0.000228
      8          6           0        1.627262    1.183010    0.000068
      9          6           0        2.425690    0.025895    0.000033
     10          1           0        1.889724   -2.056616    0.000491
     11          1           0        2.005803    2.205445    0.000135
     12          1           0        3.507239   -0.095086    0.000033
     13          1           0       -3.109714   -1.287580    0.000210
     14          1           0       -0.919150   -2.554010    0.000039
     15          1           0       -3.148962    1.213399   -0.000082
     16          1           0       -1.010773    2.570198   -0.000097
 ---------------------------------------------------------------------
                    Distance matrix (angstroms):
                    1          2          3          4          5
     1  C    0.000000
     2  C    1.444249   0.000000
     3  C    2.492490   1.415540   0.000000
     4  C    2.800747   2.413371   1.422185   0.000000
     5  C    2.444964   2.862563   2.544123   1.466924   0.000000
     6  C    1.435302   2.517355   2.937781   2.485913   1.418509
     7  N    4.162688   3.752882   2.543643   1.384585   2.286795
     8  C    3.839745   4.249854   3.685321   2.319937   1.423448
     9  C    4.657044   4.650828   3.679923   2.287438   2.292435
    10  H    4.917877   4.258574   2.892688   2.136598   3.272347
    11  H    4.449898   5.104539   4.703140   3.381146   2.251465
    12  H    5.744825   5.705292   4.652817   3.308729   3.362131
    13  H    2.194450   1.093816   2.175761   3.414822   3.955730
    14  H    3.491627   2.196058   1.094019   2.205376   3.538670
    15  H    1.094128   2.191551   3.467576   3.894508   3.437650
    16  H    2.205738   3.507142   4.031011   3.491371   2.194700
                    6          7          8          9         10
     6  C    0.000000
     7  N    3.618594   0.000000
     8  C    2.618674   2.273160   0.000000
     9  C    3.697328   1.402413   1.405846   0.000000
    10  H    4.549143   1.016766   3.250241   2.150375   0.000000
    11  H    3.068249   3.322964   1.090259   2.219627   4.263641
    12  H    4.749889   2.172533   2.273289   1.088294   2.542431
    13  H    3.493250   4.689578   5.342542   5.689105   5.058240
    14  H    4.031774   2.892885   4.522116   4.224199   2.852573
    15  H    2.190116   5.256035   4.776321   5.699729   6.006776
    16  H    1.093410   4.481474   2.980523   4.275834   5.460796
                   11         12         13         14         15
    11  H    0.000000
    12  H    2.747135   0.000000
    13  H    6.194331   6.723549   0.000000
    14  H    5.586390   5.063518   2.530300   0.000000
    15  H    5.249358   6.783594   2.501287   4.377835   0.000000
    16  H    3.038548   5.245586   4.391811   5.125027   2.532343
                   16
    16  H    0.000000
 Stoichiometry    C8H7N
 Framework group  C1[X(C8H7N)]
 Deg. of freedom    42
 Full point group                 C1      NOp   1
 Largest Abelian subgroup         C1      NOp   1
 Largest concise Abelian subgroup C1      NOp   1
                         Standard orientation:                         
 ---------------------------------------------------------------------
 Center     Atomic      Atomic             Coordinates (Angstroms)
 Number     Number       Type             X           Y           Z
 ---------------------------------------------------------------------
      1          6           0       -2.181410    0.706841   -0.000020
      2          6           0       -2.164773   -0.737313    0.000133
      3          6           0       -0.946592   -1.458276    0.000066
      4          6           0        0.248067   -0.686654   -0.000095
      5          6           0        0.262453    0.780199   -0.000025
      6          6           0       -0.971763    1.479398   -0.000062
      7          7           0        1.571005   -1.095200   -0.000217
      8          6           0        1.629416    1.177209    0.000078
      9          6           0        2.424362    0.017699    0.000043
     10          1           0        1.882139   -2.063192    0.000501
     11          1           0        2.011028    2.198501    0.000146
     12          1           0        3.505543   -0.106532    0.000044
     13          1           0       -3.114965   -1.279132    0.000221
     14          1           0       -0.928216   -2.552141    0.000049
     15          1           0       -3.146695    1.221954   -0.000071
     16          1           0       -1.004437    2.572320   -0.000086
 ---------------------------------------------------------------------
 Rotational constants (GHZ):           3.7091212           1.6012946           1.1184427

 **********************************************************************

            Population analysis using the CI Density.

 **********************************************************************

 Orbital symmetries:
       Occupied  (A) (A) (A) (A) (A) (A) (A) (A) (A) (A) (A) (A)
                 (A) (A) (A) (A) (A) (A) (A) (A) (A) (A) (A) (A)
                 (A) (A) (A) (A) (A) (A) (A)
       Virtual   (A) (A) (A) (A) (A) (A) (A) (A) (A) (A) (A) (A)
                 (A) (A) (A) (A) (A) (A) (A) (A) (A) (A) (A) (A)
                 (A) (A) (A) (A) (A) (A) (A) (A) (A) (A) (A) (A)
                 (A) (A) (A) (A) (A) (A) (A) (A) (A) (A) (A) (A)
                 (A) (A) (A) (A) (A) (A) (A) (A) (A) (A) (A) (A)
                 (A) (A) (A) (A) (A) (A) (A) (A) (A) (A) (A) (A)
                 (A) (A) (A) (A) (A) (A) (A) (A) (A) (A) (A) (A)
                 (A) (A) (A) (A) (A) (A) (A) (A) (A) (A) (A) (A)
                 (A) (A) (A) (A) (A) (A) (A) (A) (A) (A) (A) (A)
                 (A) (A) (A) (A) (A) (A) (A) (A) (A) (A) (A) (A)
                 (A) (A) (A) (A) (A) (A) (A) (A) (A) (A) (A) (A)
                 (A) (A) (A) (A) (A) (A) (A) (A) (A) (A) (A) (A)
                 (A) (A) (A) (A) (A) (A) (A) (A) (A) (A)
 The electronic state is 1-A.
 Alpha  occ. eigenvalues --  -14.06330  -9.94227  -9.94225  -9.91287  -9.90835
 Alpha  occ. eigenvalues --   -9.90778  -9.90767  -9.90467  -9.89917  -0.89649
 Alpha  occ. eigenvalues --   -0.75261  -0.70945  -0.65988  -0.64574  -0.56384
 Alpha  occ. eigenvalues --   -0.53975  -0.52062  -0.48351  -0.43705  -0.41854
 Alpha  occ. eigenvalues --   -0.38807  -0.38340  -0.37269  -0.36002  -0.34947
 Alpha  occ. eigenvalues --   -0.31239  -0.29588  -0.29070  -0.24955  -0.19699
 Alpha  occ. eigenvalues --   -0.18292
 Alpha virt. eigenvalues --   -0.05024  -0.01726  -0.01722   0.00370   0.01000
 Alpha virt. eigenvalues --    0.01434   0.02384   0.02681   0.04560   0.04791
 Alpha virt. eigenvalues --    0.05168   0.05419   0.06990   0.07541   0.09413
 Alpha virt. eigenvalues --    0.09540   0.09735   0.10934   0.11863   0.12145
 Alpha virt. eigenvalues --    0.13379   0.13720   0.14190   0.14436   0.15145
 Alpha virt. eigenvalues --    0.16008   0.16496   0.16519   0.17611   0.17694
 Alpha virt. eigenvalues --    0.18237   0.18352   0.19546   0.20002   0.21000
 Alpha virt. eigenvalues --    0.21678   0.21888   0.21929   0.23225   0.23920
 Alpha virt. eigenvalues --    0.25063   0.25426   0.25721   0.26060   0.26354
 Alpha virt. eigenvalues --    0.27612   0.28757   0.29879   0.30950   0.32639
 Alpha virt. eigenvalues --    0.33234   0.35675   0.37226   0.40124   0.45634
 Alpha virt. eigenvalues --    0.50418   0.53731   0.63078   0.63652   0.65520
 Alpha virt. eigenvalues --    0.66262   0.67510   0.67726   0.68444   0.69258
 Alpha virt. eigenvalues --    0.69998   0.70732   0.72887   0.73545   0.74374
 Alpha virt. eigenvalues --    0.76011   0.80288   0.83593   0.84243   0.85197
 Alpha virt. eigenvalues --    0.88417   0.89025   0.90072   0.90361   0.93172
 Alpha virt. eigenvalues --    0.93955   0.97934   0.99695   1.00316   1.04579
 Alpha virt. eigenvalues --    1.05801   1.06163   1.11705   1.12702   1.14774
 Alpha virt. eigenvalues --    1.17287   1.17940   1.18887   1.25418   1.25932
 Alpha virt. eigenvalues --    1.28229   1.30588   1.34421   1.34428   1.37390
 Alpha virt. eigenvalues --    1.39063   1.40921   1.42655   1.42749   1.47314
 Alpha virt. eigenvalues --    1.51740   1.57186   1.70275   1.74243   1.80258
 Alpha virt. eigenvalues --    1.81288   1.82412   1.83104   1.89632   1.90254
 Alpha virt. eigenvalues --    1.92726   1.94235   1.96076   2.03029   2.03658
 Alpha virt. eigenvalues --    2.06689   2.09018   2.13804   2.15245   2.16501
 Alpha virt. eigenvalues --    2.16859   2.20902   2.26742   2.31238   2.35761
 Alpha virt. eigenvalues --    2.42871   2.44238   2.52557   2.53834   2.56100
 Alpha virt. eigenvalues --    2.57928   2.61821   2.68938   2.72297   2.74024
 Alpha virt. eigenvalues --    2.86052   2.87120   2.96841   3.11573   3.25905
 Alpha virt. eigenvalues --    4.03531   4.13238   4.19768   4.22011   4.25316
 Alpha virt. eigenvalues --    4.30019   4.37423   4.41799   4.66059
          Condensed to atoms (all electrons):
               1          2          3          4          5          6
     1  C    5.799353   0.334541   0.159515  -0.490868  -0.176750  -0.039065
     2  C    0.334541   5.914322   0.027020   0.176750  -0.703069   0.664535
     3  C    0.159515   0.027020  13.526020  -2.365217  -3.748679  -3.136140
     4  C   -0.490868   0.176750  -2.365217  13.812733  -3.737017  -0.782355
     5  C   -0.176750  -0.703069  -3.748679  -3.737017  15.476860  -0.232518
     6  C   -0.039065   0.664535  -3.136140  -0.782355  -0.232518  13.115714
     7  N   -0.030583   0.010480  -0.489422  -0.444366   0.856885   0.135438
     8  C    0.183869  -0.311741   3.346781   1.279663  -5.340980  -4.148404
     9  C   -0.071922   0.033816  -1.116916  -0.433032   1.865591   0.972430
    10  H   -0.003036  -0.009405  -0.149043  -0.070521   0.185718   0.027854
    11  H    0.000343   0.001062   0.004138   0.061370  -0.051600  -0.021929
    12  H    0.000770   0.000516   0.030216   0.091822  -0.075906  -0.020667
    13  H   -0.000535   0.279861  -0.015767   0.020783   0.000208   0.013072
    14  H    0.015091   0.035272   0.230077   0.017607   0.012106  -0.020420
    15  H    0.296452  -0.005837   0.026376  -0.020926   0.033389  -0.038854
    16  H    0.011266   0.018684  -0.032566   0.018672   0.047166   0.257744
               7          8          9         10         11         12
     1  C   -0.030583   0.183869  -0.071922  -0.003036   0.000343   0.000770
     2  C    0.010480  -0.311741   0.033816  -0.009405   0.001062   0.000516
     3  C   -0.489422   3.346781  -1.116916  -0.149043   0.004138   0.030216
     4  C   -0.444366   1.279663  -0.433032  -0.070521   0.061370   0.091822
     5  C    0.856885  -5.340980   1.865591   0.185718  -0.051600  -0.075906
     6  C    0.135438  -4.148404   0.972430   0.027854  -0.021929  -0.020667
     7  N    7.334961  -0.672503   0.480981   0.265838   0.007969  -0.058220
     8  C   -0.672503  13.556496  -2.324846   0.004111   0.338392   0.004067
     9  C    0.480981  -2.324846   6.624871  -0.028300  -0.049255   0.331762
    10  H    0.265838   0.004111  -0.028300   0.357698  -0.000083  -0.002506
    11  H    0.007969   0.338392  -0.049255  -0.000083   0.504295  -0.001071
    12  H   -0.058220   0.004067   0.331762  -0.002506  -0.001071   0.489256
    13  H   -0.000467  -0.001200   0.001390  -0.000002   0.000000  -0.000000
    14  H   -0.009692  -0.002788   0.004865   0.002256   0.000002   0.000002
    15  H    0.000248   0.006587  -0.000239  -0.000000  -0.000001  -0.000000
    16  H   -0.000928  -0.038811   0.002560   0.000004   0.001591  -0.000001
              13         14         15         16
     1  C   -0.000535   0.015091   0.296452   0.011266
     2  C    0.279861   0.035272  -0.005837   0.018684
     3  C   -0.015767   0.230077   0.026376  -0.032566
     4  C    0.020783   0.017607  -0.020926   0.018672
     5  C    0.000208   0.012106   0.033389   0.047166
     6  C    0.013072  -0.020420  -0.038854   0.257744
     7  N   -0.000467  -0.009692   0.000248  -0.000928
     8  C   -0.001200  -0.002788   0.006587  -0.038811
     9  C    0.001390   0.004865  -0.000239   0.002560
    10  H   -0.000002   0.002256  -0.000000   0.000004
    11  H    0.000000   0.000002  -0.000001   0.001591
    12  H   -0.000000   0.000002  -0.000000  -0.000001
    13  H    0.519823  -0.004321  -0.004484  -0.000115
    14  H   -0.004321   0.529370  -0.000125   0.000013
    15  H   -0.004484  -0.000125   0.519431  -0.003940
    16  H   -0.000115   0.000013  -0.003940   0.523527
 Mulliken charges:
               1
     1  C    0.011559
     2  C   -0.466807
     3  C   -0.296395
     4  C   -1.135098
     5  C    1.588598
     6  C   -0.746435
     7  N   -0.386621
     8  C    0.121307
     9  C   -0.293754
    10  H    0.419416
    11  H    0.204776
    12  H    0.209958
    13  H    0.191753
    14  H    0.190686
    15  H    0.191924
    16  H    0.195132
 Sum of Mulliken charges =  -0.00000
 Mulliken charges with hydrogens summed into heavy atoms:
               1
     1  C    0.203483
     2  C   -0.275053
     3  C   -0.105709
     4  C   -1.135098
     5  C    1.588598
     6  C   -0.551302
     7  N    0.032796
     8  C    0.326083
     9  C   -0.083796
 Electronic spatial extent (au):  <R**2>=           1038.1446
 Charge=              0.0000 electrons
 Dipole moment (field-independent basis, Debye):
    X=              2.0671    Y=             -1.3520    Z=              0.0004  Tot=              2.4700
 Quadrupole moment (field-independent basis, Debye-Ang):
   XX=            -46.3182   YY=            -45.7172   ZZ=            -60.1704
   XY=             -3.0766   XZ=              0.0014   YZ=             -0.0010
 Traceless Quadrupole moment (field-independent basis, Debye-Ang):
   XX=              4.4171   YY=              5.0180   ZZ=             -9.4351
   XY=             -3.0766   XZ=              0.0014   YZ=             -0.0010
 Octapole moment (field-independent basis, Debye-Ang**2):
  XXX=             17.0008  YYY=             -9.6502  ZZZ=             -0.0032  XYY=             10.8628
  XXY=             -6.9478  XXZ=              0.0012  XZZ=              2.9457  YZZ=             -1.3304
  YYZ=              0.0008  XYZ=             -0.0033
 Hexadecapole moment (field-independent basis, Debye-Ang**3):
 XXXX=           -864.3491 YYYY=           -401.1863 ZZZZ=            -82.7222 XXXY=            -20.5442
 XXXZ=              0.0000 YYYX=            -19.7908 YYYZ=              0.0036 ZZZX=              0.0021
 ZZZY=              0.0078 XXYY=           -206.6816 XXZZ=           -204.3076 YYZZ=           -103.9199
 XXYZ=              0.0005 YYXZ=              0.0109 ZZXY=             -3.5203
 N-N= 3.941307236013D+02 E-N=-1.629908927148D+03  KE= 3.595295586258D+02
 Unable to Open any file for archive entry.
 1\1\GINC-EXP-1-25\FOpt\RPBEPBE TD-FC\6-31+G(d)\C8H7N1\SCAPARAS\28-Jun-
 2021\0\\# td= (nstates=6, root=3) PBEPBE/6-31+G* Opt density=current\\
 FuncsPBEPBE-V-3rd\\0,1\C,-2.1821336178,0.7011899117,-0.0000301988\C,-2
 .1611552408,-0.7429071351,0.0001219269\C,-0.9408125841,-1.4602051913,0
 .0000557338\C,0.25152115,-0.6849957124,-0.0001055267\C,0.261498435,0.7
 818939013,-0.0000351319\C,-0.9748139991,1.4773792839,-0.000072228\N,1.
 5756816023,-1.0895640775,-0.0002279207\C,1.6272618433,1.1830103037,0.0
 000677319\C,2.4256897765,0.0258947429,0.0000326418\H,1.8897236954,-2.0
 566160555,0.0004906071\H,2.0058026052,2.2054446615,0.0001349541\H,3.50
 72385927,-0.0950861238,0.0000329531\H,-3.1097142639,-1.2875796701,0.00
 02104036\H,-0.9191495755,-2.5540101414,0.0000389057\H,-3.1489624973,1.
 2133990774,-0.0000820137\H,-1.0107729219,2.5701982246,-0.0000968384\\V
 ersion=ES64L-G16RevC.01\State=1-A\HF=-363.3686088\RMSD=6.420e-09\RMSF=
 6.209e-05\Dipole=0.8132679,-0.5319185,0.0001765\Quadrupole=3.2839814,3
 .7307918,-7.0147732,-2.2873466,0.0010155,-0.0007126\PG=C01 [X(C8H7N1)]
 \\@
 The archive entry for this job was punched.


 CHRISTMAS IS ON TOP OF A STEEP HILL.
 THE CLOSER YOU GET, THE STEEPER THE HILL IS.
          -- LINUS, OF PEANUTS
 Job cpu time:       0 days  1 hours 26 minutes 14.4 seconds.
 Elapsed time:       0 days  0 hours 26 minutes 29.8 seconds.
 File lengths (MBytes):  RWF=    237 Int=      0 D2E=      0 Chk=     11 Scr=      1
 Normal termination of Gaussian 16 at Mon Jun 28 12:58:07 2021.
