 Entering Gaussian System, Link 0=/cm/shared/apps/spack/cpu/opt/spack/linux-centos8-zen/gcc-8.3.1/gaussian-16.C.01-po5bqktfeugvmjyga3v7eigbecnokxng/g16/g16
 Initial command:
 /cm/shared/apps/spack/cpu/opt/spack/linux-centos8-zen/gcc-8.3.1/gaussian-16.C.01-po5bqktfeugvmjyga3v7eigbecnokxng/g16/l1.exe "/scratch/cwaldt/job_3576253/Gau-11944.inp" -scrdir="/scratch/cwaldt/job_3576253/"
 Entering Link 1 = /cm/shared/apps/spack/cpu/opt/spack/linux-centos8-zen/gcc-8.3.1/gaussian-16.C.01-po5bqktfeugvmjyga3v7eigbecnokxng/g16/l1.exe PID=     11945.
  
 Copyright (c) 1988-2019, Gaussian, Inc.  All Rights Reserved.
  
 This is part of the Gaussian(R) 16 program.  It is based on
 the Gaussian(R) 09 system (copyright 2009, Gaussian, Inc.),
 the Gaussian(R) 03 system (copyright 2003, Gaussian, Inc.),
 the Gaussian(R) 98 system (copyright 1998, Gaussian, Inc.),
 the Gaussian(R) 94 system (copyright 1995, Gaussian, Inc.),
 the Gaussian 92(TM) system (copyright 1992, Gaussian, Inc.),
 the Gaussian 90(TM) system (copyright 1990, Gaussian, Inc.),
 the Gaussian 88(TM) system (copyright 1988, Gaussian, Inc.),
 the Gaussian 86(TM) system (copyright 1986, Carnegie Mellon
 University), and the Gaussian 82(TM) system (copyright 1983,
 Carnegie Mellon University). Gaussian is a federally registered
 trademark of Gaussian, Inc.
  
 This software contains proprietary and confidential information,
 including trade secrets, belonging to Gaussian, Inc.
  
 This software is provided under written license and may be
 used, copied, transmitted, or stored only in accord with that
 written license.
  
 The following legend is applicable only to US Government
 contracts under FAR:
  
                    RESTRICTED RIGHTS LEGEND
  
 Use, reproduction and disclosure by the US Government is
 subject to restrictions as set forth in subparagraphs (a)
 and (c) of the Commercial Computer Software - Restricted
 Rights clause in FAR 52.227-19.
  
 Gaussian, Inc.
 340 Quinnipiac St., Bldg. 40, Wallingford CT 06492
  
  
 ---------------------------------------------------------------
 Warning -- This program may not be used in any manner that
 competes with the business of Gaussian, Inc. or will provide
 assistance to any competitor of Gaussian, Inc.  The licensee
 of this program is prohibited from giving any competitor of
 Gaussian, Inc. access to this program.  By using this program,
 the user acknowledges that Gaussian, Inc. is engaged in the
 business of creating and licensing software in the field of
 computational chemistry and represents and warrants to the
 licensee that it is not a competitor of Gaussian, Inc. and that
 it will not use this program in any manner prohibited above.
 ---------------------------------------------------------------
  

 Cite this work as:
 Gaussian 16, Revision C.01,
 M. J. Frisch, G. W. Trucks, H. B. Schlegel, G. E. Scuseria, 
 M. A. Robb, J. R. Cheeseman, G. Scalmani, V. Barone, 
 G. A. Petersson, H. Nakatsuji, X. Li, M. Caricato, A. V. Marenich, 
 J. Bloino, B. G. Janesko, R. Gomperts, B. Mennucci, H. P. Hratchian, 
 J. V. Ortiz, A. F. Izmaylov, J. L. Sonnenberg, D. Williams-Young, 
 F. Ding, F. Lipparini, F. Egidi, J. Goings, B. Peng, A. Petrone, 
 T. Henderson, D. Ranasinghe, V. G. Zakrzewski, J. Gao, N. Rega, 
 G. Zheng, W. Liang, M. Hada, M. Ehara, K. Toyota, R. Fukuda, 
 J. Hasegawa, M. Ishida, T. Nakajima, Y. Honda, O. Kitao, H. Nakai, 
 T. Vreven, K. Throssell, J. A. Montgomery, Jr., J. E. Peralta, 
 F. Ogliaro, M. J. Bearpark, J. J. Heyd, E. N. Brothers, K. N. Kudin, 
 V. N. Staroverov, T. A. Keith, R. Kobayashi, J. Normand, 
 K. Raghavachari, A. P. Rendell, J. C. Burant, S. S. Iyengar, 
 J. Tomasi, M. Cossi, J. M. Millam, M. Klene, C. Adamo, R. Cammi, 
 J. W. Ochterski, R. L. Martin, K. Morokuma, O. Farkas, 
 J. B. Foresman, and D. J. Fox, Gaussian, Inc., Wallingford CT, 2019.
 
 ******************************************
 Gaussian 16:  AS64L-G16RevC.01  3-Jul-2019
                23-Jun-2021 
 ******************************************
 %nprocshared=4
 Will use up to    4 processors via shared memory.
 %chk=FuncsPBE1PBE-V-1st.chk
 %Mem=3GB
 -------------------------------------------------------------
 # td= (nstates=6, root=1) PBE1PBE/6-31+G* Opt density=current
 -------------------------------------------------------------
 1/18=20,19=15,26=3,38=1/1,3;
 2/9=110,12=2,17=6,18=5,40=1/2;
 3/5=1,6=6,7=11,11=9,25=1,30=1,71=1,74=-13/1,2,3,8;
 4//1;
 5/5=2,38=5/2;
 8/6=1,10=2,107=1,108=6/1;
 9/8=1,15=2,41=6,42=1,70=2/14;
 10/5=4,28=1/2;
 6/7=2,8=2,9=2,10=2,22=-1/1;
 7/12=6,13=5,14=1/1,2,3,16;
 1/18=20,19=15,26=3/3(2);
 2/9=110/2;
 99//99;
 2/9=110/2;
 3/5=1,6=6,7=11,11=9,25=1,30=1,71=1,74=-13/1,2,3,8;
 4/5=5,16=3,69=1/1;
 5/5=2,38=5/2;
 8/6=1,10=2,107=1,108=6/1;
 9/8=1,15=2,41=6,42=1,49=4,70=2/14;
 10/5=4,28=1/2;
 7/12=6,13=5,14=1/1,2,3,16;
 1/18=20,19=15,26=3/3(-8);
 2/9=110/2;
 6/7=2,8=2,9=2,10=2,22=-1/1;
 99/9=10/99;
 ------------------
 FuncsPBE1PBE-V-1st
 ------------------
 Symbolic Z-matrix:
 Charge =  0 Multiplicity = 1
 C                    -2.15106   0.68921   0.00009 
 C                    -2.12793  -0.71582   0.00008 
 C                    -0.9323   -1.4131   -0.00001 
 C                     0.24691  -0.6702   -0.00004 
 C                     0.24819   0.7483    0. 
 C                    -0.97947   1.42353   0.00003 
 N                     1.56177  -1.07759  -0.00029 
 C                     1.62013   1.1629   -0.00016 
 C                     2.38201   0.03081   0.00025 
 H                     1.87632  -2.03001   0.00044 
 H                     1.99217   2.17301  -0.00035 
 H                     3.45255  -0.08243   0.00041 
 H                    -3.06159  -1.26202   0.00009 
 H                    -0.91725  -2.49534  -0.00007 
 H                    -3.1042    1.20079   0.00009 
 H                    -1.00935   2.50542  -0.00002 
 

 GradGradGradGradGradGradGradGradGradGradGradGradGradGradGradGradGradGrad
 Berny optimization.
 Initialization pass.
                           ----------------------------
                           !    Initial Parameters    !
                           ! (Angstroms and Degrees)  !
 --------------------------                            --------------------------
 ! Name  Definition              Value          Derivative Info.                !
 --------------------------------------------------------------------------------
 ! R1    R(1,2)                  1.4052         estimate D2E/DX2                !
 ! R2    R(1,6)                  1.3827         estimate D2E/DX2                !
 ! R3    R(1,15)                 1.0818         estimate D2E/DX2                !
 ! R4    R(2,3)                  1.3841         estimate D2E/DX2                !
 ! R5    R(2,13)                 1.0817         estimate D2E/DX2                !
 ! R6    R(3,4)                  1.3937         estimate D2E/DX2                !
 ! R7    R(3,14)                 1.0823         estimate D2E/DX2                !
 ! R8    R(4,5)                  1.4185         estimate D2E/DX2                !
 ! R9    R(4,7)                  1.3765         estimate D2E/DX2                !
 ! R10   R(5,6)                  1.4011         estimate D2E/DX2                !
 ! R11   R(5,8)                  1.4332         estimate D2E/DX2                !
 ! R12   R(6,16)                 1.0823         estimate D2E/DX2                !
 ! R13   R(7,9)                  1.3789         estimate D2E/DX2                !
 ! R14   R(7,10)                 1.003          estimate D2E/DX2                !
 ! R15   R(8,9)                  1.3646         estimate D2E/DX2                !
 ! R16   R(8,11)                 1.0764         estimate D2E/DX2                !
 ! R17   R(9,12)                 1.0765         estimate D2E/DX2                !
 ! A1    A(2,1,6)              121.1349         estimate D2E/DX2                !
 ! A2    A(2,1,15)             119.1671         estimate D2E/DX2                !
 ! A3    A(6,1,15)             119.698          estimate D2E/DX2                !
 ! A4    A(1,2,3)              121.1938         estimate D2E/DX2                !
 ! A5    A(1,2,13)             119.3846         estimate D2E/DX2                !
 ! A6    A(3,2,13)             119.4217         estimate D2E/DX2                !
 ! A7    A(2,3,4)              117.5387         estimate D2E/DX2                !
 ! A8    A(2,3,14)             121.0469         estimate D2E/DX2                !
 ! A9    A(4,3,14)             121.4144         estimate D2E/DX2                !
 ! A10   A(3,4,5)              122.2626         estimate D2E/DX2                !
 ! A11   A(3,4,7)              130.5743         estimate D2E/DX2                !
 ! A12   A(5,4,7)              107.163          estimate D2E/DX2                !
 ! A13   A(4,5,6)              118.7594         estimate D2E/DX2                !
 ! A14   A(4,5,8)              106.8666         estimate D2E/DX2                !
 ! A15   A(6,5,8)              134.374          estimate D2E/DX2                !
 ! A16   A(1,6,5)              119.1105         estimate D2E/DX2                !
 ! A17   A(1,6,16)             120.4966         estimate D2E/DX2                !
 ! A18   A(5,6,16)             120.3928         estimate D2E/DX2                !
 ! A19   A(4,7,9)              109.2874         estimate D2E/DX2                !
 ! A20   A(4,7,10)             125.4909         estimate D2E/DX2                !
 ! A21   A(9,7,10)             125.2217         estimate D2E/DX2                !
 ! A22   A(5,8,9)              107.125          estimate D2E/DX2                !
 ! A23   A(5,8,11)             127.0344         estimate D2E/DX2                !
 ! A24   A(9,8,11)             125.8405         estimate D2E/DX2                !
 ! A25   A(7,9,8)              109.5578         estimate D2E/DX2                !
 ! A26   A(7,9,12)             120.4645         estimate D2E/DX2                !
 ! A27   A(8,9,12)             129.9776         estimate D2E/DX2                !
 ! D1    D(6,1,2,3)             -0.0008         estimate D2E/DX2                !
 ! D2    D(6,1,2,13)          -179.9981         estimate D2E/DX2                !
 ! D3    D(15,1,2,3)           179.996          estimate D2E/DX2                !
 ! D4    D(15,1,2,13)           -0.0013         estimate D2E/DX2                !
 ! D5    D(2,1,6,5)             -0.0018         estimate D2E/DX2                !
 ! D6    D(2,1,6,16)           179.9965         estimate D2E/DX2                !
 ! D7    D(15,1,6,5)          -179.9986         estimate D2E/DX2                !
 ! D8    D(15,1,6,16)           -0.0003         estimate D2E/DX2                !
 ! D9    D(1,2,3,4)              0.002          estimate D2E/DX2                !
 ! D10   D(1,2,3,14)          -179.9968         estimate D2E/DX2                !
 ! D11   D(13,2,3,4)           179.9992         estimate D2E/DX2                !
 ! D12   D(13,2,3,14)            0.0005         estimate D2E/DX2                !
 ! D13   D(2,3,4,5)             -0.0005         estimate D2E/DX2                !
 ! D14   D(2,3,4,7)           -179.9911         estimate D2E/DX2                !
 ! D15   D(14,3,4,5)           179.9982         estimate D2E/DX2                !
 ! D16   D(14,3,4,7)             0.0076         estimate D2E/DX2                !
 ! D17   D(3,4,5,6)             -0.002          estimate D2E/DX2                !
 ! D18   D(3,4,5,8)           -179.9955         estimate D2E/DX2                !
 ! D19   D(7,4,5,6)            179.9905         estimate D2E/DX2                !
 ! D20   D(7,4,5,8)             -0.003          estimate D2E/DX2                !
 ! D21   D(3,4,7,9)           -179.98           estimate D2E/DX2                !
 ! D22   D(3,4,7,10)            -0.0649         estimate D2E/DX2                !
 ! D23   D(5,4,7,9)              0.0284         estimate D2E/DX2                !
 ! D24   D(5,4,7,10)           179.9434         estimate D2E/DX2                !
 ! D25   D(4,5,6,1)              0.0031         estimate D2E/DX2                !
 ! D26   D(4,5,6,16)          -179.9951         estimate D2E/DX2                !
 ! D27   D(8,5,6,1)            179.9944         estimate D2E/DX2                !
 ! D28   D(8,5,6,16)            -0.0038         estimate D2E/DX2                !
 ! D29   D(4,5,8,9)             -0.0234         estimate D2E/DX2                !
 ! D30   D(4,5,8,11)           179.9883         estimate D2E/DX2                !
 ! D31   D(6,5,8,9)            179.9846         estimate D2E/DX2                !
 ! D32   D(6,5,8,11)            -0.0037         estimate D2E/DX2                !
 ! D33   D(4,7,9,8)             -0.0444         estimate D2E/DX2                !
 ! D34   D(4,7,9,12)           179.9847         estimate D2E/DX2                !
 ! D35   D(10,7,9,8)          -179.9597         estimate D2E/DX2                !
 ! D36   D(10,7,9,12)            0.0693         estimate D2E/DX2                !
 ! D37   D(5,8,9,7)              0.0414         estimate D2E/DX2                !
 ! D38   D(5,8,9,12)          -179.9913         estimate D2E/DX2                !
 ! D39   D(11,8,9,7)          -179.9702         estimate D2E/DX2                !
 ! D40   D(11,8,9,12)           -0.0029         estimate D2E/DX2                !
 --------------------------------------------------------------------------------
 Trust Radius=3.00D-01 FncErr=1.00D-07 GrdErr=1.00D-06 EigMax=2.50D+02 EigMin=1.00D-04
 Number of steps in this run=     94 maximum allowed number of steps=    100.
 GradGradGradGradGradGradGradGradGradGradGradGradGradGradGradGradGradGrad

                          Input orientation:                          
 ---------------------------------------------------------------------
 Center     Atomic      Atomic             Coordinates (Angstroms)
 Number     Number       Type             X           Y           Z
 ---------------------------------------------------------------------
      1          6           0       -2.151063    0.689208    0.000088
      2          6           0       -2.127927   -0.715818    0.000075
      3          6           0       -0.932297   -1.413100   -0.000011
      4          6           0        0.246911   -0.670201   -0.000042
      5          6           0        0.248193    0.748299    0.000000
      6          6           0       -0.979474    1.423526    0.000032
      7          7           0        1.561774   -1.077592   -0.000285
      8          6           0        1.620133    1.162900   -0.000157
      9          6           0        2.382013    0.030806    0.000248
     10          1           0        1.876315   -2.030011    0.000438
     11          1           0        1.992173    2.173010   -0.000348
     12          1           0        3.452549   -0.082425    0.000408
     13          1           0       -3.061594   -1.262020    0.000088
     14          1           0       -0.917252   -2.495342   -0.000073
     15          1           0       -3.104203    1.200785    0.000090
     16          1           0       -1.009348    2.505421   -0.000015
 ---------------------------------------------------------------------
                    Distance matrix (angstroms):
                    1          2          3          4          5
     1  C    0.000000
     2  C    1.405216   0.000000
     3  C    2.430039   1.384100   0.000000
     4  C    2.756496   2.375276   1.393711   0.000000
     5  C    2.399984   2.790983   2.462763   1.418501   0.000000
     6  C    1.382694   2.428114   2.837018   2.426461   1.401106
     7  N    4.111781   3.707395   2.516536   1.376529   2.249305
     8  C    3.800829   4.192557   3.626386   2.290414   1.433218
     9  C    4.580641   4.571324   3.615178   2.247236   2.251218
    10  H    4.859416   4.214387   2.875566   2.122273   3.220216
    11  H    4.400917   5.031953   4.627387   3.336134   2.251948
    12  H    5.656491   5.616307   4.582311   3.259079   3.310287
    13  H    2.153220   1.081698   2.134650   3.361020   3.872476
    14  H    3.415208   2.152310   1.082347   2.164813   3.446661
    15  H    1.081752   2.150926   3.398466   3.838040   3.382795
    16  H    2.145261   3.409927   3.919278   3.415079   2.160761
                    6          7          8          9         10
     6  C    0.000000
     7  N    3.565604   0.000000
     8  C    2.612639   2.241252   0.000000
     9  C    3.638580   1.378890   1.364587   0.000000
    10  H    4.481345   1.003015   3.203172   2.121956   0.000000
    11  H    3.064704   3.278972   1.076446   2.177387   4.204618
    12  H    4.680888   2.136677   2.215532   1.076508   2.505515
    13  H    3.398144   4.627045   5.272457   5.595021   4.997275
    14  H    3.919362   2.855798   4.452085   4.155307   2.832058
    15  H    2.136372   5.192528   4.724488   5.609583   5.936632
    16  H    1.082307   4.410062   2.952378   4.198220   5.375611
                   11         12         13         14         15
    11  H    0.000000
    12  H    2.686947   0.000000
    13  H    6.110646   6.620083   0.000000
    14  H    5.500751   4.991726   2.473719   0.000000
    15  H    5.188282   6.681139   2.463174   4.294661   0.000000
    16  H    3.019872   5.158049   4.290143   5.001611   2.467892
                   16
    16  H    0.000000
 Stoichiometry    C8H7N
 Framework group  C1[X(C8H7N)]
 Deg. of freedom    42
 Full point group                 C1      NOp   1
 Largest Abelian subgroup         C1      NOp   1
 Largest concise Abelian subgroup C1      NOp   1
                         Standard orientation:                         
 ---------------------------------------------------------------------
 Center     Atomic      Atomic             Coordinates (Angstroms)
 Number     Number       Type             X           Y           Z
 ---------------------------------------------------------------------
      1          6           0       -2.151063    0.689208    0.000088
      2          6           0       -2.127927   -0.715818    0.000075
      3          6           0       -0.932297   -1.413100   -0.000011
      4          6           0        0.246911   -0.670201   -0.000042
      5          6           0        0.248193    0.748299    0.000000
      6          6           0       -0.979474    1.423526    0.000032
      7          7           0        1.561774   -1.077592   -0.000285
      8          6           0        1.620133    1.162900   -0.000157
      9          6           0        2.382013    0.030806    0.000248
     10          1           0        1.876315   -2.030011    0.000438
     11          1           0        1.992173    2.173010   -0.000348
     12          1           0        3.452549   -0.082425    0.000408
     13          1           0       -3.061594   -1.262020    0.000088
     14          1           0       -0.917252   -2.495342   -0.000073
     15          1           0       -3.104203    1.200785    0.000090
     16          1           0       -1.009348    2.505421   -0.000015
 ---------------------------------------------------------------------
 Rotational constants (GHZ):           3.9080822           1.6429452           1.1566805
 Standard basis: 6-31+G(d) (6D, 7F)
 There are   185 symmetry adapted cartesian basis functions of A   symmetry.
 There are   185 symmetry adapted basis functions of A   symmetry.
   185 basis functions,   316 primitive gaussians,   185 cartesian basis functions
    31 alpha electrons       31 beta electrons
       nuclear repulsion energy       401.3368668897 Hartrees.
 NAtoms=   16 NActive=   16 NUniq=   16 SFac= 1.00D+00 NAtFMM=   60 NAOKFM=F Big=F
 Integral buffers will be    131072 words long.
 Regular integral format.
 Two-electron integral symmetry is turned on.
 One-electron integrals computed using PRISM.
 NBasis=   185 RedAO= T EigKep=  1.26D-06  NBF=   185
 NBsUse=   185 1.00D-06 EigRej= -1.00D+00 NBFU=   185
 ExpMin= 4.38D-02 ExpMax= 4.17D+03 ExpMxC= 6.27D+02 IAcc=3 IRadAn=         5 AccDes= 0.00D+00
 Harris functional with IExCor= 1009 and IRadAn=       5 diagonalized for initial guess.
 HarFok:  IExCor= 1009 AccDes= 0.00D+00 IRadAn=         5 IDoV= 1 UseB2=F ITyADJ=14
 ICtDFT=  3500011 ScaDFX=  1.000000  1.000000  1.000000  1.000000
 FoFCou: FMM=F IPFlag=           0 FMFlag=      100000 FMFlg1=           0
         NFxFlg=           0 DoJE=T BraDBF=F KetDBF=T FulRan=T
         wScrn=  0.000000 ICntrl=       500 IOpCl=  0 I1Cent=   200000004 NGrid=           0
         NMat0=    1 NMatS0=      1 NMatT0=    0 NMatD0=    1 NMtDS0=    0 NMtDT0=    0
 Petite list used in FoFCou.
 Keep R1 ints in memory in canonical form, NReq=152071459.
 Requested convergence on RMS density matrix=1.00D-08 within 128 cycles.
 Requested convergence on MAX density matrix=1.00D-06.
 Requested convergence on             energy=1.00D-06.
 No special actions if energy rises.
 SCF Done:  E(RPBE1PBE) =  -363.403722658     A.U. after   14 cycles
            NFock= 14  Conv=0.64D-08     -V/T= 2.0087
 DoSCS=F DFT=T ScalE2(SS,OS)=  1.000000  1.000000
 ExpMin= 4.38D-02 ExpMax= 4.17D+03 ExpMxC= 6.27D+02 IAcc=3 IRadAn=         5 AccDes= 0.00D+00
 HarFok:  IExCor=  205 AccDes= 0.00D+00 IRadAn=         5 IDoV=-2 UseB2=F ITyADJ=14
 ICtDFT= 12500011 ScaDFX=  1.000000  1.000000  1.000000  1.000000
 Range of M.O.s used for correlation:    10   185
 NBasis=   185 NAE=    31 NBE=    31 NFC=     9 NFV=     0
 NROrb=    176 NOA=    22 NOB=    22 NVA=   154 NVB=   154

 **** Warning!!: The largest alpha MO coefficient is  0.17264113D+03

 Orbital symmetries:
       Occupied  (A) (A) (A) (A) (A) (A) (A) (A) (A) (A) (A) (A)
                 (A) (A) (A) (A) (A) (A) (A) (A) (A) (A) (A) (A)
                 (A) (A) (A) (A) (A) (A) (A)
       Virtual   (A) (A) (A) (A) (A) (A) (A) (A) (A) (A) (A) (A)
                 (A) (A) (A) (A) (A) (A) (A) (A) (A) (A) (A) (A)
                 (A) (A) (A) (A) (A) (A) (A) (A) (A) (A) (A) (A)
                 (A) (A) (A) (A) (A) (A) (A) (A) (A) (A) (A) (A)
                 (A) (A) (A) (A) (A) (A) (A) (A) (A) (A) (A) (A)
                 (A) (A) (A) (A) (A) (A) (A) (A) (A) (A) (A) (A)
                 (A) (A) (A) (A) (A) (A) (A) (A) (A) (A) (A) (A)
                 (A) (A) (A) (A) (A) (A) (A) (A) (A) (A) (A) (A)
                 (A) (A) (A) (A) (A) (A) (A) (A) (A) (A) (A) (A)
                 (A) (A) (A) (A) (A) (A) (A) (A) (A) (A) (A) (A)
                 (A) (A) (A) (A) (A) (A) (A) (A) (A) (A) (A) (A)
                 (A) (A) (A) (A) (A) (A) (A) (A) (A) (A) (A) (A)
                 (A) (A) (A) (A) (A) (A) (A) (A) (A) (A)
    24 initial guesses have been made.
 Convergence on wavefunction:    0.000001000000000
 Iteration     1 Dimension    24 NMult     0 NNew     24
 CISAX will form    24 AO SS matrices at one time.
 New state      1 was old state      3
 New state      3 was old state      1
 New state      6 was old state      7
 Iteration     2 Dimension    36 NMult    24 NNew     12
 New state      1 was old state      3
 New state      3 was old state      1
 Iteration     3 Dimension    48 NMult    36 NNew     12
 Iteration     4 Dimension    60 NMult    48 NNew     12
 Iteration     5 Dimension    72 NMult    60 NNew     12
 Iteration     6 Dimension    84 NMult    72 NNew     12
 Iteration     7 Dimension    96 NMult    84 NNew     12
 Iteration     8 Dimension   108 NMult    96 NNew     12
 Iteration     9 Dimension   118 NMult   108 NNew     10
 Iteration    10 Dimension   122 NMult   118 NNew      4
 Iteration    11 Dimension   126 NMult   122 NNew      4
 ***********************************************************************
 Excited states from <AA,BB:AA,BB> singles matrix:
 ***********************************************************************
 
 Ground to excited state transition densities written to RWF  633
 Ground to excited state transition electric dipole moments (Au):
       state          X           Y           Z        Dip. S.      Osc.
         1        -0.5410      0.6327     -0.0002      0.6931      0.0829
         2        -0.5685     -0.0945     -0.0002      0.3321      0.0408
         3         0.0011     -0.0005     -0.1305      0.0170      0.0021
         4        -0.0004      0.0001     -0.1419      0.0201      0.0028
         5         0.0005     -0.0000      0.0184      0.0003      0.0000
         6         0.0006      0.0002      0.1075      0.0116      0.0016
 Ground to excited state transition velocity dipole moments (Au):
       state          X           Y           Z        Dip. S.      Osc.
         1         0.0880     -0.1228      0.0000      0.0228      0.0848
         2         0.0989      0.0179      0.0000      0.0101      0.0365
         3        -0.0002      0.0001      0.0161      0.0003      0.0009
         4         0.0001     -0.0000      0.0306      0.0009      0.0030
         5        -0.0001      0.0000     -0.0029      0.0000      0.0000
         6        -0.0001     -0.0000     -0.0229      0.0005      0.0016
 Ground to excited state transition magnetic dipole moments (Au):
       state          X           Y           Z
         1         0.0003     -0.0001      0.1845
         2         0.0000     -0.0002     -0.0293
         3         0.1229     -0.0692      0.0001
         4         0.0549     -0.2386     -0.0000
         5         0.3184     -0.1338      0.0002
         6         0.0995      0.3733      0.0005
 Ground to excited state transition velocity quadrupole moments (Au):
       state          XX          YY          ZZ          XY          XZ          YZ
         1         0.1952     -0.1103      0.0112      0.0479      0.0001      0.0001
         2         0.0773     -0.1157      0.0262      0.0005      0.0001     -0.0000
         3        -0.0003      0.0002      0.0001      0.0000      0.0604      0.0544
         4        -0.0000      0.0000     -0.0000     -0.0000      0.1676     -0.0033
         5        -0.0002     -0.0000      0.0000      0.0002      0.1705      0.2685
         6         0.0001     -0.0001      0.0001      0.0002     -0.3297      0.0054
 <0|del|b> * <b|rxdel|0> + <0|del|b> * <b|delr+rdel|0>
 Rotatory Strengths (R) in cgs (10**-40 erg-esu-cm/Gauss)
       state          XX          YY          ZZ    R(velocity)    E-M Angle
         1         0.0507      0.0756      0.0257      0.0507       90.00
         2        -0.0148      0.0028      0.0016     -0.0035       90.00
         3        -0.0250     -0.0588     -0.0250     -0.0362       90.00
         4         0.0139      0.0079      0.0113      0.0110       90.00
         5        -0.0038     -0.1011     -0.0084     -0.0378       90.00
         6        -0.0697     -0.0319     -0.0220     -0.0412       90.00
 1/2[<0|r|b>*<b|rxdel|0> + (<0|rxdel|b>*<b|r|0>)*]
 Rotatory Strengths (R) in cgs (10**-40 erg-esu-cm/Gauss)
       state          XX          YY          ZZ     R(length)
         1         0.1191      0.0260      0.0232      0.0561
         2         0.0101     -0.0162     -0.0039     -0.0033
         3        -0.0930     -0.0261      0.0048     -0.0381
         4         0.0154      0.0157     -0.0007      0.0101
         5        -0.1136     -0.0017     -0.0030     -0.0394
         6        -0.0437     -0.0585     -0.0395     -0.0472
  1/2[<0|del|b>*<b|r|0> + (<0|r|b>*<b|del|0>)*] (Au)
       state          X           Y           Z        Dip. S.   Osc.(frdel)
         1        -0.0476     -0.0777     -0.0000      0.1253      0.0836
         2        -0.0562     -0.0017     -0.0000      0.0579      0.0386
         3        -0.0000     -0.0000     -0.0021      0.0021      0.0014
         4        -0.0000     -0.0000     -0.0043      0.0043      0.0029
         5        -0.0000     -0.0000     -0.0001      0.0001      0.0000
         6        -0.0000     -0.0000     -0.0025      0.0025      0.0016

 Excitation energies and oscillator strengths:
 
 Excited State   1:      Singlet-A      4.8822 eV  253.95 nm  f=0.0829  <S**2>=0.000
      30 -> 32        -0.14802
      30 -> 35         0.15576
      31 -> 32         0.66069
 This state for optimization and/or second-order correction.
 Total Energy, E(TD-HF/TD-DFT) =  -363.224304109    
 Copying the excited state density for this state as the 1-particle RhoCI density.
 
 Excited State   2:      Singlet-A      5.0149 eV  247.23 nm  f=0.0408  <S**2>=0.000
      30 -> 32         0.56341
      31 -> 32         0.12971
      31 -> 35        -0.39540
 
 Excited State   3:      Singlet-A      5.1232 eV  242.00 nm  f=0.0021  <S**2>=0.000
      31 -> 33         0.70256
 
 Excited State   4:      Singlet-A      5.6004 eV  221.39 nm  f=0.0028  <S**2>=0.000
      30 -> 33         0.68762
      31 -> 34         0.12787
 
 Excited State   5:      Singlet-A      5.7133 eV  217.01 nm  f=0.0000  <S**2>=0.000
      30 -> 33        -0.13102
      31 -> 34         0.68701
 
 Excited State   6:      Singlet-A      5.8202 eV  213.02 nm  f=0.0016  <S**2>=0.000
      31 -> 36         0.69473
 SavETr:  write IOETrn=   770 NScale= 10 NData=  16 NLR=1 NState=    6 LETran=     118.
          IDoAtm=1111111111111111
          Differentiating once with respect to electric field.
                with respect to dipole field.
          Differentiating once with respect to nuclear coordinates.
 Keep R1 ints in memory in canonical form, NReq=152083851.
          There are     1 degrees of freedom in the 1st order CPHF.  IDoFFX=0 NUNeed=     1.
 LinEq1:  Iter=  0 NonCon=     1 RMS=1.08D-02 Max=3.06D-01 NDo=     1
 AX will form     1 AO Fock derivatives at one time.
 LinEq1:  Iter=  1 NonCon=     1 RMS=4.10D-03 Max=9.70D-02 NDo=     1
 LinEq1:  Iter=  2 NonCon=     1 RMS=3.18D-03 Max=9.03D-02 NDo=     1
 LinEq1:  Iter=  3 NonCon=     1 RMS=1.30D-03 Max=3.16D-02 NDo=     1
 LinEq1:  Iter=  4 NonCon=     1 RMS=8.34D-04 Max=3.05D-02 NDo=     1
 LinEq1:  Iter=  5 NonCon=     1 RMS=3.92D-04 Max=7.73D-03 NDo=     1
 LinEq1:  Iter=  6 NonCon=     1 RMS=2.45D-04 Max=8.16D-03 NDo=     1
 LinEq1:  Iter=  7 NonCon=     1 RMS=1.26D-04 Max=3.14D-03 NDo=     1
 LinEq1:  Iter=  8 NonCon=     1 RMS=7.42D-05 Max=1.63D-03 NDo=     1
 LinEq1:  Iter=  9 NonCon=     1 RMS=3.21D-05 Max=7.70D-04 NDo=     1
 LinEq1:  Iter= 10 NonCon=     1 RMS=2.05D-05 Max=5.97D-04 NDo=     1
 LinEq1:  Iter= 11 NonCon=     1 RMS=6.77D-06 Max=1.13D-04 NDo=     1
 LinEq1:  Iter= 12 NonCon=     1 RMS=4.20D-06 Max=7.09D-05 NDo=     1
 LinEq1:  Iter= 13 NonCon=     1 RMS=1.27D-06 Max=1.81D-05 NDo=     1
 LinEq1:  Iter= 14 NonCon=     1 RMS=6.69D-07 Max=2.03D-05 NDo=     1
 LinEq1:  Iter= 15 NonCon=     1 RMS=2.00D-07 Max=3.11D-06 NDo=     1
 LinEq1:  Iter= 16 NonCon=     1 RMS=3.43D-08 Max=3.81D-07 NDo=     1
 LinEq1:  Iter= 17 NonCon=     1 RMS=1.80D-08 Max=4.02D-07 NDo=     1
 LinEq1:  Iter= 18 NonCon=     1 RMS=8.15D-09 Max=9.73D-08 NDo=     1
 LinEq1:  Iter= 19 NonCon=     1 RMS=1.60D-09 Max=3.00D-08 NDo=     1
 LinEq1:  Iter= 20 NonCon=     1 RMS=2.60D-10 Max=3.74D-09 NDo=     1
 LinEq1:  Iter= 21 NonCon=     0 RMS=6.71D-11 Max=7.85D-10 NDo=     1
 Linear equations converged to 1.000D-10 1.000D-09 after    21 iterations.
 End of Minotr F.D. properties file   721 does not exist.
 End of Minotr F.D. properties file   722 does not exist.
 End of Minotr F.D. properties file   788 does not exist.

 **********************************************************************

            Population analysis using the CI Density.

 **********************************************************************

 Orbital symmetries:
       Occupied  (A) (A) (A) (A) (A) (A) (A) (A) (A) (A) (A) (A)
                 (A) (A) (A) (A) (A) (A) (A) (A) (A) (A) (A) (A)
                 (A) (A) (A) (A) (A) (A) (A)
       Virtual   (A) (A) (A) (A) (A) (A) (A) (A) (A) (A) (A) (A)
                 (A) (A) (A) (A) (A) (A) (A) (A) (A) (A) (A) (A)
                 (A) (A) (A) (A) (A) (A) (A) (A) (A) (A) (A) (A)
                 (A) (A) (A) (A) (A) (A) (A) (A) (A) (A) (A) (A)
                 (A) (A) (A) (A) (A) (A) (A) (A) (A) (A) (A) (A)
                 (A) (A) (A) (A) (A) (A) (A) (A) (A) (A) (A) (A)
                 (A) (A) (A) (A) (A) (A) (A) (A) (A) (A) (A) (A)
                 (A) (A) (A) (A) (A) (A) (A) (A) (A) (A) (A) (A)
                 (A) (A) (A) (A) (A) (A) (A) (A) (A) (A) (A) (A)
                 (A) (A) (A) (A) (A) (A) (A) (A) (A) (A) (A) (A)
                 (A) (A) (A) (A) (A) (A) (A) (A) (A) (A) (A) (A)
                 (A) (A) (A) (A) (A) (A) (A) (A) (A) (A) (A) (A)
                 (A) (A) (A) (A) (A) (A) (A) (A) (A) (A)
 The electronic state is 1-A.
 Alpha  occ. eigenvalues --  -14.45155 -10.27217 -10.27032 -10.23997 -10.23618
 Alpha  occ. eigenvalues --  -10.23460 -10.23451 -10.22938 -10.22709  -1.01448
 Alpha  occ. eigenvalues --   -0.86831  -0.81005  -0.76132  -0.74267  -0.64673
 Alpha  occ. eigenvalues --   -0.61656  -0.60292  -0.55980  -0.50086  -0.48844
 Alpha  occ. eigenvalues --   -0.45397  -0.44516  -0.44009  -0.42673  -0.40677
 Alpha  occ. eigenvalues --   -0.36900  -0.35016  -0.34813  -0.29298  -0.23528
 Alpha  occ. eigenvalues --   -0.21822
 Alpha virt. eigenvalues --   -0.01193   0.00610   0.02489   0.02496   0.03049
 Alpha virt. eigenvalues --    0.04590   0.04692   0.05279   0.06703   0.06886
 Alpha virt. eigenvalues --    0.07501   0.07532   0.09374   0.09721   0.11545
 Alpha virt. eigenvalues --    0.11586   0.11996   0.13456   0.14374   0.14769
 Alpha virt. eigenvalues --    0.16338   0.16513   0.17520   0.17622   0.18074
 Alpha virt. eigenvalues --    0.19035   0.19589   0.19801   0.20613   0.20876
 Alpha virt. eigenvalues --    0.21079   0.21325   0.22795   0.23375   0.24053
 Alpha virt. eigenvalues --    0.24501   0.24720   0.25562   0.26629   0.27017
 Alpha virt. eigenvalues --    0.28065   0.28221   0.28874   0.30678   0.31253
 Alpha virt. eigenvalues --    0.32050   0.32652   0.34295   0.36195   0.37868
 Alpha virt. eigenvalues --    0.39042   0.41135   0.44829   0.46264   0.52720
 Alpha virt. eigenvalues --    0.59590   0.64125   0.68975   0.69118   0.71685
 Alpha virt. eigenvalues --    0.73258   0.73863   0.74672   0.75470   0.75947
 Alpha virt. eigenvalues --    0.77109   0.77530   0.79582   0.81059   0.81791
 Alpha virt. eigenvalues --    0.83145   0.87164   0.91184   0.91902   0.93059
 Alpha virt. eigenvalues --    0.95340   0.96090   0.96962   0.97837   1.00104
 Alpha virt. eigenvalues --    1.02116   1.04791   1.06412   1.08104   1.10931
 Alpha virt. eigenvalues --    1.12819   1.13186   1.18634   1.19476   1.22034
 Alpha virt. eigenvalues --    1.23961   1.24514   1.26790   1.33117   1.33442
 Alpha virt. eigenvalues --    1.35177   1.38498   1.42583   1.43319   1.46886
 Alpha virt. eigenvalues --    1.47187   1.47875   1.50993   1.51565   1.55553
 Alpha virt. eigenvalues --    1.60590   1.66602   1.80263   1.86144   1.90108
 Alpha virt. eigenvalues --    1.90685   1.93987   1.96093   2.01345   2.01601
 Alpha virt. eigenvalues --    2.02091   2.08182   2.11873   2.16051   2.19012
 Alpha virt. eigenvalues --    2.19166   2.21736   2.26565   2.27761   2.28288
 Alpha virt. eigenvalues --    2.30461   2.33372   2.39892   2.42674   2.46621
 Alpha virt. eigenvalues --    2.56863   2.57734   2.65775   2.67942   2.68940
 Alpha virt. eigenvalues --    2.72189   2.75834   2.83200   2.86918   2.88078
 Alpha virt. eigenvalues --    2.97740   3.00237   3.13635   3.26723   3.47296
 Alpha virt. eigenvalues --    4.18206   4.29406   4.32378   4.35836   4.39424
 Alpha virt. eigenvalues --    4.42961   4.51295   4.55217   4.82201
          Condensed to atoms (all electrons):
               1          2          3          4          5          6
     1  C    5.786530   0.436364   0.270724  -0.833445   0.211598  -0.303056
     2  C    0.436364   6.287260  -0.420489   0.522097  -1.034082   0.739943
     3  C    0.270724  -0.420489  13.815622  -1.908998  -3.938438  -3.327382
     4  C   -0.833445   0.522097  -1.908998  13.434810  -4.236717  -0.822296
     5  C    0.211598  -1.034082  -3.938438  -4.236717  15.661249  -0.344216
     6  C   -0.303056   0.739943  -3.327382  -0.822296  -0.344216  13.925933
     7  N   -0.022184  -0.002527  -0.619030  -0.413436   1.041425   0.157793
     8  C    0.130841  -0.338440   3.445044   2.111534  -5.001567  -4.364214
     9  C   -0.088244   0.028849  -1.228860  -0.735866   1.780091   1.145831
    10  H   -0.001513  -0.008628  -0.120345  -0.054628   0.155761   0.022790
    11  H    0.003484   0.001142   0.003495   0.012670   0.006950   0.012205
    12  H    0.001147   0.000365   0.037190   0.104797  -0.116151  -0.021931
    13  H    0.026187   0.247821   0.017003   0.005590   0.018185  -0.008190
    14  H    0.014175   0.070100   0.201627   0.038230  -0.004208  -0.021948
    15  H    0.260017   0.022034   0.022514  -0.022550   0.032648  -0.016450
    16  H    0.038022   0.007510  -0.028218   0.031205   0.093982   0.183025
               7          8          9         10         11         12
     1  C   -0.022184   0.130841  -0.088244  -0.001513   0.003484   0.001147
     2  C   -0.002527  -0.338440   0.028849  -0.008628   0.001142   0.000365
     3  C   -0.619030   3.445044  -1.228860  -0.120345   0.003495   0.037190
     4  C   -0.413436   2.111534  -0.735866  -0.054628   0.012670   0.104797
     5  C    1.041425  -5.001567   1.780091   0.155761   0.006950  -0.116151
     6  C    0.157793  -4.364214   1.145831   0.022790   0.012205  -0.021931
     7  N    7.204406  -0.802662   0.621543   0.267026   0.005588  -0.056565
     8  C   -0.802662  12.478403  -2.134917  -0.008257   0.274392   0.067005
     9  C    0.621543  -2.134917   6.671376  -0.019247  -0.018589   0.301083
    10  H    0.267026  -0.008257  -0.019247   0.308649  -0.000059  -0.001922
    11  H    0.005588   0.274392  -0.018589  -0.000059   0.452302  -0.000644
    12  H   -0.056565   0.067005   0.301083  -0.001922  -0.000644   0.448371
    13  H   -0.000526   0.001096   0.001115  -0.000002  -0.000000  -0.000000
    14  H   -0.008257  -0.003114   0.007068   0.002085   0.000002   0.000003
    15  H    0.000332   0.008954  -0.000150  -0.000000  -0.000002  -0.000000
    16  H   -0.001194  -0.034274   0.003942   0.000004   0.001329  -0.000001
              13         14         15         16
     1  C    0.026187   0.014175   0.260017   0.038022
     2  C    0.247821   0.070100   0.022034   0.007510
     3  C    0.017003   0.201627   0.022514  -0.028218
     4  C    0.005590   0.038230  -0.022550   0.031205
     5  C    0.018185  -0.004208   0.032648   0.093982
     6  C   -0.008190  -0.021948  -0.016450   0.183025
     7  N   -0.000526  -0.008257   0.000332  -0.001194
     8  C    0.001096  -0.003114   0.008954  -0.034274
     9  C    0.001115   0.007068  -0.000150   0.003942
    10  H   -0.000002   0.002085  -0.000000   0.000004
    11  H   -0.000000   0.000002  -0.000002   0.001329
    12  H   -0.000000   0.000003  -0.000000  -0.000001
    13  H    0.495735  -0.004111  -0.004030  -0.000147
    14  H   -0.004111   0.503284  -0.000148   0.000017
    15  H   -0.004030  -0.000148   0.496313  -0.003999
    16  H   -0.000147   0.000017  -0.003999   0.498707
 Mulliken charges:
               1
     1  C    0.069352
     2  C   -0.559322
     3  C   -0.221458
     4  C   -1.232996
     5  C    1.673491
     6  C   -0.957838
     7  N   -0.371732
     8  C    0.170177
     9  C   -0.335025
    10  H    0.458285
    11  H    0.245736
    12  H    0.237253
    13  H    0.204275
    14  H    0.205194
    15  H    0.204518
    16  H    0.210088
 Sum of Mulliken charges =  -0.00000
 Mulliken charges with hydrogens summed into heavy atoms:
               1
     1  C    0.273870
     2  C   -0.355046
     3  C   -0.016264
     4  C   -1.232996
     5  C    1.673491
     6  C   -0.747750
     7  N    0.086554
     8  C    0.415913
     9  C   -0.097772
 Electronic spatial extent (au):  <R**2>=           1007.5084
 Charge=             -0.0000 electrons
 Dipole moment (field-independent basis, Debye):
    X=              4.0015    Y=             -1.1319    Z=             -0.0019  Tot=              4.1585
 Quadrupole moment (field-independent basis, Debye-Ang):
   XX=            -45.7989   YY=            -45.4952   ZZ=            -60.4516
   XY=             -2.6641   XZ=             -0.0027   YZ=              0.0011
 Traceless Quadrupole moment (field-independent basis, Debye-Ang):
   XX=              4.7830   YY=              5.0867   ZZ=             -9.8697
   XY=             -2.6641   XZ=             -0.0027   YZ=              0.0011
 Octapole moment (field-independent basis, Debye-Ang**2):
  XXX=             23.7683  YYY=             -8.7619  ZZZ=             -0.0193  XYY=             15.7807
  XXY=             -5.4162  XXZ=             -0.0092  XZZ=              4.5462  YZZ=             -0.7680
  YYZ=             -0.0139  XYZ=              0.0000
 Hexadecapole moment (field-independent basis, Debye-Ang**3):
 XXXX=           -847.7012 YYYY=           -388.0129 ZZZZ=            -86.4883 XXXY=            -19.5407
 XXXZ=             -0.0469 YYYX=            -15.7499 YYYZ=              0.0205 ZZZX=             -0.0251
 ZZZY=              0.0212 XXYY=           -191.9725 XXZZ=           -200.5876 YYZZ=           -102.5067
 XXYZ=              0.0048 YYXZ=             -0.0021 ZZXY=             -2.1139
 N-N= 4.013368668897D+02 E-N=-1.644734923988D+03  KE= 3.604115522833D+02
 Calling FoFJK, ICntrl=  10005127 FMM=F ISym2X=0 I1Cent= 0 IOpClX= 0 NMat=1 NMatS=1 NMatT=0.
 ***** Axes restored to original set *****
 -------------------------------------------------------------------
 Center     Atomic                   Forces (Hartrees/Bohr)
 Number     Number              X              Y              Z
 -------------------------------------------------------------------
      1        6          -0.024385562   -0.038236258   -0.000003413
      2        6          -0.040580807    0.042243685    0.000001858
      3        6           0.038338938   -0.031877191    0.000009183
      4        6          -0.011601291    0.017716395   -0.000021136
      5        6           0.013274540   -0.018108454   -0.000026436
      6        6           0.012595242    0.032785956    0.000002127
      7        7           0.011328296    0.030661364    0.000055050
      8        6          -0.036161260    0.018872208    0.000021273
      9        6           0.034459038   -0.051043496   -0.000034106
     10        1           0.002893250   -0.006284161   -0.000000327
     11        1           0.002002034    0.003790203    0.000002798
     12        1           0.003284298   -0.000918837   -0.000004979
     13        1          -0.003171119   -0.001085513   -0.000000011
     14        1           0.000663999   -0.003412611   -0.000005114
     15        1          -0.003162130    0.001435684    0.000000873
     16        1           0.000222534    0.003461027    0.000002360
 -------------------------------------------------------------------
 Cartesian Forces:  Max     0.051043496 RMS     0.018714171

 GradGradGradGradGradGradGradGradGradGradGradGradGradGradGradGradGradGrad
 Berny optimization.
 FormGI is forming the generalized inverse of G from B-inverse, IUseBI=4.
 Internal  Forces:  Max     0.049872000 RMS     0.009730678
 Search for a local minimum.
 Step number   1 out of a maximum of   94
 All quantities printed in internal units (Hartrees-Bohrs-Radians)
 Mixed Optimization -- RFO/linear search
 Second derivative matrix not updated -- first step.
 ITU=  0
     Eigenvalues ---    0.01853   0.01931   0.01986   0.02012   0.02070
     Eigenvalues ---    0.02113   0.02148   0.02153   0.02172   0.02209
     Eigenvalues ---    0.02233   0.02248   0.02338   0.16000   0.16000
     Eigenvalues ---    0.16000   0.16000   0.16000   0.16000   0.16000
     Eigenvalues ---    0.22000   0.22188   0.22662   0.24011   0.24651
     Eigenvalues ---    0.35712   0.35717   0.35783   0.35790   0.36420
     Eigenvalues ---    0.36427   0.37009   0.38432   0.42633   0.43465
     Eigenvalues ---    0.45769   0.46692   0.47162   0.47468   0.47567
     Eigenvalues ---    0.48125   0.50955
 RFO step:  Lambda=-1.75504900D-02 EMin= 1.85287394D-02
 Linear search not attempted -- first point.
 Iteration  1 RMS(Cart)=  0.02992683 RMS(Int)=  0.00032801
 Iteration  2 RMS(Cart)=  0.00040883 RMS(Int)=  0.00014143
 Iteration  3 RMS(Cart)=  0.00000009 RMS(Int)=  0.00014143
 Variable       Old X    -DE/DX   Delta X   Delta X   Delta X     New X
                                 (Linear)    (Quad)   (Total)
    R1        2.65547  -0.01499   0.00000  -0.03009  -0.03007   2.62541
    R2        2.61291   0.03603   0.00000   0.07263   0.07265   2.68556
    R3        2.04421   0.00347   0.00000   0.00923   0.00923   2.05345
    R4        2.61557   0.04987   0.00000   0.10045   0.10047   2.71604
    R5        2.04411   0.00329   0.00000   0.00875   0.00875   2.05286
    R6        2.63373   0.00778   0.00000   0.01491   0.01490   2.64863
    R7        2.04534   0.00342   0.00000   0.00913   0.00913   2.05447
    R8        2.68058  -0.00758   0.00000  -0.02293  -0.02317   2.65740
    R9        2.60126   0.01641   0.00000   0.02901   0.02927   2.63053
   R10        2.64771   0.02099   0.00000   0.04352   0.04351   2.69121
   R11        2.70839  -0.00021   0.00000   0.00072   0.00034   2.70873
   R12        2.04526   0.00345   0.00000   0.00922   0.00922   2.05448
   R13        2.60573  -0.01887   0.00000  -0.03559  -0.03521   2.57051
   R14        1.89542   0.00687   0.00000   0.01405   0.01405   1.90948
   R15        2.57870   0.04163   0.00000   0.08097   0.08096   2.65965
   R16        2.03419   0.00425   0.00000   0.01113   0.01113   2.04532
   R17        2.03430   0.00336   0.00000   0.00881   0.00881   2.04311
    A1        2.11420   0.00069   0.00000   0.00827   0.00826   2.12246
    A2        2.07986  -0.00058   0.00000  -0.00546  -0.00546   2.07440
    A3        2.08912  -0.00011   0.00000  -0.00280  -0.00280   2.08632
    A4        2.11523  -0.00145   0.00000  -0.00112  -0.00113   2.11410
    A5        2.08365   0.00005   0.00000  -0.00326  -0.00326   2.08040
    A6        2.08430   0.00140   0.00000   0.00438   0.00439   2.08869
    A7        2.05144  -0.00363   0.00000  -0.01669  -0.01674   2.03470
    A8        2.11267   0.00245   0.00000   0.01190   0.01192   2.12459
    A9        2.11908   0.00119   0.00000   0.00479   0.00482   2.12390
   A10        2.13389   0.00454   0.00000   0.01661   0.01652   2.15041
   A11        2.27895  -0.00607   0.00000  -0.01312  -0.01307   2.26588
   A12        1.87035   0.00153   0.00000  -0.00350  -0.00345   1.86690
   A13        2.07274   0.00464   0.00000   0.01377   0.01397   2.08672
   A14        1.86517  -0.00315   0.00000  -0.01423  -0.01477   1.85041
   A15        2.34527  -0.00149   0.00000   0.00046   0.00079   2.34606
   A16        2.07887  -0.00479   0.00000  -0.02084  -0.02089   2.05798
   A17        2.10306   0.00272   0.00000   0.01225   0.01227   2.11534
   A18        2.10125   0.00207   0.00000   0.00859   0.00861   2.10986
   A19        1.90743   0.01249   0.00000   0.04757   0.04811   1.95553
   A20        2.19023  -0.00551   0.00000  -0.01964  -0.01991   2.17032
   A21        2.18553  -0.00698   0.00000  -0.02793  -0.02820   2.15733
   A22        1.86968   0.00648   0.00000   0.03504   0.03466   1.90435
   A23        2.21717  -0.00266   0.00000  -0.01426  -0.01408   2.20309
   A24        2.19633  -0.00382   0.00000  -0.02078  -0.02059   2.17574
   A25        1.91215  -0.01735   0.00000  -0.06489  -0.06456   1.84759
   A26        2.10250   0.00810   0.00000   0.02919   0.02903   2.13153
   A27        2.26854   0.00925   0.00000   0.03570   0.03553   2.30407
    D1       -0.00001   0.00000   0.00000   0.00001   0.00001  -0.00001
    D2       -3.14156  -0.00000   0.00000  -0.00002  -0.00002  -3.14158
    D3        3.14152   0.00000   0.00000   0.00005   0.00005   3.14158
    D4       -0.00002   0.00000   0.00000   0.00003   0.00003   0.00000
    D5       -0.00003   0.00000   0.00000   0.00007   0.00007   0.00004
    D6        3.14153   0.00000   0.00000   0.00005   0.00006   3.14159
    D7       -3.14157   0.00000   0.00000   0.00002   0.00002  -3.14154
    D8       -0.00001  -0.00000   0.00000   0.00001   0.00001   0.00001
    D9        0.00003  -0.00000   0.00000  -0.00006  -0.00006  -0.00003
   D10       -3.14154   0.00000   0.00000   0.00002   0.00002  -3.14152
   D11        3.14158  -0.00000   0.00000  -0.00004  -0.00004   3.14154
   D12        0.00001   0.00000   0.00000   0.00004   0.00004   0.00005
   D13       -0.00001  -0.00000   0.00000   0.00004   0.00005   0.00004
   D14       -3.14144  -0.00000   0.00000  -0.00003  -0.00003  -3.14147
   D15        3.14156  -0.00000   0.00000  -0.00004  -0.00004   3.14152
   D16        0.00013  -0.00000   0.00000  -0.00012  -0.00012   0.00002
   D17       -0.00004   0.00000   0.00000   0.00003   0.00003  -0.00001
   D18       -3.14151   0.00000   0.00000  -0.00005  -0.00005  -3.14157
   D19        3.14143   0.00000   0.00000   0.00009   0.00009   3.14152
   D20       -0.00005   0.00000   0.00000   0.00001   0.00001  -0.00004
   D21       -3.14124  -0.00000   0.00000  -0.00024  -0.00026  -3.14150
   D22       -0.00113   0.00001   0.00000   0.00020   0.00019  -0.00094
   D23        0.00049  -0.00001   0.00000  -0.00031  -0.00033   0.00017
   D24        3.14060   0.00001   0.00000   0.00013   0.00012   3.14073
   D25        0.00005  -0.00000   0.00000  -0.00009  -0.00009  -0.00003
   D26       -3.14151  -0.00000   0.00000  -0.00007  -0.00008  -3.14158
   D27        3.14150  -0.00000   0.00000   0.00002   0.00002   3.14152
   D28       -0.00007  -0.00000   0.00000   0.00003   0.00003  -0.00003
   D29       -0.00041   0.00001   0.00000   0.00031   0.00032  -0.00009
   D30        3.14139   0.00000   0.00000   0.00001   0.00002   3.14140
   D31        3.14132   0.00001   0.00000   0.00022   0.00022   3.14154
   D32       -0.00006  -0.00000   0.00000  -0.00008  -0.00008  -0.00015
   D33       -0.00077   0.00003   0.00000   0.00056   0.00055  -0.00022
   D34        3.14133   0.00001   0.00000   0.00028   0.00028  -3.14158
   D35       -3.14089   0.00001   0.00000   0.00011   0.00010  -3.14079
   D36        0.00121  -0.00000   0.00000  -0.00016  -0.00017   0.00104
   D37        0.00072  -0.00002   0.00000  -0.00054  -0.00053   0.00019
   D38       -3.14144  -0.00001   0.00000  -0.00023  -0.00023   3.14151
   D39       -3.14107  -0.00001   0.00000  -0.00024  -0.00024  -3.14131
   D40       -0.00005   0.00000   0.00000   0.00006   0.00006   0.00001
         Item               Value     Threshold  Converged?
 Maximum Force            0.049872     0.000450     NO 
 RMS     Force            0.009731     0.000300     NO 
 Maximum Displacement     0.108537     0.001800     NO 
 RMS     Displacement     0.029898     0.001200     NO 
 Predicted change in Energy=-9.143732D-03
 GradGradGradGradGradGradGradGradGradGradGradGradGradGradGradGradGradGrad

                          Input orientation:                          
 ---------------------------------------------------------------------
 Center     Atomic      Atomic             Coordinates (Angstroms)
 Number     Number       Type             X           Y           Z
 ---------------------------------------------------------------------
      1          6           0       -2.190519    0.683142    0.000022
      2          6           0       -2.164018   -0.705910    0.000018
      3          6           0       -0.919762   -1.425324    0.000041
      4          6           0        0.250567   -0.654095    0.000027
      5          6           0        0.246271    0.752136    0.000036
      6          6           0       -0.994632    1.450921    0.000053
      7          7           0        1.583237   -1.056211   -0.000087
      8          6           0        1.622785    1.151937   -0.000019
      9          6           0        2.436214    0.003379    0.000060
     10          1           0        1.888092   -2.019578    0.000605
     11          1           0        1.993538    2.168790   -0.000193
     12          1           0        3.509984   -0.122887   -0.000014
     13          1           0       -3.102036   -1.253845   -0.000022
     14          1           0       -0.887625   -2.512028   -0.000030
     15          1           0       -3.152078    1.189287   -0.000012
     16          1           0       -1.023116    2.537733    0.000051
 ---------------------------------------------------------------------
                    Distance matrix (angstroms):
                    1          2          3          4          5
     1  C    0.000000
     2  C    1.389305   0.000000
     3  C    2.461799   1.437264   0.000000
     4  C    2.783361   2.415140   1.401594   0.000000
     5  C    2.437766   2.816982   2.470013   1.406237   0.000000
     6  C    1.421137   2.453444   2.877220   2.445733   1.424128
     7  N    4.155308   3.763593   2.530069   1.392016   2.248911
     8  C    3.842011   4.217994   3.620334   2.268200   1.433399
     9  C    4.676401   4.654591   3.647433   2.282394   2.314408
    10  H    4.892827   4.259731   2.870049   2.132143   3.221486
    11  H    4.439986   5.054619   4.626551   3.317623   2.249411
    12  H    5.757206   5.703877   4.617250   3.302421   3.378978
    13  H    2.140743   1.086329   2.189000   3.405825   3.903219
    14  H    3.450601   2.211615   1.087179   2.178852   3.455501
    15  H    1.086636   2.137297   3.437939   3.869890   3.426350
    16  H    2.191423   3.438441   3.964404   3.436572   2.190821
                    6          7          8          9         10
     6  C    0.000000
     7  N    3.595987   0.000000
     8  C    2.634437   2.208502   0.000000
     9  C    3.723718   1.360258   1.407427   0.000000
    10  H    4.511592   1.010451   3.182592   2.095899   0.000000
    11  H    3.073189   3.250996   1.082334   2.210195   4.189695
    12  H    4.771628   2.140898   2.277432   1.081169   2.495590
    13  H    3.428835   4.689439   5.302048   5.679156   5.048536
    14  H    3.964394   2.867850   4.441486   4.168354   2.819062
    15  H    2.173253   5.240751   4.775009   5.712738   5.974958
    16  H    1.087184   4.439539   2.986841   4.288345   5.407791
                   11         12         13         14         15
    11  H    0.000000
    12  H    2.747980   0.000000
    13  H    6.138346   6.708045   0.000000
    14  H    5.496468   5.004694   2.546888   0.000000
    15  H    5.238014   6.790057   2.443645   4.339064   0.000000
    16  H    3.039131   5.256224   4.324115   5.051578   2.520077
                   16
    16  H    0.000000
 Stoichiometry    C8H7N
 Framework group  C1[X(C8H7N)]
 Deg. of freedom    42
 Full point group                 C1      NOp   1
 Largest Abelian subgroup         C1      NOp   1
 Largest concise Abelian subgroup C1      NOp   1
                         Standard orientation:                         
 ---------------------------------------------------------------------
 Center     Atomic      Atomic             Coordinates (Angstroms)
 Number     Number       Type             X           Y           Z
 ---------------------------------------------------------------------
      1          6           0       -2.198009    0.658110    0.000002
      2          6           0       -2.157003   -0.730591   -0.000001
      3          6           0       -0.905303   -1.436971    0.000021
      4          6           0        0.256908   -0.653562    0.000008
      5          6           0        0.237927    0.752547    0.000017
      6          6           0       -1.010205    1.438336    0.000033
      7          7           0        1.593706   -1.041740   -0.000106
      8          6           0        1.610191    1.166701   -0.000039
      9          6           0        2.435570    0.026701    0.000041
     10          1           0        1.908603   -2.001870    0.000585
     11          1           0        1.970305    2.187370   -0.000212
     12          1           0        3.510600   -0.088346   -0.000033
     13          1           0       -3.089248   -1.288291   -0.000041
     14          1           0       -0.861819   -2.523280   -0.000050
     15          1           0       -3.164801    1.154185   -0.000031
     16          1           0       -1.050037    2.524790    0.000031
 ---------------------------------------------------------------------
 Rotational constants (GHZ):           3.9057704           1.5952931           1.1326625
 Standard basis: 6-31+G(d) (6D, 7F)
 There are   185 symmetry adapted cartesian basis functions of A   symmetry.
 There are   185 symmetry adapted basis functions of A   symmetry.
   185 basis functions,   316 primitive gaussians,   185 cartesian basis functions
    31 alpha electrons       31 beta electrons
       nuclear repulsion energy       397.8751346838 Hartrees.
 NAtoms=   16 NActive=   16 NUniq=   16 SFac= 1.00D+00 NAtFMM=   60 NAOKFM=F Big=F
 Integral buffers will be    131072 words long.
 Regular integral format.
 Two-electron integral symmetry is turned on.
 One-electron integrals computed using PRISM.
 NBasis=   185 RedAO= T EigKep=  1.31D-06  NBF=   185
 NBsUse=   185 1.00D-06 EigRej= -1.00D+00 NBFU=   185
 Initial guess from the checkpoint file:  "FuncsPBE1PBE-V-1st.chk"
 B after Tr=     0.000000   -0.000000    0.000000
         Rot=    0.999986    0.000005    0.000005   -0.005281 Ang=   0.61 deg.
 ExpMin= 4.38D-02 ExpMax= 4.17D+03 ExpMxC= 6.27D+02 IAcc=3 IRadAn=         5 AccDes= 0.00D+00
 Harris functional with IExCor= 1009 and IRadAn=       5 diagonalized for initial guess.
 HarFok:  IExCor= 1009 AccDes= 0.00D+00 IRadAn=         5 IDoV= 1 UseB2=F ITyADJ=14
 ICtDFT=  3500011 ScaDFX=  1.000000  1.000000  1.000000  1.000000
 FoFCou: FMM=F IPFlag=           0 FMFlag=      100000 FMFlg1=           0
         NFxFlg=           0 DoJE=T BraDBF=F KetDBF=T FulRan=T
         wScrn=  0.000000 ICntrl=       500 IOpCl=  0 I1Cent=   200000004 NGrid=           0
         NMat0=    1 NMatS0=      1 NMatT0=    0 NMatD0=    1 NMtDS0=    0 NMtDT0=    0
 Petite list used in FoFCou.
 Keep R1 ints in memory in canonical form, NReq=152071459.
 Requested convergence on RMS density matrix=1.00D-08 within 128 cycles.
 Requested convergence on MAX density matrix=1.00D-06.
 Requested convergence on             energy=1.00D-06.
 No special actions if energy rises.
 SCF Done:  E(RPBE1PBE) =  -363.396913832     A.U. after   13 cycles
            NFock= 13  Conv=0.60D-08     -V/T= 2.0097
 DoSCS=F DFT=T ScalE2(SS,OS)=  1.000000  1.000000
 ExpMin= 4.38D-02 ExpMax= 4.17D+03 ExpMxC= 6.27D+02 IAcc=3 IRadAn=         5 AccDes= 0.00D+00
 HarFok:  IExCor=  205 AccDes= 0.00D+00 IRadAn=         5 IDoV=-2 UseB2=F ITyADJ=14
 ICtDFT= 12500011 ScaDFX=  1.000000  1.000000  1.000000  1.000000
 Range of M.O.s used for correlation:    10   185
 NBasis=   185 NAE=    31 NBE=    31 NFC=     9 NFV=     0
 NROrb=    176 NOA=    22 NOB=    22 NVA=   154 NVB=   154

 **** Warning!!: The largest alpha MO coefficient is  0.18194078D+03

 Orbital symmetries:
       Occupied  (A) (A) (A) (A) (A) (A) (A) (A) (A) (A) (A) (A)
                 (A) (A) (A) (A) (A) (A) (A) (A) (A) (A) (A) (A)
                 (A) (A) (A) (A) (A) (A) (A)
       Virtual   (A) (A) (A) (A) (A) (A) (A) (A) (A) (A) (A) (A)
                 (A) (A) (A) (A) (A) (A) (A) (A) (A) (A) (A) (A)
                 (A) (A) (A) (A) (A) (A) (A) (A) (A) (A) (A) (A)
                 (A) (A) (A) (A) (A) (A) (A) (A) (A) (A) (A) (A)
                 (A) (A) (A) (A) (A) (A) (A) (A) (A) (A) (A) (A)
                 (A) (A) (A) (A) (A) (A) (A) (A) (A) (A) (A) (A)
                 (A) (A) (A) (A) (A) (A) (A) (A) (A) (A) (A) (A)
                 (A) (A) (A) (A) (A) (A) (A) (A) (A) (A) (A) (A)
                 (A) (A) (A) (A) (A) (A) (A) (A) (A) (A) (A) (A)
                 (A) (A) (A) (A) (A) (A) (A) (A) (A) (A) (A) (A)
                 (A) (A) (A) (A) (A) (A) (A) (A) (A) (A) (A) (A)
                 (A) (A) (A) (A) (A) (A) (A) (A) (A) (A) (A) (A)
                 (A) (A) (A) (A) (A) (A) (A) (A) (A) (A)
 Generating guess from densities on rwf.
 Convergence on wavefunction:    0.000001000000000
 Iteration     1 Dimension    12 NMult     0 NNew     12
 CISAX will form    12 AO SS matrices at one time.
 New state      4 was old state      5
 New state      5 was old state      4
 Iteration     2 Dimension    24 NMult    12 NNew     12
 Iteration     3 Dimension    36 NMult    24 NNew     12
 New state      2 was old state      3
 New state      3 was old state      2
 Iteration     4 Dimension    48 NMult    36 NNew     12
 Iteration     5 Dimension    60 NMult    48 NNew     12
 Iteration     6 Dimension    72 NMult    60 NNew     12
 Iteration     7 Dimension    84 NMult    72 NNew     12
 Iteration     8 Dimension    96 NMult    84 NNew     12
 Iteration     9 Dimension   108 NMult    96 NNew     12
 Iteration    10 Dimension   116 NMult   108 NNew      8
 Iteration    11 Dimension   118 NMult   116 NNew      2
 ***********************************************************************
 Excited states from <AA,BB:AA,BB> singles matrix:
 ***********************************************************************
 
 Ground to excited state transition densities written to RWF  633
 Ground to excited state transition electric dipole moments (Au):
       state          X           Y           Z        Dip. S.      Osc.
         1        -0.6918      0.6880     -0.0001      0.9520      0.1033
         2        -0.0324     -0.0165     -0.1337      0.0192      0.0023
         3        -0.3360     -0.1680      0.0130      0.1413      0.0169
         4         0.0002     -0.0000     -0.0187      0.0003      0.0000
         5         0.0002      0.0001      0.1427      0.0204      0.0028
         6        -0.0007     -0.0001     -0.1133      0.0128      0.0018
 Ground to excited state transition velocity dipole moments (Au):
       state          X           Y           Z        Dip. S.      Osc.
         1         0.1025     -0.1219      0.0000      0.0254      0.1039
         2         0.0055      0.0032      0.0159      0.0003      0.0011
         3         0.0565      0.0320     -0.0015      0.0042      0.0157
         4        -0.0000      0.0000      0.0054      0.0000      0.0001
         5        -0.0000     -0.0000     -0.0290      0.0008      0.0027
         6         0.0001      0.0000      0.0259      0.0007      0.0021
 Ground to excited state transition magnetic dipole moments (Au):
       state          X           Y           Z
         1         0.0001      0.0000      0.1596
         2         0.1319     -0.0713      0.0038
         3        -0.0129      0.0069      0.0381
         4         0.3206     -0.1603      0.0001
         5         0.0873      0.3931      0.0002
         6         0.0005     -0.1330     -0.0002
 Ground to excited state transition velocity quadrupole moments (Au):
       state          XX          YY          ZZ          XY          XZ          YZ
         1         0.1829     -0.1205      0.0122      0.0687      0.0000     -0.0000
         2         0.0035     -0.0082      0.0027      0.0005      0.0638      0.0519
         3         0.0365     -0.0852      0.0267      0.0052     -0.0062     -0.0051
         4         0.0000     -0.0001      0.0000      0.0000      0.1864      0.2503
         5         0.0000     -0.0001      0.0000      0.0001     -0.3450     -0.0044
         6         0.0001     -0.0001     -0.0000     -0.0001      0.0624     -0.0625
 <0|del|b> * <b|rxdel|0> + <0|del|b> * <b|delr+rdel|0>
 Rotatory Strengths (R) in cgs (10**-40 erg-esu-cm/Gauss)
       state          XX          YY          ZZ    R(velocity)    E-M Angle
         1         0.0066      0.0187      0.0056      0.0103       90.00
         2        -0.7040      2.0776      0.8135      0.7290       77.51
         3         0.6920     -2.0997     -0.8303     -0.7460      102.38
         4         0.0014     -0.0335     -0.0042     -0.0121       90.00
         5        -0.0258     -0.0111     -0.0074     -0.0147       90.00
         6        -0.0186     -0.0195      0.0128     -0.0084       90.00
 1/2[<0|r|b>*<b|rxdel|0> + (<0|rxdel|b>*<b|r|0>)*]
 Rotatory Strengths (R) in cgs (10**-40 erg-esu-cm/Gauss)
       state          XX          YY          ZZ     R(length)
         1         0.0413     -0.0099      0.0072      0.0129
         2         3.0205     -0.8339      0.3599      0.8489
         3        -3.0637      0.8149     -0.3493     -0.8660
         4        -0.0421     -0.0006      0.0016     -0.0137
         5        -0.0135     -0.0217     -0.0180     -0.0177
         6         0.0002     -0.0095     -0.0142     -0.0078
  1/2[<0|del|b>*<b|r|0> + (<0|r|b>*<b|del|0>)*] (Au)
       state          X           Y           Z        Dip. S.   Osc.(frdel)
         1        -0.0709     -0.0838     -0.0000      0.1548      0.1032
         2        -0.0002     -0.0001     -0.0021      0.0024      0.0016
         3        -0.0190     -0.0054     -0.0000      0.0244      0.0163
         4        -0.0000     -0.0000     -0.0001      0.0001      0.0001
         5        -0.0000     -0.0000     -0.0041      0.0041      0.0028
         6        -0.0000     -0.0000     -0.0029      0.0029      0.0020

 Excitation energies and oscillator strengths:
 
 Excited State   1:      Singlet-A      4.4276 eV  280.03 nm  f=0.1033  <S**2>=0.000
      29 -> 32         0.10282
      30 -> 34         0.10691
      31 -> 32         0.68327
 This state for optimization and/or second-order correction.
 Total Energy, E(TD-HF/TD-DFT) =  -363.234203893    
 Copying the excited state density for this state as the 1-particle RhoCI density.
 
 Excited State   2:      Singlet-A      4.8795 eV  254.09 nm  f=0.0023  <S**2>=0.000
      31 -> 33         0.69961
 
 Excited State   3:      Singlet-A      4.8799 eV  254.07 nm  f=0.0169  <S**2>=0.000
      30 -> 32         0.55621
      31 -> 34        -0.41852
 
 Excited State   4:      Singlet-A      5.4855 eV  226.02 nm  f=0.0000  <S**2>=0.000
      31 -> 35         0.69629
 
 Excited State   5:      Singlet-A      5.6029 eV  221.29 nm  f=0.0028  <S**2>=0.000
      31 -> 36        -0.69304
 
 Excited State   6:      Singlet-A      5.7762 eV  214.65 nm  f=0.0018  <S**2>=0.000
      30 -> 33         0.69344
 SavETr:  write IOETrn=   770 NScale= 10 NData=  16 NLR=1 NState=    6 LETran=     118.
          IDoAtm=1111111111111111
          Differentiating once with respect to electric field.
                with respect to dipole field.
          Differentiating once with respect to nuclear coordinates.
 Keep R1 ints in memory in canonical form, NReq=152083851.
          There are     1 degrees of freedom in the 1st order CPHF.  IDoFFX=0 NUNeed=     1.
 LinEq1:  Iter=  0 NonCon=     1 RMS=1.33D-02 Max=4.09D-01 NDo=     1
 AX will form     1 AO Fock derivatives at one time.
 LinEq1:  Iter=  1 NonCon=     1 RMS=4.86D-03 Max=1.02D-01 NDo=     1
 LinEq1:  Iter=  2 NonCon=     1 RMS=3.98D-03 Max=1.35D-01 NDo=     1
 LinEq1:  Iter=  3 NonCon=     1 RMS=1.69D-03 Max=3.66D-02 NDo=     1
 LinEq1:  Iter=  4 NonCon=     1 RMS=1.12D-03 Max=3.59D-02 NDo=     1
 LinEq1:  Iter=  5 NonCon=     1 RMS=5.29D-04 Max=1.13D-02 NDo=     1
 LinEq1:  Iter=  6 NonCon=     1 RMS=3.71D-04 Max=1.33D-02 NDo=     1
 LinEq1:  Iter=  7 NonCon=     1 RMS=1.56D-04 Max=3.61D-03 NDo=     1
 LinEq1:  Iter=  8 NonCon=     1 RMS=9.20D-05 Max=1.72D-03 NDo=     1
 LinEq1:  Iter=  9 NonCon=     1 RMS=4.21D-05 Max=1.09D-03 NDo=     1
 LinEq1:  Iter= 10 NonCon=     1 RMS=2.51D-05 Max=5.77D-04 NDo=     1
 LinEq1:  Iter= 11 NonCon=     1 RMS=1.13D-05 Max=2.23D-04 NDo=     1
 LinEq1:  Iter= 12 NonCon=     1 RMS=6.32D-06 Max=1.14D-04 NDo=     1
 LinEq1:  Iter= 13 NonCon=     1 RMS=2.02D-06 Max=4.28D-05 NDo=     1
 LinEq1:  Iter= 14 NonCon=     1 RMS=1.09D-06 Max=1.21D-05 NDo=     1
 LinEq1:  Iter= 15 NonCon=     1 RMS=2.34D-07 Max=3.48D-06 NDo=     1
 LinEq1:  Iter= 16 NonCon=     1 RMS=4.79D-08 Max=8.67D-07 NDo=     1
 LinEq1:  Iter= 17 NonCon=     1 RMS=2.79D-08 Max=6.28D-07 NDo=     1
 LinEq1:  Iter= 18 NonCon=     1 RMS=7.51D-09 Max=9.83D-08 NDo=     1
 LinEq1:  Iter= 19 NonCon=     1 RMS=1.37D-09 Max=3.82D-08 NDo=     1
 LinEq1:  Iter= 20 NonCon=     1 RMS=2.62D-10 Max=5.66D-09 NDo=     1
 LinEq1:  Iter= 21 NonCon=     1 RMS=5.73D-11 Max=1.24D-09 NDo=     1
 LinEq1:  Iter= 22 NonCon=     0 RMS=2.12D-11 Max=3.06D-10 NDo=     1
 Linear equations converged to 1.000D-10 1.000D-09 after    22 iterations.
 End of Minotr F.D. properties file   721 does not exist.
 End of Minotr F.D. properties file   722 does not exist.
 End of Minotr F.D. properties file   788 does not exist.
 Calling FoFJK, ICntrl=  10005127 FMM=F ISym2X=0 I1Cent= 0 IOpClX= 0 NMat=1 NMatS=1 NMatT=0.
 ***** Axes restored to original set *****
 -------------------------------------------------------------------
 Center     Atomic                   Forces (Hartrees/Bohr)
 Number     Number              X              Y              Z
 -------------------------------------------------------------------
      1        6          -0.000743454   -0.011259754   -0.000001412
      2        6          -0.001797952    0.013340740    0.000000542
      3        6           0.007161578   -0.011247600    0.000002571
      4        6          -0.009278282    0.009847355   -0.000003837
      5        6           0.005139704   -0.007725304   -0.000004694
      6        6           0.002961257    0.009244028   -0.000001042
      7        7           0.013317801    0.005981080    0.000031199
      8        6          -0.013125899    0.012655691   -0.000004875
      9        6          -0.002688188   -0.020472169   -0.000012298
     10        1          -0.000726657   -0.001097266   -0.000013691
     11        1           0.000722932    0.000523283    0.000003518
     12        1          -0.001103673    0.000730082    0.000002968
     13        1           0.000843763   -0.001336322    0.000000481
     14        1          -0.001018183    0.000931507   -0.000001561
     15        1           0.000450968    0.000997361    0.000000281
     16        1          -0.000115714   -0.001112714    0.000001848
 -------------------------------------------------------------------
 Cartesian Forces:  Max     0.020472169 RMS     0.006179226

 GradGradGradGradGradGradGradGradGradGradGradGradGradGradGradGradGradGrad
 Berny optimization.
 Using GEDIIS/GDIIS optimizer.
 FormGI is forming the generalized inverse of G from B-inverse, IUseBI=4.
 Internal  Forces:  Max     0.012257121 RMS     0.002661522
 Search for a local minimum.
 Step number   2 out of a maximum of   94
 All quantities printed in internal units (Hartrees-Bohrs-Radians)
 Mixed Optimization -- RFO/linear search
 Update second derivatives using D2CorX and points    1    2
 DE= -9.90D-03 DEPred=-9.14D-03 R= 1.08D+00
 TightC=F SS=  1.41D+00  RLast= 2.05D-01 DXNew= 5.0454D-01 6.1498D-01
 Trust test= 1.08D+00 RLast= 2.05D-01 DXMaxT set to 5.05D-01
 ITU=  1  0
 Use linear search instead of GDIIS.
     Eigenvalues ---    0.01852   0.01931   0.01986   0.02011   0.02069
     Eigenvalues ---    0.02113   0.02146   0.02150   0.02172   0.02210
     Eigenvalues ---    0.02234   0.02248   0.02341   0.15955   0.16000
     Eigenvalues ---    0.16000   0.16000   0.16000   0.16000   0.16023
     Eigenvalues ---    0.20522   0.22008   0.23980   0.24537   0.24751
     Eigenvalues ---    0.35595   0.35714   0.35787   0.35851   0.36009
     Eigenvalues ---    0.36480   0.36542   0.38653   0.40065   0.42784
     Eigenvalues ---    0.43893   0.46027   0.47053   0.47169   0.47662
     Eigenvalues ---    0.49030   0.53428
 RFO step:  Lambda=-1.74444944D-03 EMin= 1.85215867D-02
 Quartic linear search produced a step of  0.15101.
 Iteration  1 RMS(Cart)=  0.00999029 RMS(Int)=  0.00006302
 Iteration  2 RMS(Cart)=  0.00010771 RMS(Int)=  0.00001941
 Iteration  3 RMS(Cart)=  0.00000000 RMS(Int)=  0.00001941
 Variable       Old X    -DE/DX   Delta X   Delta X   Delta X     New X
                                 (Linear)    (Quad)   (Total)
    R1        2.62541  -0.00579  -0.00454  -0.01328  -0.01785   2.60756
    R2        2.68556   0.00242   0.01097   0.00166   0.01260   2.69816
    R3        2.05345   0.00007   0.00139  -0.00031   0.00108   2.05453
    R4        2.71604   0.00418   0.01517   0.00437   0.01954   2.73558
    R5        2.05286  -0.00005   0.00132  -0.00067   0.00065   2.05352
    R6        2.64863  -0.00183   0.00225  -0.00524  -0.00297   2.64566
    R7        2.05447  -0.00096   0.00138  -0.00360  -0.00222   2.05225
    R8        2.65740  -0.00240  -0.00350  -0.00534  -0.00883   2.64857
    R9        2.63053   0.00465   0.00442   0.00838   0.01283   2.64336
   R10        2.69121  -0.00068   0.00657  -0.00405   0.00252   2.69373
   R11        2.70873  -0.00669   0.00005  -0.01821  -0.01820   2.69053
   R12        2.05448  -0.00111   0.00139  -0.00408  -0.00268   2.05180
   R13        2.57051  -0.01189  -0.00532  -0.02594  -0.03122   2.53930
   R14        1.90948   0.00083   0.00212   0.00124   0.00336   1.91284
   R15        2.65965   0.01226   0.01222   0.02321   0.03542   2.69507
   R16        2.04532   0.00074   0.00168   0.00170   0.00338   2.04870
   R17        2.04311  -0.00118   0.00133  -0.00421  -0.00288   2.04023
    A1        2.12246   0.00175   0.00125   0.00872   0.00992   2.13238
    A2        2.07440   0.00024  -0.00082   0.00370   0.00290   2.07730
    A3        2.08632  -0.00200  -0.00042  -0.01242  -0.01282   2.07350
    A4        2.11410   0.00278  -0.00017   0.01469   0.01449   2.12859
    A5        2.08040   0.00023  -0.00049   0.00444   0.00396   2.08436
    A6        2.08869  -0.00301   0.00066  -0.01912  -0.01845   2.07024
    A7        2.03470  -0.00542  -0.00253  -0.02650  -0.02901   2.00569
    A8        2.12459   0.00169   0.00180   0.00579   0.00758   2.13217
    A9        2.12390   0.00373   0.00073   0.02071   0.02143   2.14533
   A10        2.15041   0.00306   0.00249   0.01459   0.01712   2.16752
   A11        2.26588  -0.00402  -0.00197  -0.01730  -0.01931   2.24657
   A12        1.86690   0.00096  -0.00052   0.00271   0.00219   1.86909
   A13        2.08672   0.00214   0.00211   0.00921   0.01137   2.09809
   A14        1.85041   0.00142  -0.00223   0.00805   0.00576   1.85617
   A15        2.34606  -0.00356   0.00012  -0.01726  -0.01713   2.32892
   A16        2.05798  -0.00432  -0.00315  -0.02071  -0.02389   2.03409
   A17        2.11534   0.00201   0.00185   0.00918   0.01104   2.12638
   A18        2.10986   0.00231   0.00130   0.01153   0.01285   2.12271
   A19        1.95553  -0.00099   0.00726  -0.00961  -0.00227   1.95326
   A20        2.17032  -0.00048  -0.00301  -0.00241  -0.00545   2.16487
   A21        2.15733   0.00147  -0.00426   0.01202   0.00773   2.16506
   A22        1.90435  -0.00298   0.00523  -0.01449  -0.00930   1.89505
   A23        2.20309   0.00200  -0.00213   0.01067   0.00857   2.21166
   A24        2.17574   0.00098  -0.00311   0.00382   0.00073   2.17647
   A25        1.84759   0.00159  -0.00975   0.01334   0.00362   1.85121
   A26        2.13153  -0.00019   0.00438  -0.00213   0.00224   2.13377
   A27        2.30407  -0.00141   0.00537  -0.01121  -0.00586   2.29821
    D1       -0.00001   0.00000   0.00000   0.00000   0.00000  -0.00000
    D2       -3.14158  -0.00000  -0.00000  -0.00000  -0.00001  -3.14158
    D3        3.14158   0.00000   0.00001   0.00002   0.00003  -3.14158
    D4        0.00000   0.00000   0.00000   0.00001   0.00001   0.00002
    D5        0.00004   0.00000   0.00001   0.00000   0.00001   0.00005
    D6        3.14159   0.00000   0.00001   0.00003   0.00004  -3.14156
    D7       -3.14154  -0.00000   0.00000  -0.00001  -0.00001  -3.14155
    D8        0.00001   0.00000   0.00000   0.00002   0.00002   0.00003
    D9       -0.00003   0.00000  -0.00001   0.00001   0.00000  -0.00003
   D10       -3.14152   0.00000   0.00000   0.00001   0.00001  -3.14150
   D11        3.14154   0.00000  -0.00001   0.00002   0.00002   3.14156
   D12        0.00005   0.00000   0.00001   0.00002   0.00003   0.00008
   D13        0.00004  -0.00000   0.00001  -0.00004  -0.00003   0.00000
   D14       -3.14147  -0.00000  -0.00001  -0.00005  -0.00005  -3.14152
   D15        3.14152  -0.00000  -0.00001  -0.00004  -0.00005   3.14148
   D16        0.00002  -0.00000  -0.00002  -0.00004  -0.00006  -0.00005
   D17       -0.00001   0.00000   0.00000   0.00005   0.00006   0.00005
   D18       -3.14157   0.00000  -0.00001   0.00003   0.00002  -3.14154
   D19        3.14152   0.00000   0.00001   0.00005   0.00007   3.14159
   D20       -0.00004   0.00000   0.00000   0.00004   0.00004  -0.00001
   D21       -3.14150  -0.00000  -0.00004  -0.00006  -0.00010   3.14158
   D22       -0.00094   0.00001   0.00003   0.00027   0.00030  -0.00064
   D23        0.00017  -0.00000  -0.00005  -0.00007  -0.00012   0.00005
   D24        3.14073   0.00001   0.00002   0.00027   0.00028   3.14101
   D25       -0.00003  -0.00000  -0.00001  -0.00003  -0.00004  -0.00007
   D26       -3.14158  -0.00000  -0.00001  -0.00006  -0.00007   3.14153
   D27        3.14152  -0.00000   0.00000  -0.00000   0.00000   3.14152
   D28       -0.00003  -0.00000   0.00001  -0.00003  -0.00003  -0.00006
   D29       -0.00009   0.00000   0.00005   0.00001   0.00005  -0.00004
   D30        3.14140   0.00000   0.00000   0.00008   0.00008   3.14149
   D31        3.14154   0.00000   0.00003  -0.00002   0.00001   3.14156
   D32       -0.00015   0.00000  -0.00001   0.00006   0.00004  -0.00011
   D33       -0.00022   0.00000   0.00008   0.00007   0.00015  -0.00007
   D34       -3.14158   0.00000   0.00004  -0.00000   0.00004  -3.14153
   D35       -3.14079  -0.00000   0.00002  -0.00025  -0.00024  -3.14103
   D36        0.00104  -0.00001  -0.00003  -0.00032  -0.00035   0.00069
   D37        0.00019  -0.00000  -0.00008  -0.00004  -0.00012   0.00007
   D38        3.14151   0.00000  -0.00004   0.00004   0.00000   3.14151
   D39       -3.14131  -0.00000  -0.00004  -0.00011  -0.00015  -3.14146
   D40        0.00001  -0.00000   0.00001  -0.00003  -0.00003  -0.00001
         Item               Value     Threshold  Converged?
 Maximum Force            0.012257     0.000450     NO 
 RMS     Force            0.002662     0.000300     NO 
 Maximum Displacement     0.029820     0.001800     NO 
 RMS     Displacement     0.010049     0.001200     NO 
 Predicted change in Energy=-1.047891D-03
 GradGradGradGradGradGradGradGradGradGradGradGradGradGradGradGradGradGrad

                          Input orientation:                          
 ---------------------------------------------------------------------
 Center     Atomic      Atomic             Coordinates (Angstroms)
 Number     Number       Type             X           Y           Z
 ---------------------------------------------------------------------
      1          6           0       -2.183405    0.680565    0.000001
      2          6           0       -2.153763   -0.698977    0.000010
      3          6           0       -0.909401   -1.438653    0.000058
      4          6           0        0.246407   -0.648610    0.000060
      5          6           0        0.242388    0.752949    0.000022
      6          6           0       -0.991507    1.466701    0.000038
      7          7           0        1.584613   -1.055872    0.000025
      8          6           0        1.607420    1.157678   -0.000029
      9          6           0        2.427340   -0.009238    0.000030
     10          1           0        1.882436   -2.023296    0.000532
     11          1           0        1.981836    2.175094   -0.000160
     12          1           0        3.499864   -0.133036   -0.000047
     13          1           0       -3.088572   -1.253048   -0.000027
     14          1           0       -0.882184   -2.524318   -0.000016
     15          1           0       -3.145222    1.187453   -0.000026
     16          1           0       -1.021347    2.552055    0.000065
 ---------------------------------------------------------------------
[...]
 ! D8    D(15,1,6,16)            0.0016         -DE/DX =    0.0                 !
 ! D9    D(1,2,3,4)              0.0            -DE/DX =    0.0                 !
 ! D10   D(1,2,3,14)          -179.9955         -DE/DX =    0.0                 !
 ! D11   D(13,2,3,4)           179.9999         -DE/DX =    0.0                 !
 ! D12   D(13,2,3,14)            0.0044         -DE/DX =    0.0                 !
 ! D13   D(2,3,4,5)             -0.0002         -DE/DX =    0.0                 !
 ! D14   D(2,3,4,7)           -179.9986         -DE/DX =    0.0                 !
 ! D15   D(14,3,4,5)           179.9953         -DE/DX =    0.0                 !
 ! D16   D(14,3,4,7)            -0.0032         -DE/DX =    0.0                 !
 ! D17   D(3,4,5,6)              0.0005         -DE/DX =    0.0                 !
 ! D18   D(3,4,5,8)           -179.9984         -DE/DX =    0.0                 !
 ! D19   D(7,4,5,6)            179.9992         -DE/DX =    0.0                 !
 ! D20   D(7,4,5,8)              0.0003         -DE/DX =    0.0                 !
 ! D21   D(3,4,7,9)            180.0005         -DE/DX =    0.0                 !
 ! D22   D(3,4,7,10)            -0.0068         -DE/DX =    0.0                 !
 ! D23   D(5,4,7,9)              0.0019         -DE/DX =    0.0                 !
 ! D24   D(5,4,7,10)           179.9946         -DE/DX =    0.0                 !
 ! D25   D(4,5,6,1)             -0.0005         -DE/DX =    0.0                 !
 ! D26   D(4,5,6,16)           179.9982         -DE/DX =    0.0                 !
 ! D27   D(8,5,6,1)            179.998          -DE/DX =    0.0                 !
 ! D28   D(8,5,6,16)            -0.0033         -DE/DX =    0.0                 !
 ! D29   D(4,5,8,9)             -0.0023         -DE/DX =    0.0                 !
 ! D30   D(4,5,8,11)           179.9987         -DE/DX =    0.0                 !
 ! D31   D(6,5,8,9)           -180.0009         -DE/DX =    0.0                 !
 ! D32   D(6,5,8,11)             0.0001         -DE/DX =    0.0                 !
 ! D33   D(4,7,9,8)             -0.0032         -DE/DX =    0.0                 !
 ! D34   D(4,7,9,12)          -180.001          -DE/DX =    0.0                 !
 ! D35   D(10,7,9,8)          -179.9959         -DE/DX =    0.0                 !
 ! D36   D(10,7,9,12)            0.0063         -DE/DX =    0.0                 !
 ! D37   D(5,8,9,7)              0.0034         -DE/DX =    0.0                 !
 ! D38   D(5,8,9,12)           180.0009         -DE/DX =    0.0                 !
 ! D39   D(11,8,9,7)          -179.9976         -DE/DX =    0.0                 !
 ! D40   D(11,8,9,12)            0.0            -DE/DX =    0.0                 !
 --------------------------------------------------------------------------------
 GradGradGradGradGradGradGradGradGradGradGradGradGradGradGradGradGradGrad

                          Input orientation:                          
 ---------------------------------------------------------------------
 Center     Atomic      Atomic             Coordinates (Angstroms)
 Number     Number       Type             X           Y           Z
 ---------------------------------------------------------------------
      1          6           0       -2.179383    0.683757   -0.000010
      2          6           0       -2.146864   -0.698253    0.000045
      3          6           0       -0.912703   -1.445662    0.000089
      4          6           0        0.242795   -0.650667    0.000072
      5          6           0        0.239127    0.747944    0.000014
      6          6           0       -0.990053    1.469190   -0.000025
      7          7           0        1.589409   -1.056936    0.000079
      8          6           0        1.602928    1.158625   -0.000023
      9          6           0        2.423678   -0.010544    0.000069
     10          1           0        1.883679   -2.024233    0.000197
     11          1           0        1.981625    2.173120   -0.000090
     12          1           0        3.498441   -0.118791    0.000088
     13          1           0       -3.083086   -1.251064    0.000053
     14          1           0       -0.894188   -2.529676    0.000060
     15          1           0       -3.142810    1.187235   -0.000042
     16          1           0       -1.015692    2.553402   -0.000041
 ---------------------------------------------------------------------
                    Distance matrix (angstroms):
                    1          2          3          4          5
     1  C    0.000000
     2  C    1.382393   0.000000
     3  C    2.477681   1.442835   0.000000
     4  C    2.765436   2.390133   1.402567   0.000000
     5  C    2.419362   2.790062   2.477625   1.398616   0.000000
     6  C    1.425275   2.456832   2.915878   2.452286   1.425160
     7  N    4.151362   3.753450   2.532129   1.406564   2.254074
     8  C    3.812004   4.184369   3.620872   2.263515   1.424293
     9  C    4.655129   4.621991   3.631942   2.272886   2.312481
    10  H    4.882795   4.243053   2.855608   2.139903   3.223277
    11  H    4.419523   5.028837   4.633867   3.316218   2.251093
    12  H    5.734263   5.674967   4.606385   3.298807   3.372589
    13  H    2.135465   1.087249   2.179089   3.379639   3.877259
    14  H    3.460907   2.218852   1.084171   2.196225   3.468025
    15  H    1.087052   2.132364   3.450439   3.852299   3.410349
    16  H    2.202214   3.442791   4.000390   3.442361   2.198693
                    6          7          8          9         10
     6  C    0.000000
     7  N    3.610393   0.000000
     8  C    2.611514   2.215602   0.000000
     9  C    3.720642   1.338260   1.428491   0.000000
    10  H    4.523532   1.011068   3.195216   2.084836   0.000000
    11  H    3.053913   3.253781   1.082872   2.227959   4.198495
    12  H    4.761120   2.127092   2.285774   1.080201   2.497632
    13  H    3.432283   4.676526   5.269282   5.644762   5.026584
    14  H    4.000014   2.887424   4.454116   4.165845   2.823477
    15  H    2.171143   5.237385   4.745825   5.693898   5.964824
    16  H    1.084515   4.452088   2.966914   4.289882   5.418588
                   11         12         13         14         15
    11  H    0.000000
    12  H    2.748379   0.000000
    13  H    6.113618   6.678214   0.000000
    14  H    5.512403   5.010745   2.534980   0.000000
    15  H    5.218410   6.768451   2.439030   4.344160   0.000000
    16  H    3.021345   5.245762   4.329905   5.084529   2.528051
                   16
    16  H    0.000000
 Stoichiometry    C8H7N
 Framework group  C1[X(C8H7N)]
 Deg. of freedom    42
 Full point group                 C1      NOp   1
 Largest Abelian subgroup         C1      NOp   1
 Largest concise Abelian subgroup C1      NOp   1
                         Standard orientation:                         
 ---------------------------------------------------------------------
 Center     Atomic      Atomic             Coordinates (Angstroms)
 Number     Number       Type             X           Y           Z
 ---------------------------------------------------------------------
      1          6           0       -2.190125    0.648205   -0.000045
      2          6           0       -2.136326   -0.733141    0.000010
      3          6           0       -0.890801   -1.461454    0.000054
      4          6           0        0.252316   -0.648758    0.000037
      5          6           0        0.227110    0.749631   -0.000021
      6          6           0       -1.013033    1.451861   -0.000060
      7          7           0        1.605028   -1.034239    0.000044
      8          6           0        1.584424    1.181266   -0.000057
      9          6           0        2.423083    0.024876    0.000034
     10          1           0        1.914160   -1.996890    0.000162
     11          1           0        1.947452    2.201473   -0.000125
     12          1           0        3.499386   -0.066806    0.000053
     13          1           0       -3.063924   -1.300304    0.000018
     14          1           0       -0.855594   -2.545054    0.000025
     15          1           0       -3.161192    1.136786   -0.000077
     16          1           0       -1.055367    2.535549   -0.000076
 ---------------------------------------------------------------------
 Rotational constants (GHZ):           3.8618999           1.6123376           1.1374527

 **********************************************************************

            Population analysis using the CI Density.

 **********************************************************************

 Orbital symmetries:
       Occupied  (A) (A) (A) (A) (A) (A) (A) (A) (A) (A) (A) (A)
                 (A) (A) (A) (A) (A) (A) (A) (A) (A) (A) (A) (A)
                 (A) (A) (A) (A) (A) (A) (A)
       Virtual   (A) (A) (A) (A) (A) (A) (A) (A) (A) (A) (A) (A)
                 (A) (A) (A) (A) (A) (A) (A) (A) (A) (A) (A) (A)
                 (A) (A) (A) (A) (A) (A) (A) (A) (A) (A) (A) (A)
                 (A) (A) (A) (A) (A) (A) (A) (A) (A) (A) (A) (A)
                 (A) (A) (A) (A) (A) (A) (A) (A) (A) (A) (A) (A)
                 (A) (A) (A) (A) (A) (A) (A) (A) (A) (A) (A) (A)
                 (A) (A) (A) (A) (A) (A) (A) (A) (A) (A) (A) (A)
                 (A) (A) (A) (A) (A) (A) (A) (A) (A) (A) (A) (A)
                 (A) (A) (A) (A) (A) (A) (A) (A) (A) (A) (A) (A)
                 (A) (A) (A) (A) (A) (A) (A) (A) (A) (A) (A) (A)
                 (A) (A) (A) (A) (A) (A) (A) (A) (A) (A) (A) (A)
                 (A) (A) (A) (A) (A) (A) (A) (A) (A) (A) (A) (A)
                 (A) (A) (A) (A) (A) (A) (A) (A) (A) (A)
 The electronic state is 1-A.
 Alpha  occ. eigenvalues --  -14.45441 -10.27808 -10.27408 -10.25078 -10.24389
 Alpha  occ. eigenvalues --  -10.24032 -10.23933 -10.23615 -10.22825  -1.01693
 Alpha  occ. eigenvalues --   -0.86490  -0.80110  -0.76500  -0.73199  -0.65022
 Alpha  occ. eigenvalues --   -0.61541  -0.59691  -0.55956  -0.50058  -0.48900
 Alpha  occ. eigenvalues --   -0.45367  -0.44802  -0.43991  -0.41689  -0.40649
 Alpha  occ. eigenvalues --   -0.36362  -0.35726  -0.34930  -0.28560  -0.24444
 Alpha  occ. eigenvalues --   -0.20601
 Alpha virt. eigenvalues --   -0.02360   0.00477   0.02422   0.02507   0.03076
 Alpha virt. eigenvalues --    0.04495   0.04654   0.04915   0.06635   0.06858
 Alpha virt. eigenvalues --    0.07386   0.07445   0.09336   0.09554   0.11364
 Alpha virt. eigenvalues --    0.11529   0.11883   0.13490   0.14183   0.14610
 Alpha virt. eigenvalues --    0.16108   0.16287   0.17358   0.17436   0.18260
 Alpha virt. eigenvalues --    0.18641   0.19450   0.19611   0.20470   0.20585
 Alpha virt. eigenvalues --    0.21041   0.21063   0.22602   0.22954   0.24032
 Alpha virt. eigenvalues --    0.24227   0.24479   0.25238   0.26108   0.26951
 Alpha virt. eigenvalues --    0.27779   0.28173   0.28789   0.29973   0.30797
 Alpha virt. eigenvalues --    0.31378   0.32640   0.34285   0.35984   0.36365
 Alpha virt. eigenvalues --    0.37767   0.40210   0.43407   0.46192   0.51970
 Alpha virt. eigenvalues --    0.58894   0.61929   0.68303   0.69072   0.71575
 Alpha virt. eigenvalues --    0.73219   0.74079   0.74407   0.75052   0.75147
 Alpha virt. eigenvalues --    0.77257   0.77565   0.79167   0.80460   0.80897
 Alpha virt. eigenvalues --    0.82385   0.86901   0.90439   0.90969   0.92045
 Alpha virt. eigenvalues --    0.95570   0.96215   0.96956   0.97622   0.99949
 Alpha virt. eigenvalues --    1.01547   1.04443   1.06154   1.07539   1.10190
 Alpha virt. eigenvalues --    1.12726   1.13760   1.18493   1.18936   1.22188
 Alpha virt. eigenvalues --    1.23722   1.24604   1.25827   1.32742   1.33123
 Alpha virt. eigenvalues --    1.35597   1.37462   1.41231   1.41298   1.45179
 Alpha virt. eigenvalues --    1.47856   1.48517   1.49924   1.50921   1.55714
 Alpha virt. eigenvalues --    1.59339   1.64164   1.80230   1.83357   1.88944
 Alpha virt. eigenvalues --    1.90870   1.91893   1.94568   2.00477   2.01042
 Alpha virt. eigenvalues --    2.01623   2.04839   2.08059   2.13919   2.17448
 Alpha virt. eigenvalues --    2.17691   2.21467   2.23025   2.25452   2.28768
 Alpha virt. eigenvalues --    2.29091   2.32121   2.37958   2.40828   2.47138
 Alpha virt. eigenvalues --    2.53636   2.56336   2.62853   2.65685   2.66786
 Alpha virt. eigenvalues --    2.68411   2.74823   2.81075   2.84520   2.86057
 Alpha virt. eigenvalues --    2.95918   2.99432   3.09543   3.24877   3.42003
 Alpha virt. eigenvalues --    4.17784   4.27531   4.31209   4.34527   4.38646
 Alpha virt. eigenvalues --    4.42944   4.50440   4.54775   4.80307
          Condensed to atoms (all electrons):
               1          2          3          4          5          6
     1  C    5.726731   0.370880   0.453952  -0.507109  -0.124048  -0.282297
     2  C    0.370880   5.958624  -0.411654   0.233336  -0.591033   0.844949
     3  C    0.453952  -0.411654  13.665928  -0.382705  -5.261334  -3.307543
     4  C   -0.507109   0.233336  -0.382705  14.115820  -6.063622  -2.231998
     5  C   -0.124048  -0.591033  -5.261334  -6.063622  17.627961   1.173320
     6  C   -0.282297   0.844949  -3.307543  -2.231998   1.173320  13.538784
     7  N   -0.027134   0.007872  -0.587609  -0.450358   1.101164   0.149806
     8  C    0.176679  -0.397975   3.237579   3.555036  -5.686878  -4.319864
     9  C   -0.096503   0.046487  -1.065165  -1.093431   1.855120   1.045646
    10  H   -0.003154  -0.003451  -0.131877  -0.066627   0.179843   0.020861
    11  H    0.002823   0.001254   0.005608   0.011370  -0.014546   0.021740
    12  H    0.001282  -0.000231   0.034395   0.105336  -0.120989  -0.017389
    13  H    0.037279   0.247365   0.006533  -0.001615   0.019796  -0.005514
    14  H    0.012295   0.049171   0.239887   0.024032  -0.004244  -0.017343
    15  H    0.253428   0.033945   0.017067  -0.018236   0.030612  -0.018672
    16  H    0.029088   0.006464  -0.024024   0.025531   0.079748   0.213528
               7          8          9         10         11         12
     1  C   -0.027134   0.176679  -0.096503  -0.003154   0.002823   0.001282
     2  C    0.007872  -0.397975   0.046487  -0.003451   0.001254  -0.000231
     3  C   -0.587609   3.237579  -1.065165  -0.131877   0.005608   0.034395
     4  C   -0.450358   3.555036  -1.093431  -0.066627   0.011370   0.105336
     5  C    1.101164  -5.686878   1.855120   0.179843  -0.014546  -0.120989
     6  C    0.149806  -4.319864   1.045646   0.020861   0.021740  -0.017389
     7  N    7.138366  -0.810038   0.621744   0.267599   0.006628  -0.053884
     8  C   -0.810038  11.636301  -1.699849  -0.020385   0.299469   0.066670
     9  C    0.621744  -1.699849   6.342813  -0.011089  -0.031137   0.304844
    10  H    0.267599  -0.020385  -0.011089   0.310153  -0.000068  -0.002102
    11  H    0.006628   0.299469  -0.031137  -0.000068   0.448810  -0.000447
    12  H   -0.053884   0.066670   0.304844  -0.002102  -0.000447   0.437251
    13  H   -0.000459   0.001342   0.001071  -0.000002  -0.000000  -0.000000
    14  H   -0.006472  -0.002321   0.005652   0.001984   0.000002   0.000001
    15  H    0.000288   0.008380  -0.000086  -0.000000  -0.000002  -0.000000
    16  H   -0.000916  -0.033346   0.003241   0.000003   0.001306  -0.000001
              13         14         15         16
     1  C    0.037279   0.012295   0.253428   0.029088
     2  C    0.247365   0.049171   0.033945   0.006464
     3  C    0.006533   0.239887   0.017067  -0.024024
     4  C   -0.001615   0.024032  -0.018236   0.025531
     5  C    0.019796  -0.004244   0.030612   0.079748
     6  C   -0.005514  -0.017343  -0.018672   0.213528
     7  N   -0.000459  -0.006472   0.000288  -0.000916
     8  C    0.001342  -0.002321   0.008380  -0.033346
     9  C    0.001071   0.005652  -0.000086   0.003241
    10  H   -0.000002   0.001984  -0.000000   0.000003
    11  H   -0.000000   0.000002  -0.000002   0.001306
    12  H   -0.000000   0.000001  -0.000000  -0.000001
    13  H    0.499711  -0.003162  -0.004546  -0.000128
    14  H   -0.003162   0.494248  -0.000121   0.000012
    15  H   -0.004546  -0.000121   0.500704  -0.003061
    16  H   -0.000128   0.000012  -0.003061   0.492702
 Mulliken charges:
               1
     1  C   -0.024190
     2  C   -0.396003
     3  C   -0.489040
     4  C   -1.254760
     5  C    1.799130
     6  C   -0.808014
     7  N   -0.356595
     8  C   -0.010798
     9  C   -0.229358
    10  H    0.458312
    11  H    0.247190
    12  H    0.245263
    13  H    0.202330
    14  H    0.206380
    15  H    0.200299
    16  H    0.209853
 Sum of Mulliken charges =  -0.00000
 Mulliken charges with hydrogens summed into heavy atoms:
               1
     1  C    0.176109
     2  C   -0.193673
     3  C   -0.282659
     4  C   -1.254760
     5  C    1.799130
     6  C   -0.598161
     7  N    0.101717
     8  C    0.236392
     9  C    0.015906
 Electronic spatial extent (au):  <R**2>=           1021.7327
 Charge=              0.0000 electrons
 Dipole moment (field-independent basis, Debye):
    X=              4.7623    Y=             -1.2120    Z=             -0.0000  Tot=              4.9141
 Quadrupole moment (field-independent basis, Debye-Ang):
   XX=            -43.7221   YY=            -46.4230   ZZ=            -60.6371
   XY=             -2.2312   XZ=              0.0003   YZ=             -0.0004
 Traceless Quadrupole moment (field-independent basis, Debye-Ang):
   XX=              6.5386   YY=              3.8377   ZZ=            -10.3764
   XY=             -2.2312   XZ=              0.0003   YZ=             -0.0004
 Octapole moment (field-independent basis, Debye-Ang**2):
  XXX=             30.4577  YYY=             -8.5417  ZZZ=             -0.0006  XYY=             16.4987
  XXY=             -6.8826  XXZ=              0.0001  XZZ=              5.8119  YZZ=             -1.2131
  YYZ=             -0.0006  XYZ=             -0.0013
 Hexadecapole moment (field-independent basis, Debye-Ang**3):
 XXXX=           -830.8625 YYYY=           -398.0491 ZZZZ=            -85.5294 XXXY=            -17.3019
 XXXZ=             -0.0023 YYYX=            -15.0522 YYYZ=              0.0061 ZZZX=             -0.0052
 ZZZY=              0.0107 XXYY=           -196.6947 XXZZ=           -199.7531 YYZZ=           -105.5166
 XXYZ=             -0.0004 YYXZ=              0.0004 ZZXY=             -1.8567
 N-N= 3.981858332328D+02 E-N=-1.638185589032D+03  KE= 3.600381126699D+02
 Unable to Open any file for archive entry.
 1\1\GINC-EXP-2-22\FOpt\RPBE1PBE TD-FC\6-31+G(d)\C8H7N1\CWALDT\23-Jun-2
 021\0\\# td= (nstates=6, root=1) PBE1PBE/6-31+G* Opt density=current\\
 FuncsPBE1PBE-V-1st\\0,1\C,-2.1793827994,0.6837573792,-0.0000097731\C,-
 2.1468641271,-0.6982533123,0.0000446045\C,-0.9127033757,-1.4456624393,
 0.000088898\C,0.2427948952,-0.6506672259,0.0000724462\C,0.2391274872,0
 .7479441992,0.0000136185\C,-0.9900530067,1.4691898862,-0.0000245794\N,
 1.5894090174,-1.0569356961,0.0000789037\C,1.6029284579,1.1586246474,-0
 .0000225138\C,2.4236782389,-0.0105443516,0.0000689014\H,1.8836792365,-
 2.0242328493,0.00019693\H,1.9816247711,2.173119581,-0.0000898086\H,3.4
 984414923,-0.1187914468,0.0000883513\H,-3.0830861331,-1.2510636087,0.0
 000529999\H,-0.8941884657,-2.529675644,0.0000599986\H,-3.1428104504,1.
 1872352658,-0.0000418564\H,-1.0156922384,2.5534016151,-0.0000411207\\V
 ersion=AS64L-G16RevC.01\State=1-A\HF=-363.3929886\RMSD=4.213e-09\RMSF=
 3.561e-05\Dipole=1.8736275,-0.4768249,-0.0000043\Quadrupole=4.8612967,
 2.8532688,-7.7145655,-1.6588667,0.0002411,-0.000292\PG=C01 [X(C8H7N1)]
 \\@
 The archive entry for this job was punched.


 ON A CLEAR DISK YOU CAN SEEK FOREVER.
 Job cpu time:       0 days  2 hours 35 minutes 23.6 seconds.
 Elapsed time:       0 days  0 hours 40 minutes 16.5 seconds.
 File lengths (MBytes):  RWF=    238 Int=      0 D2E=      0 Chk=     11 Scr=      1
 Normal termination of Gaussian 16 at Wed Jun 23 08:41:58 2021.
