 Entering Gaussian System, Link 0=/cm/shared/apps/spack/cpu/opt/spack/linux-centos8-zen/gcc-8.3.1/gaussian-16.C.01-po5bqktfeugvmjyga3v7eigbecnokxng/g16/g16
 Initial command:
 /cm/shared/apps/spack/cpu/opt/spack/linux-centos8-zen/gcc-8.3.1/gaussian-16.C.01-po5bqktfeugvmjyga3v7eigbecnokxng/g16/l1.exe "/scratch/scaparas/job_3404240/Gau-13951.inp" -scrdir="/scratch/scaparas/job_3404240/"
 Entering Link 1 = /cm/shared/apps/spack/cpu/opt/spack/linux-centos8-zen/gcc-8.3.1/gaussian-16.C.01-po5bqktfeugvmjyga3v7eigbecnokxng/g16/l1.exe PID=     13953.
  
 Copyright (c) 1988-2019, Gaussian, Inc.  All Rights Reserved.
  
 This is part of the Gaussian(R) 16 program.  It is based on
 the Gaussian(R) 09 system (copyright 2009, Gaussian, Inc.),
 the Gaussian(R) 03 system (copyright 2003, Gaussian, Inc.),
 the Gaussian(R) 98 system (copyright 1998, Gaussian, Inc.),
 the Gaussian(R) 94 system (copyright 1995, Gaussian, Inc.),
 the Gaussian 92(TM) system (copyright 1992, Gaussian, Inc.),
 the Gaussian 90(TM) system (copyright 1990, Gaussian, Inc.),
 the Gaussian 88(TM) system (copyright 1988, Gaussian, Inc.),
 the Gaussian 86(TM) system (copyright 1986, Carnegie Mellon
 University), and the Gaussian 82(TM) system (copyright 1983,
 Carnegie Mellon University). Gaussian is a federally registered
 trademark of Gaussian, Inc.
  
 This software contains proprietary and confidential information,
 including trade secrets, belonging to Gaussian, Inc.
  
 This software is provided under written license and may be
 used, copied, transmitted, or stored only in accord with that
 written license.
  
 The following legend is applicable only to US Government
 contracts under FAR:
  
                    RESTRICTED RIGHTS LEGEND
  
 Use, reproduction and disclosure by the US Government is
 subject to restrictions as set forth in subparagraphs (a)
 and (c) of the Commercial Computer Software - Restricted
 Rights clause in FAR 52.227-19.
  
 Gaussian, Inc.
 340 Quinnipiac St., Bldg. 40, Wallingford CT 06492
  
  
 ---------------------------------------------------------------
 Warning -- This program may not be used in any manner that
 competes with the business of Gaussian, Inc. or will provide
 assistance to any competitor of Gaussian, Inc.  The licensee
 of this program is prohibited from giving any competitor of
 Gaussian, Inc. access to this program.  By using this program,
 the user acknowledges that Gaussian, Inc. is engaged in the
 business of creating and licensing software in the field of
 computational chemistry and represents and warrants to the
 licensee that it is not a competitor of Gaussian, Inc. and that
 it will not use this program in any manner prohibited above.
 ---------------------------------------------------------------
  

 Cite this work as:
 Gaussian 16, Revision C.01,
 M. J. Frisch, G. W. Trucks, H. B. Schlegel, G. E. Scuseria, 
 M. A. Robb, J. R. Cheeseman, G. Scalmani, V. Barone, 
 G. A. Petersson, H. Nakatsuji, X. Li, M. Caricato, A. V. Marenich, 
 J. Bloino, B. G. Janesko, R. Gomperts, B. Mennucci, H. P. Hratchian, 
 J. V. Ortiz, A. F. Izmaylov, J. L. Sonnenberg, D. Williams-Young, 
 F. Ding, F. Lipparini, F. Egidi, J. Goings, B. Peng, A. Petrone, 
 T. Henderson, D. Ranasinghe, V. G. Zakrzewski, J. Gao, N. Rega, 
 G. Zheng, W. Liang, M. Hada, M. Ehara, K. Toyota, R. Fukuda, 
 J. Hasegawa, M. Ishida, T. Nakajima, Y. Honda, O. Kitao, H. Nakai, 
 T. Vreven, K. Throssell, J. A. Montgomery, Jr., J. E. Peralta, 
 F. Ogliaro, M. J. Bearpark, J. J. Heyd, E. N. Brothers, K. N. Kudin, 
 V. N. Staroverov, T. A. Keith, R. Kobayashi, J. Normand, 
 K. Raghavachari, A. P. Rendell, J. C. Burant, S. S. Iyengar, 
 J. Tomasi, M. Cossi, J. M. Millam, M. Klene, C. Adamo, R. Cammi, 
 J. W. Ochterski, R. L. Martin, K. Morokuma, O. Farkas, 
 J. B. Foresman, and D. J. Fox, Gaussian, Inc., Wallingford CT, 2019.
 
 ******************************************
 Gaussian 16:  AS64L-G16RevC.01  3-Jul-2019
                14-Jun-2021 
 ******************************************
 %nprocshared=4
 Will use up to    4 processors via shared memory.
 %chk=FuncsHSEH1PBE-V-2nd.chk
 %Mem=3GB
 --------------------------------------------------------------
 # td= (nstates=6, root=2) HSEH1PBE/6-31+G* Opt density=current
 --------------------------------------------------------------
 1/18=20,19=15,26=3,38=1/1,3;
 2/9=110,12=2,17=6,18=5,40=1/2;
 3/5=1,6=6,7=11,11=9,25=1,30=1,71=1,74=-51/1,2,3,8;
 4//1;
 5/5=2,38=5/2;
 8/6=1,10=2,107=2,108=6/1;
 9/8=2,15=2,41=6,42=1,70=2/14;
 10/5=4,28=2/2;
 6/7=2,8=2,9=2,10=2,22=-1/1;
 7/12=6,13=5,14=2/1,2,3,16;
 1/18=20,19=15,26=3/3(2);
 2/9=110/2;
 99//99;
 2/9=110/2;
 3/5=1,6=6,7=11,11=9,25=1,30=1,71=1,74=-51/1,2,3,8;
 4/5=5,16=3,69=1/1;
 5/5=2,38=5/2;
 8/6=1,10=2,107=2,108=6/1;
 9/8=2,15=2,41=6,42=1,49=4,70=2/14;
 10/5=4,28=2/2;
 7/12=6,13=5,14=2/1,2,3,16;
 1/18=20,19=15,26=3/3(-8);
 2/9=110/2;
 6/7=2,8=2,9=2,10=2,22=-1/1;
 99/9=10/99;
 -------------------
 FuncsHSEH1PBE-V-2nd
 -------------------
 Symbolic Z-matrix:
 Charge =  0 Multiplicity = 1
 C                    -2.15106   0.68921   0.00009 
 C                    -2.12793  -0.71582   0.00008 
 C                    -0.9323   -1.4131   -0.00001 
 C                     0.24691  -0.6702   -0.00004 
 C                     0.24819   0.7483    0. 
 C                    -0.97947   1.42353   0.00003 
 N                     1.56177  -1.07759  -0.00029 
 C                     1.62013   1.1629   -0.00016 
 C                     2.38201   0.03081   0.00025 
 H                     1.87632  -2.03001   0.00044 
 H                     1.99217   2.17301  -0.00035 
 H                     3.45255  -0.08243   0.00041 
 H                    -3.06159  -1.26202   0.00009 
 H                    -0.91725  -2.49534  -0.00007 
 H                    -3.1042    1.20079   0.00009 
 H                    -1.00935   2.50542  -0.00002 
 

 GradGradGradGradGradGradGradGradGradGradGradGradGradGradGradGradGradGrad
 Berny optimization.
 Initialization pass.
                           ----------------------------
                           !    Initial Parameters    !
                           ! (Angstroms and Degrees)  !
 --------------------------                            --------------------------
 ! Name  Definition              Value          Derivative Info.                !
 --------------------------------------------------------------------------------
 ! R1    R(1,2)                  1.4052         estimate D2E/DX2                !
 ! R2    R(1,6)                  1.3827         estimate D2E/DX2                !
 ! R3    R(1,15)                 1.0818         estimate D2E/DX2                !
 ! R4    R(2,3)                  1.3841         estimate D2E/DX2                !
 ! R5    R(2,13)                 1.0817         estimate D2E/DX2                !
 ! R6    R(3,4)                  1.3937         estimate D2E/DX2                !
 ! R7    R(3,14)                 1.0823         estimate D2E/DX2                !
 ! R8    R(4,5)                  1.4185         estimate D2E/DX2                !
 ! R9    R(4,7)                  1.3765         estimate D2E/DX2                !
 ! R10   R(5,6)                  1.4011         estimate D2E/DX2                !
 ! R11   R(5,8)                  1.4332         estimate D2E/DX2                !
 ! R12   R(6,16)                 1.0823         estimate D2E/DX2                !
 ! R13   R(7,9)                  1.3789         estimate D2E/DX2                !
 ! R14   R(7,10)                 1.003          estimate D2E/DX2                !
 ! R15   R(8,9)                  1.3646         estimate D2E/DX2                !
 ! R16   R(8,11)                 1.0764         estimate D2E/DX2                !
 ! R17   R(9,12)                 1.0765         estimate D2E/DX2                !
 ! A1    A(2,1,6)              121.1349         estimate D2E/DX2                !
 ! A2    A(2,1,15)             119.1671         estimate D2E/DX2                !
 ! A3    A(6,1,15)             119.698          estimate D2E/DX2                !
 ! A4    A(1,2,3)              121.1938         estimate D2E/DX2                !
 ! A5    A(1,2,13)             119.3846         estimate D2E/DX2                !
 ! A6    A(3,2,13)             119.4217         estimate D2E/DX2                !
 ! A7    A(2,3,4)              117.5387         estimate D2E/DX2                !
 ! A8    A(2,3,14)             121.0469         estimate D2E/DX2                !
 ! A9    A(4,3,14)             121.4144         estimate D2E/DX2                !
 ! A10   A(3,4,5)              122.2626         estimate D2E/DX2                !
 ! A11   A(3,4,7)              130.5743         estimate D2E/DX2                !
 ! A12   A(5,4,7)              107.163          estimate D2E/DX2                !
 ! A13   A(4,5,6)              118.7594         estimate D2E/DX2                !
 ! A14   A(4,5,8)              106.8666         estimate D2E/DX2                !
 ! A15   A(6,5,8)              134.374          estimate D2E/DX2                !
 ! A16   A(1,6,5)              119.1105         estimate D2E/DX2                !
 ! A17   A(1,6,16)             120.4966         estimate D2E/DX2                !
 ! A18   A(5,6,16)             120.3928         estimate D2E/DX2                !
 ! A19   A(4,7,9)              109.2874         estimate D2E/DX2                !
 ! A20   A(4,7,10)             125.4909         estimate D2E/DX2                !
 ! A21   A(9,7,10)             125.2217         estimate D2E/DX2                !
 ! A22   A(5,8,9)              107.125          estimate D2E/DX2                !
 ! A23   A(5,8,11)             127.0344         estimate D2E/DX2                !
 ! A24   A(9,8,11)             125.8405         estimate D2E/DX2                !
 ! A25   A(7,9,8)              109.5578         estimate D2E/DX2                !
 ! A26   A(7,9,12)             120.4645         estimate D2E/DX2                !
 ! A27   A(8,9,12)             129.9776         estimate D2E/DX2                !
 ! D1    D(6,1,2,3)             -0.0008         estimate D2E/DX2                !
 ! D2    D(6,1,2,13)          -179.9981         estimate D2E/DX2                !
 ! D3    D(15,1,2,3)           179.996          estimate D2E/DX2                !
 ! D4    D(15,1,2,13)           -0.0013         estimate D2E/DX2                !
 ! D5    D(2,1,6,5)             -0.0018         estimate D2E/DX2                !
 ! D6    D(2,1,6,16)           179.9965         estimate D2E/DX2                !
 ! D7    D(15,1,6,5)          -179.9986         estimate D2E/DX2                !
 ! D8    D(15,1,6,16)           -0.0003         estimate D2E/DX2                !
 ! D9    D(1,2,3,4)              0.002          estimate D2E/DX2                !
 ! D10   D(1,2,3,14)          -179.9968         estimate D2E/DX2                !
 ! D11   D(13,2,3,4)           179.9992         estimate D2E/DX2                !
 ! D12   D(13,2,3,14)            0.0005         estimate D2E/DX2                !
 ! D13   D(2,3,4,5)             -0.0005         estimate D2E/DX2                !
 ! D14   D(2,3,4,7)           -179.9911         estimate D2E/DX2                !
 ! D15   D(14,3,4,5)           179.9982         estimate D2E/DX2                !
 ! D16   D(14,3,4,7)             0.0076         estimate D2E/DX2                !
 ! D17   D(3,4,5,6)             -0.002          estimate D2E/DX2                !
 ! D18   D(3,4,5,8)           -179.9955         estimate D2E/DX2                !
 ! D19   D(7,4,5,6)            179.9905         estimate D2E/DX2                !
 ! D20   D(7,4,5,8)             -0.003          estimate D2E/DX2                !
 ! D21   D(3,4,7,9)           -179.98           estimate D2E/DX2                !
 ! D22   D(3,4,7,10)            -0.0649         estimate D2E/DX2                !
 ! D23   D(5,4,7,9)              0.0284         estimate D2E/DX2                !
 ! D24   D(5,4,7,10)           179.9434         estimate D2E/DX2                !
 ! D25   D(4,5,6,1)              0.0031         estimate D2E/DX2                !
 ! D26   D(4,5,6,16)          -179.9951         estimate D2E/DX2                !
 ! D27   D(8,5,6,1)            179.9944         estimate D2E/DX2                !
 ! D28   D(8,5,6,16)            -0.0038         estimate D2E/DX2                !
 ! D29   D(4,5,8,9)             -0.0234         estimate D2E/DX2                !
 ! D30   D(4,5,8,11)           179.9883         estimate D2E/DX2                !
 ! D31   D(6,5,8,9)            179.9846         estimate D2E/DX2                !
 ! D32   D(6,5,8,11)            -0.0037         estimate D2E/DX2                !
 ! D33   D(4,7,9,8)             -0.0444         estimate D2E/DX2                !
 ! D34   D(4,7,9,12)           179.9847         estimate D2E/DX2                !
 ! D35   D(10,7,9,8)          -179.9597         estimate D2E/DX2                !
 ! D36   D(10,7,9,12)            0.0693         estimate D2E/DX2                !
 ! D37   D(5,8,9,7)              0.0414         estimate D2E/DX2                !
 ! D38   D(5,8,9,12)          -179.9913         estimate D2E/DX2                !
 ! D39   D(11,8,9,7)          -179.9702         estimate D2E/DX2                !
 ! D40   D(11,8,9,12)           -0.0029         estimate D2E/DX2                !
 --------------------------------------------------------------------------------
 Trust Radius=3.00D-01 FncErr=1.00D-07 GrdErr=1.00D-06 EigMax=2.50D+02 EigMin=1.00D-04
 Number of steps in this run=     94 maximum allowed number of steps=    100.
 GradGradGradGradGradGradGradGradGradGradGradGradGradGradGradGradGradGrad

                          Input orientation:                          
 ---------------------------------------------------------------------
 Center     Atomic      Atomic             Coordinates (Angstroms)
 Number     Number       Type             X           Y           Z
 ---------------------------------------------------------------------
      1          6           0       -2.151063    0.689208    0.000088
      2          6           0       -2.127927   -0.715818    0.000075
      3          6           0       -0.932297   -1.413100   -0.000011
      4          6           0        0.246911   -0.670201   -0.000042
      5          6           0        0.248193    0.748299    0.000000
      6          6           0       -0.979474    1.423526    0.000032
      7          7           0        1.561774   -1.077592   -0.000285
      8          6           0        1.620133    1.162900   -0.000157
      9          6           0        2.382013    0.030806    0.000248
     10          1           0        1.876315   -2.030011    0.000438
     11          1           0        1.992173    2.173010   -0.000348
     12          1           0        3.452549   -0.082425    0.000408
     13          1           0       -3.061594   -1.262020    0.000088
     14          1           0       -0.917252   -2.495342   -0.000073
     15          1           0       -3.104203    1.200785    0.000090
     16          1           0       -1.009348    2.505421   -0.000015
 ---------------------------------------------------------------------
                    Distance matrix (angstroms):
                    1          2          3          4          5
     1  C    0.000000
     2  C    1.405216   0.000000
     3  C    2.430039   1.384100   0.000000
     4  C    2.756496   2.375276   1.393711   0.000000
     5  C    2.399984   2.790983   2.462763   1.418501   0.000000
     6  C    1.382694   2.428114   2.837018   2.426461   1.401106
     7  N    4.111781   3.707395   2.516536   1.376529   2.249305
     8  C    3.800829   4.192557   3.626386   2.290414   1.433218
     9  C    4.580641   4.571324   3.615178   2.247236   2.251218
    10  H    4.859416   4.214387   2.875566   2.122273   3.220216
    11  H    4.400917   5.031953   4.627387   3.336134   2.251948
    12  H    5.656491   5.616307   4.582311   3.259079   3.310287
    13  H    2.153220   1.081698   2.134650   3.361020   3.872476
    14  H    3.415208   2.152310   1.082347   2.164813   3.446661
    15  H    1.081752   2.150926   3.398466   3.838040   3.382795
    16  H    2.145261   3.409927   3.919278   3.415079   2.160761
                    6          7          8          9         10
     6  C    0.000000
     7  N    3.565604   0.000000
     8  C    2.612639   2.241252   0.000000
     9  C    3.638580   1.378890   1.364587   0.000000
    10  H    4.481345   1.003015   3.203172   2.121956   0.000000
    11  H    3.064704   3.278972   1.076446   2.177387   4.204618
    12  H    4.680888   2.136677   2.215532   1.076508   2.505515
    13  H    3.398144   4.627045   5.272457   5.595021   4.997275
    14  H    3.919362   2.855798   4.452085   4.155307   2.832058
    15  H    2.136372   5.192528   4.724488   5.609583   5.936632
    16  H    1.082307   4.410062   2.952378   4.198220   5.375611
                   11         12         13         14         15
    11  H    0.000000
    12  H    2.686947   0.000000
    13  H    6.110646   6.620083   0.000000
    14  H    5.500751   4.991726   2.473719   0.000000
    15  H    5.188282   6.681139   2.463174   4.294661   0.000000
    16  H    3.019872   5.158049   4.290143   5.001611   2.467892
                   16
    16  H    0.000000
 Stoichiometry    C8H7N
 Framework group  C1[X(C8H7N)]
 Deg. of freedom    42
 Full point group                 C1      NOp   1
 Largest Abelian subgroup         C1      NOp   1
 Largest concise Abelian subgroup C1      NOp   1
                         Standard orientation:                         
 ---------------------------------------------------------------------
 Center     Atomic      Atomic             Coordinates (Angstroms)
 Number     Number       Type             X           Y           Z
 ---------------------------------------------------------------------
      1          6           0       -2.151063    0.689208    0.000088
      2          6           0       -2.127927   -0.715818    0.000075
      3          6           0       -0.932297   -1.413100   -0.000011
      4          6           0        0.246911   -0.670201   -0.000042
      5          6           0        0.248193    0.748299    0.000000
      6          6           0       -0.979474    1.423526    0.000032
      7          7           0        1.561774   -1.077592   -0.000285
      8          6           0        1.620133    1.162900   -0.000157
      9          6           0        2.382013    0.030806    0.000248
     10          1           0        1.876315   -2.030011    0.000438
     11          1           0        1.992173    2.173010   -0.000348
     12          1           0        3.452549   -0.082425    0.000408
     13          1           0       -3.061594   -1.262020    0.000088
     14          1           0       -0.917252   -2.495342   -0.000073
     15          1           0       -3.104203    1.200785    0.000090
     16          1           0       -1.009348    2.505421   -0.000015
 ---------------------------------------------------------------------
 Rotational constants (GHZ):           3.9080822           1.6429452           1.1566805
 Standard basis: 6-31+G(d) (6D, 7F)
 There are   185 symmetry adapted cartesian basis functions of A   symmetry.
 There are   185 symmetry adapted basis functions of A   symmetry.
   185 basis functions,   316 primitive gaussians,   185 cartesian basis functions
    31 alpha electrons       31 beta electrons
       nuclear repulsion energy       401.3368668897 Hartrees.
 NAtoms=   16 NActive=   16 NUniq=   16 SFac= 1.00D+00 NAtFMM=   60 NAOKFM=F Big=F
 Integral buffers will be    131072 words long.
 Regular integral format.
 Two-electron integral symmetry is turned on.
 One-electron integrals computed using PRISM.
 NBasis=   185 RedAO= T EigKep=  1.26D-06  NBF=   185
 NBsUse=   185 1.00D-06 EigRej= -1.00D+00 NBFU=   185
 ExpMin= 4.38D-02 ExpMax= 4.17D+03 ExpMxC= 6.27D+02 IAcc=3 IRadAn=         5 AccDes= 0.00D+00
 Harris functional with IExCor= 1009 and IRadAn=       5 diagonalized for initial guess.
 HarFok:  IExCor= 1009 AccDes= 0.00D+00 IRadAn=         5 IDoV= 1 UseB2=F ITyADJ=14
 ICtDFT=  3500011 ScaDFX=  1.000000  1.000000  1.000000  1.000000
 FoFCou: FMM=F IPFlag=           0 FMFlag=      100000 FMFlg1=           0
         NFxFlg=           0 DoJE=T BraDBF=F KetDBF=T FulRan=T
         wScrn=  0.000000 ICntrl=       500 IOpCl=  0 I1Cent=   200000004 NGrid=           0
         NMat0=    1 NMatS0=      1 NMatT0=    0 NMatD0=    1 NMtDS0=    0 NMtDT0=    0
 Petite list used in FoFCou.
 Keep R1 ints in memory in canonical form, NReq=303303409.
 Requested convergence on RMS density matrix=1.00D-08 within 128 cycles.
 Requested convergence on MAX density matrix=1.00D-06.
 Requested convergence on             energy=1.00D-06.
 No special actions if energy rises.
 SCF Done:  E(RHSEH1PBE) =  -363.433772147     A.U. after   14 cycles
            NFock= 14  Conv=0.68D-08     -V/T= 2.0088
 DoSCS=F DFT=T ScalE2(SS,OS)=  1.000000  1.000000
 ExpMin= 4.38D-02 ExpMax= 4.17D+03 ExpMxC= 6.27D+02 IAcc=3 IRadAn=         5 AccDes= 0.00D+00
 HarFok:  IExCor=  205 AccDes= 0.00D+00 IRadAn=         5 IDoV=-2 UseB2=F ITyADJ=14
 ICtDFT= 12500011 ScaDFX=  1.000000  1.000000  1.000000  1.000000
 Range of M.O.s used for correlation:    10   185
 NBasis=   185 NAE=    31 NBE=    31 NFC=     9 NFV=     0
 NROrb=    176 NOA=    22 NOB=    22 NVA=   154 NVB=   154

 **** Warning!!: The largest alpha MO coefficient is  0.17295506D+03

 Orbital symmetries:
       Occupied  (A) (A) (A) (A) (A) (A) (A) (A) (A) (A) (A) (A)
                 (A) (A) (A) (A) (A) (A) (A) (A) (A) (A) (A) (A)
                 (A) (A) (A) (A) (A) (A) (A)
       Virtual   (A) (A) (A) (A) (A) (A) (A) (A) (A) (A) (A) (A)
                 (A) (A) (A) (A) (A) (A) (A) (A) (A) (A) (A) (A)
                 (A) (A) (A) (A) (A) (A) (A) (A) (A) (A) (A) (A)
                 (A) (A) (A) (A) (A) (A) (A) (A) (A) (A) (A) (A)
                 (A) (A) (A) (A) (A) (A) (A) (A) (A) (A) (A) (A)
                 (A) (A) (A) (A) (A) (A) (A) (A) (A) (A) (A) (A)
                 (A) (A) (A) (A) (A) (A) (A) (A) (A) (A) (A) (A)
                 (A) (A) (A) (A) (A) (A) (A) (A) (A) (A) (A) (A)
                 (A) (A) (A) (A) (A) (A) (A) (A) (A) (A) (A) (A)
                 (A) (A) (A) (A) (A) (A) (A) (A) (A) (A) (A) (A)
                 (A) (A) (A) (A) (A) (A) (A) (A) (A) (A) (A) (A)
                 (A) (A) (A) (A) (A) (A) (A) (A) (A) (A) (A) (A)
                 (A) (A) (A) (A) (A) (A) (A) (A) (A) (A)
    24 initial guesses have been made.
 Convergence on wavefunction:    0.000001000000000
 Iteration     1 Dimension    24 NMult     0 NNew     24
 CISAX will form    24 AO SS matrices at one time.
 New state      1 was old state      3
 New state      3 was old state      1
 New state      4 was old state      5
 New state      5 was old state      6
 New state      6 was old state      7
 Iteration     2 Dimension    36 NMult    24 NNew     12
 New state      1 was old state      3
 New state      3 was old state      1
 Iteration     3 Dimension    48 NMult    36 NNew     12
 Iteration     4 Dimension    60 NMult    48 NNew     12
 Iteration     5 Dimension    72 NMult    60 NNew     12
 Iteration     6 Dimension    84 NMult    72 NNew     12
 Iteration     7 Dimension    96 NMult    84 NNew     12
 Iteration     8 Dimension   108 NMult    96 NNew     12
 Iteration     9 Dimension   120 NMult   108 NNew     12
 Iteration    10 Dimension   130 NMult   120 NNew     10
 Iteration    11 Dimension   134 NMult   130 NNew      4
 ***********************************************************************
 Excited states from <AA,BB:AA,BB> singles matrix:
 ***********************************************************************
 
 Ground to excited state transition densities written to RWF  633
 Ground to excited state transition electric dipole moments (Au):
       state          X           Y           Z        Dip. S.      Osc.
         1        -0.5502      0.6237     -0.0002      0.6917      0.0822
         2        -0.5490     -0.1062     -0.0002      0.3127      0.0383
         3         0.0012     -0.0005     -0.1303      0.0170      0.0021
         4        -0.0004      0.0001     -0.1436      0.0206      0.0028
         5         0.0005     -0.0000      0.0238      0.0006      0.0001
         6         0.0006      0.0002      0.1034      0.0107      0.0015
 Ground to excited state transition velocity dipole moments (Au):
       state          X           Y           Z        Dip. S.      Osc.
         1         0.0889     -0.1203      0.0000      0.0224      0.0837
         2         0.0951      0.0202      0.0000      0.0094      0.0343
         3        -0.0002      0.0001      0.0158      0.0002      0.0009
         4         0.0001     -0.0000      0.0306      0.0009      0.0031
         5        -0.0001      0.0000     -0.0038      0.0000      0.0000
         6        -0.0001     -0.0000     -0.0221      0.0005      0.0015
 Ground to excited state transition magnetic dipole moments (Au):
       state          X           Y           Z
         1         0.0003     -0.0001      0.1852
         2         0.0000     -0.0002     -0.0283
         3         0.1190     -0.0652      0.0001
         4         0.0491     -0.2336     -0.0000
         5         0.3186     -0.1230      0.0002
         6         0.0825      0.3752      0.0005
 Ground to excited state transition velocity quadrupole moments (Au):
       state          XX          YY          ZZ          XY          XZ          YZ
         1         0.1938     -0.1112      0.0109      0.0490      0.0001      0.0001
         2         0.0738     -0.1119      0.0260      0.0008      0.0001      0.0000
         3        -0.0003      0.0002      0.0001      0.0000      0.0575      0.0519
         4        -0.0001      0.0000      0.0000     -0.0000      0.1639     -0.0086
         5        -0.0002     -0.0001      0.0000      0.0002      0.1574      0.2622
         6         0.0001     -0.0001      0.0000      0.0002     -0.3339     -0.0078
 <0|del|b> * <b|rxdel|0> + <0|del|b> * <b|delr+rdel|0>
 Rotatory Strengths (R) in cgs (10**-40 erg-esu-cm/Gauss)
       state          XX          YY          ZZ    R(velocity)    E-M Angle
         1         0.0511      0.0764      0.0268      0.0514       90.00
         2        -0.0169      0.0045      0.0016     -0.0036       90.00
         3        -0.0232     -0.0613     -0.0260     -0.0368       90.00
         4         0.0149      0.0062      0.0109      0.0107       90.00
         5        -0.0044     -0.0928     -0.0087     -0.0353       90.00
         6        -0.0667     -0.0237     -0.0196     -0.0367       90.00
 1/2[<0|r|b>*<b|rxdel|0> + (<0|rxdel|b>*<b|r|0>)*]
 Rotatory Strengths (R) in cgs (10**-40 erg-esu-cm/Gauss)
       state          XX          YY          ZZ     R(length)
         1         0.1207      0.0263      0.0240      0.0570
         2         0.0125     -0.0186     -0.0041     -0.0034
         3        -0.0969     -0.0243      0.0047     -0.0388
         4         0.0131      0.0172     -0.0003      0.0100
         5        -0.1057     -0.0016     -0.0039     -0.0370
         6        -0.0333     -0.0576     -0.0351     -0.0420
  1/2[<0|del|b>*<b|r|0> + (<0|r|b>*<b|del|0>)*] (Au)
       state          X           Y           Z        Dip. S.   Osc.(frdel)
         1        -0.0489     -0.0750     -0.0000      0.1240      0.0826
         2        -0.0522     -0.0021     -0.0000      0.0543      0.0362
         3        -0.0000     -0.0000     -0.0021      0.0021      0.0014
         4        -0.0000     -0.0000     -0.0044      0.0044      0.0029
         5        -0.0000     -0.0000     -0.0001      0.0001      0.0001
         6        -0.0000     -0.0000     -0.0023      0.0023      0.0015

 Excitation energies and oscillator strengths:
 
 Excited State   1:      Singlet-A      4.8531 eV  255.47 nm  f=0.0822  <S**2>=0.000
      30 -> 32        -0.13553
      30 -> 34         0.15405
      31 -> 32         0.66298
 
 Excited State   2:      Singlet-A      4.9973 eV  248.10 nm  f=0.0383  <S**2>=0.000
      30 -> 32         0.56498
      31 -> 32         0.11432
      31 -> 34        -0.39951
 This state for optimization and/or second-order correction.
 Total Energy, E(TD-HF/TD-DFT) =  -363.250123712    
 Copying the excited state density for this state as the 1-particle RhoCI density.
 
 Excited State   3:      Singlet-A      5.0849 eV  243.83 nm  f=0.0021  <S**2>=0.000
      31 -> 33         0.70415
 
 Excited State   4:      Singlet-A      5.5531 eV  223.27 nm  f=0.0028  <S**2>=0.000
      30 -> 33         0.69254
      31 -> 35         0.11458
 
 Excited State   5:      Singlet-A      5.6515 eV  219.38 nm  f=0.0001  <S**2>=0.000
      30 -> 33        -0.11690
      31 -> 35         0.69297
 
 Excited State   6:      Singlet-A      5.7809 eV  214.47 nm  f=0.0015  <S**2>=0.000
      31 -> 36         0.69833
 SavETr:  write IOETrn=   770 NScale= 10 NData=  16 NLR=1 NState=    6 LETran=     118.
          IDoAtm=1111111111111111
          Differentiating once with respect to electric field.
                with respect to dipole field.
          Differentiating once with respect to nuclear coordinates.
 Keep R1 ints in memory in canonical form, NReq=303315801.
          There are     1 degrees of freedom in the 1st order CPHF.  IDoFFX=0 NUNeed=     1.
 LinEq1:  Iter=  0 NonCon=     1 RMS=5.78D-03 Max=1.84D-01 NDo=     1
 AX will form     1 AO Fock derivatives at one time.
 LinEq1:  Iter=  1 NonCon=     1 RMS=2.60D-03 Max=7.51D-02 NDo=     1
 LinEq1:  Iter=  2 NonCon=     1 RMS=2.48D-03 Max=8.18D-02 NDo=     1
 LinEq1:  Iter=  3 NonCon=     1 RMS=8.96D-04 Max=2.03D-02 NDo=     1
 LinEq1:  Iter=  4 NonCon=     1 RMS=6.22D-04 Max=2.43D-02 NDo=     1
 LinEq1:  Iter=  5 NonCon=     1 RMS=2.80D-04 Max=7.14D-03 NDo=     1
 LinEq1:  Iter=  6 NonCon=     1 RMS=1.82D-04 Max=3.59D-03 NDo=     1
 LinEq1:  Iter=  7 NonCon=     1 RMS=8.50D-05 Max=1.62D-03 NDo=     1
 LinEq1:  Iter=  8 NonCon=     1 RMS=5.01D-05 Max=1.00D-03 NDo=     1
 LinEq1:  Iter=  9 NonCon=     1 RMS=2.25D-05 Max=6.44D-04 NDo=     1
 LinEq1:  Iter= 10 NonCon=     1 RMS=1.18D-05 Max=2.60D-04 NDo=     1
 LinEq1:  Iter= 11 NonCon=     1 RMS=5.05D-06 Max=8.65D-05 NDo=     1
 LinEq1:  Iter= 12 NonCon=     1 RMS=2.74D-06 Max=4.73D-05 NDo=     1
 LinEq1:  Iter= 13 NonCon=     1 RMS=9.09D-07 Max=2.01D-05 NDo=     1
 LinEq1:  Iter= 14 NonCon=     1 RMS=3.84D-07 Max=7.24D-06 NDo=     1
 LinEq1:  Iter= 15 NonCon=     1 RMS=1.41D-07 Max=2.35D-06 NDo=     1
 LinEq1:  Iter= 16 NonCon=     1 RMS=3.45D-08 Max=6.02D-07 NDo=     1
 LinEq1:  Iter= 17 NonCon=     1 RMS=2.01D-08 Max=3.93D-07 NDo=     1
 LinEq1:  Iter= 18 NonCon=     1 RMS=4.43D-09 Max=8.04D-08 NDo=     1
 LinEq1:  Iter= 19 NonCon=     1 RMS=7.32D-10 Max=1.24D-08 NDo=     1
 LinEq1:  Iter= 20 NonCon=     1 RMS=2.26D-10 Max=2.60D-09 NDo=     1
 LinEq1:  Iter= 21 NonCon=     0 RMS=6.91D-11 Max=8.14D-10 NDo=     1
 Linear equations converged to 1.000D-10 1.000D-09 after    21 iterations.
 End of Minotr F.D. properties file   721 does not exist.
 End of Minotr F.D. properties file   722 does not exist.
 End of Minotr F.D. properties file   788 does not exist.

 **********************************************************************

            Population analysis using the CI Density.

 **********************************************************************

 Orbital symmetries:
       Occupied  (A) (A) (A) (A) (A) (A) (A) (A) (A) (A) (A) (A)
                 (A) (A) (A) (A) (A) (A) (A) (A) (A) (A) (A) (A)
                 (A) (A) (A) (A) (A) (A) (A)
       Virtual   (A) (A) (A) (A) (A) (A) (A) (A) (A) (A) (A) (A)
                 (A) (A) (A) (A) (A) (A) (A) (A) (A) (A) (A) (A)
                 (A) (A) (A) (A) (A) (A) (A) (A) (A) (A) (A) (A)
                 (A) (A) (A) (A) (A) (A) (A) (A) (A) (A) (A) (A)
                 (A) (A) (A) (A) (A) (A) (A) (A) (A) (A) (A) (A)
                 (A) (A) (A) (A) (A) (A) (A) (A) (A) (A) (A) (A)
                 (A) (A) (A) (A) (A) (A) (A) (A) (A) (A) (A) (A)
                 (A) (A) (A) (A) (A) (A) (A) (A) (A) (A) (A) (A)
                 (A) (A) (A) (A) (A) (A) (A) (A) (A) (A) (A) (A)
                 (A) (A) (A) (A) (A) (A) (A) (A) (A) (A) (A) (A)
                 (A) (A) (A) (A) (A) (A) (A) (A) (A) (A) (A) (A)
                 (A) (A) (A) (A) (A) (A) (A) (A) (A) (A) (A) (A)
                 (A) (A) (A) (A) (A) (A) (A) (A) (A) (A)
 The electronic state is 1-A.
 Alpha  occ. eigenvalues --  -14.43659 -10.25747 -10.25556 -10.22524 -10.22140
 Alpha  occ. eigenvalues --  -10.21985 -10.21978 -10.21469 -10.21245  -0.99778
 Alpha  occ. eigenvalues --   -0.85176  -0.79369  -0.74505  -0.72645  -0.63078
 Alpha  occ. eigenvalues --   -0.60077  -0.58710  -0.54410  -0.48545  -0.47299
 Alpha  occ. eigenvalues --   -0.43888  -0.43005  -0.42437  -0.41175  -0.39188
 Alpha  occ. eigenvalues --   -0.35425  -0.33460  -0.33349  -0.27787  -0.22090
 Alpha  occ. eigenvalues --   -0.20396
 Alpha virt. eigenvalues --   -0.02533  -0.00505   0.01125   0.01381   0.01973
 Alpha virt. eigenvalues --    0.03518   0.03649   0.03970   0.05514   0.05736
 Alpha virt. eigenvalues --    0.06429   0.06485   0.08234   0.08564   0.10434
 Alpha virt. eigenvalues --    0.10598   0.10852   0.12331   0.13219   0.13588
 Alpha virt. eigenvalues --    0.15258   0.15408   0.16390   0.16468   0.16993
 Alpha virt. eigenvalues --    0.17926   0.18433   0.18621   0.19501   0.19724
 Alpha virt. eigenvalues --    0.19911   0.20067   0.21669   0.22199   0.22921
 Alpha virt. eigenvalues --    0.23357   0.23572   0.24424   0.25452   0.25842
 Alpha virt. eigenvalues --    0.26914   0.27164   0.27647   0.29440   0.29934
 Alpha virt. eigenvalues --    0.30707   0.31360   0.33020   0.34933   0.36530
 Alpha virt. eigenvalues --    0.37713   0.39809   0.43354   0.44882   0.51304
 Alpha virt. eigenvalues --    0.58110   0.62638   0.67463   0.67538   0.70045
 Alpha virt. eigenvalues --    0.71742   0.72233   0.73186   0.73834   0.74395
 Alpha virt. eigenvalues --    0.75469   0.75961   0.77942   0.79422   0.80213
 Alpha virt. eigenvalues --    0.81644   0.85525   0.89588   0.90346   0.91492
 Alpha virt. eigenvalues --    0.93797   0.94547   0.95447   0.96173   0.98571
 Alpha virt. eigenvalues --    1.00510   1.03213   1.04861   1.06612   1.09447
 Alpha virt. eigenvalues --    1.11364   1.11726   1.17114   1.17987   1.20553
 Alpha virt. eigenvalues --    1.22496   1.23079   1.25314   1.31720   1.31930
 Alpha virt. eigenvalues --    1.33737   1.36964   1.41167   1.41809   1.45346
 Alpha virt. eigenvalues --    1.45754   1.46457   1.49555   1.50123   1.54029
 Alpha virt. eigenvalues --    1.59065   1.65136   1.78847   1.84605   1.88566
 Alpha virt. eigenvalues --    1.89221   1.92450   1.94579   1.99824   2.00087
 Alpha virt. eigenvalues --    2.00644   2.06652   2.10337   2.14535   2.17586
 Alpha virt. eigenvalues --    2.17629   2.20241   2.25150   2.26317   2.26842
 Alpha virt. eigenvalues --    2.28941   2.31842   2.38442   2.41232   2.45102
 Alpha virt. eigenvalues --    2.55356   2.56315   2.64281   2.66448   2.67500
 Alpha virt. eigenvalues --    2.70680   2.74329   2.81696   2.85389   2.86569
 Alpha virt. eigenvalues --    2.96251   2.98702   3.12128   3.25223   3.45788
 Alpha virt. eigenvalues --    4.16676   4.27763   4.30738   4.34201   4.37798
 Alpha virt. eigenvalues --    4.41363   4.49683   4.53608   4.80607
          Condensed to atoms (all electrons):
               1          2          3          4          5          6
     1  C    6.012470   0.247874   0.227796  -0.630335   0.043194  -0.286241
     2  C    0.247874   6.126173  -0.087583   0.334076  -0.935356   0.788653
     3  C    0.227796  -0.087583  13.328817  -1.974743  -3.640048  -3.237588
     4  C   -0.630335   0.334076  -1.974743  13.507305  -4.117628  -0.769341
     5  C    0.043194  -0.935356  -3.640048  -4.117628  14.889922  -0.147457
     6  C   -0.286241   0.788653  -3.237588  -0.769341  -0.147457  13.130711
     7  N   -0.039478   0.003697  -0.571074  -0.444053   0.982008   0.183978
     8  C    0.148503  -0.304514   3.210566   1.764582  -4.583044  -4.033122
     9  C   -0.083150   0.027275  -1.190282  -0.685649   1.784722   1.052726
    10  H   -0.002185  -0.009923  -0.138710  -0.069330   0.177859   0.027738
    11  H    0.002207   0.001236   0.003810   0.036769  -0.010071  -0.003844
    12  H    0.001235   0.000401   0.040378   0.113100  -0.120506  -0.025062
    13  H    0.023810   0.251201   0.016827   0.004593   0.015710  -0.006108
    14  H    0.010484   0.059935   0.213576   0.038379  -0.003118  -0.020568
    15  H    0.272829   0.013313   0.020563  -0.020591   0.030250  -0.016044
    16  H    0.031422   0.009252  -0.027112   0.022181   0.079415   0.204930
               7          8          9         10         11         12
     1  C   -0.039478   0.148503  -0.083150  -0.002185   0.002207   0.001235
     2  C    0.003697  -0.304514   0.027275  -0.009923   0.001236   0.000401
     3  C   -0.571074   3.210566  -1.190282  -0.138710   0.003810   0.040378
     4  C   -0.444053   1.764582  -0.685649  -0.069330   0.036769   0.113100
     5  C    0.982008  -4.583044   1.784722   0.177859  -0.010071  -0.120506
     6  C    0.183978  -4.033122   1.052726   0.027738  -0.003844  -0.025062
     7  N    7.343860  -0.794410   0.575383   0.277914   0.006262  -0.060790
     8  C   -0.794410  12.097310  -1.935443  -0.009568   0.289881   0.063700
     9  C    0.575383  -1.935443   6.465071  -0.016541  -0.023648   0.300090
    10  H    0.277914  -0.009568  -0.016541   0.322034  -0.000086  -0.002258
    11  H    0.006262   0.289881  -0.023648  -0.000086   0.473288  -0.000847
    12  H   -0.060790   0.063700   0.300090  -0.002258  -0.000847   0.465058
    13  H   -0.000493   0.000781   0.001112  -0.000002   0.000000  -0.000000
    14  H   -0.008918  -0.000231   0.004765   0.001959   0.000002   0.000002
    15  H    0.000327   0.007307  -0.000072  -0.000000  -0.000002  -0.000000
    16  H   -0.000994  -0.028226   0.003860   0.000004   0.001349  -0.000001
              13         14         15         16
     1  C    0.023810   0.010484   0.272829   0.031422
     2  C    0.251201   0.059935   0.013313   0.009252
     3  C    0.016827   0.213576   0.020563  -0.027112
     4  C    0.004593   0.038379  -0.020591   0.022181
     5  C    0.015710  -0.003118   0.030250   0.079415
     6  C   -0.006108  -0.020568  -0.016044   0.204930
     7  N   -0.000493  -0.008918   0.000327  -0.000994
     8  C    0.000781  -0.000231   0.007307  -0.028226
     9  C    0.001112   0.004765  -0.000072   0.003860
    10  H   -0.000002   0.001959  -0.000000   0.000004
    11  H    0.000000   0.000002  -0.000002   0.001349
    12  H   -0.000000   0.000002  -0.000000  -0.000001
    13  H    0.491207  -0.004001  -0.003973  -0.000142
    14  H   -0.004001   0.500212  -0.000143   0.000017
    15  H   -0.003973  -0.000143   0.490601  -0.003904
    16  H   -0.000142   0.000017  -0.003904   0.497542
 Mulliken charges:
               1
     1  C    0.019566
     2  C   -0.525710
     3  C   -0.195193
     4  C   -1.109314
     5  C    1.554148
     6  C   -0.843360
     7  N   -0.453218
     8  C    0.105929
     9  C   -0.280217
    10  H    0.441096
    11  H    0.223694
    12  H    0.225502
    13  H    0.209479
    14  H    0.207648
    15  H    0.209539
    16  H    0.210409
 Sum of Mulliken charges =  -0.00000
 Mulliken charges with hydrogens summed into heavy atoms:
               1
     1  C    0.229105
     2  C   -0.316231
     3  C    0.012456
     4  C   -1.109314
     5  C    1.554148
     6  C   -0.632951
     7  N   -0.012122
     8  C    0.329623
     9  C   -0.054714
 Electronic spatial extent (au):  <R**2>=           1007.1434
 Charge=             -0.0000 electrons
 Dipole moment (field-independent basis, Debye):
    X=              2.1882    Y=             -1.4019    Z=             -0.0002  Tot=              2.5988
 Quadrupole moment (field-independent basis, Debye-Ang):
   XX=            -45.5602   YY=            -45.9278   ZZ=            -59.7667
   XY=             -2.9239   XZ=              0.0006   YZ=             -0.0008
 Traceless Quadrupole moment (field-independent basis, Debye-Ang):
   XX=              4.8580   YY=              4.4904   ZZ=             -9.3485
   XY=             -2.9239   XZ=              0.0006   YZ=             -0.0008
 Octapole moment (field-independent basis, Debye-Ang**2):
  XXX=             17.3784  YYY=             -9.3026  ZZZ=             -0.0080  XYY=             11.1965
  XXY=             -6.9545  XXZ=             -0.0005  XZZ=              3.0130  YZZ=             -1.3094
  YYZ=             -0.0059  XYZ=             -0.0041
 Hexadecapole moment (field-independent basis, Debye-Ang**3):
 XXXX=           -830.8141 YYYY=           -381.8005 ZZZZ=            -81.1588 XXXY=            -19.4450
 XXXZ=             -0.0077 YYYX=            -18.5945 YYYZ=              0.0056 ZZZX=             -0.0051
 ZZZY=              0.0081 XXYY=           -197.0382 XXZZ=           -197.5913 YYZZ=           -100.0102
 XXYZ=              0.0020 YYXZ=              0.0044 ZZXY=             -3.2893
 N-N= 4.013368668897D+02 E-N=-1.644921336348D+03  KE= 3.604647649203D+02
 Calling FoFJK, ICntrl=  10005127 FMM=F ISym2X=0 I1Cent= 0 IOpClX= 0 NMat=1 NMatS=1 NMatT=0.
 ***** Axes restored to original set *****
 -------------------------------------------------------------------
 Center     Atomic                   Forces (Hartrees/Bohr)
 Number     Number              X              Y              Z
 -------------------------------------------------------------------
      1        6          -0.022185900    0.002123997   -0.000004027
      2        6          -0.016667261   -0.008711647    0.000003059
      3        6           0.005028679   -0.026970840    0.000003894
      4        6           0.016142425   -0.016269684   -0.000017947
      5        6           0.017694157    0.024985702   -0.000024501
      6        6           0.016367353    0.028850245    0.000005356
      7        7          -0.010947409   -0.001287426    0.000029364
      8        6          -0.024513805    0.009318431    0.000030334
      9        6           0.018277430   -0.010768138   -0.000039799
     10        1           0.001152144   -0.003792186    0.000009357
     11        1           0.000988988    0.003517985    0.000007806
     12        1           0.003556289   -0.000525266   -0.000002278
     13        1          -0.002611399   -0.001551149    0.000000939
     14        1           0.000111628   -0.002783314   -0.000001380
     15        1          -0.002782924    0.001288476   -0.000001144
     16        1           0.000389603    0.002574813    0.000000969
 -------------------------------------------------------------------
 Cartesian Forces:  Max     0.028850245 RMS     0.010704795

 GradGradGradGradGradGradGradGradGradGradGradGradGradGradGradGradGradGrad
 Berny optimization.
 FormGI is forming the generalized inverse of G from B-inverse, IUseBI=4.
 Internal  Forces:  Max     0.033065764 RMS     0.007441854
 Search for a local minimum.
 Step number   1 out of a maximum of   94
 All quantities printed in internal units (Hartrees-Bohrs-Radians)
 Mixed Optimization -- RFO/linear search
 Second derivative matrix not updated -- first step.
 ITU=  0
     Eigenvalues ---    0.01853   0.01931   0.01986   0.02012   0.02070
     Eigenvalues ---    0.02113   0.02148   0.02153   0.02172   0.02209
     Eigenvalues ---    0.02233   0.02248   0.02338   0.16000   0.16000
     Eigenvalues ---    0.16000   0.16000   0.16000   0.16000   0.16000
     Eigenvalues ---    0.22000   0.22188   0.22662   0.24011   0.24651
     Eigenvalues ---    0.35712   0.35717   0.35783   0.35790   0.36420
     Eigenvalues ---    0.36427   0.37009   0.38432   0.42633   0.43465
     Eigenvalues ---    0.45769   0.46692   0.47162   0.47468   0.47567
     Eigenvalues ---    0.48125   0.50955
 RFO step:  Lambda=-1.01292027D-02 EMin= 1.85287394D-02
 Linear search not attempted -- first point.
 Iteration  1 RMS(Cart)=  0.02323402 RMS(Int)=  0.00010757
 Iteration  2 RMS(Cart)=  0.00017373 RMS(Int)=  0.00001466
 Iteration  3 RMS(Cart)=  0.00000002 RMS(Int)=  0.00001466
 Variable       Old X    -DE/DX   Delta X   Delta X   Delta X     New X
                                 (Linear)    (Quad)   (Total)
    R1        2.65547   0.02496   0.00000   0.05517   0.05515   2.71062
    R2        2.61291   0.03307   0.00000   0.06705   0.06705   2.67996
    R3        2.04421   0.00306   0.00000   0.00832   0.00832   2.05253
    R4        2.61557   0.02359   0.00000   0.04799   0.04797   2.66354
    R5        2.04411   0.00304   0.00000   0.00825   0.00825   2.05237
    R6        2.63373   0.01952   0.00000   0.04050   0.04050   2.67423
    R7        2.04534   0.00278   0.00000   0.00758   0.00758   2.05292
    R8        2.68058   0.03062   0.00000   0.06875   0.06874   2.74932
    R9        2.60126  -0.00272   0.00000  -0.00578  -0.00579   2.59547
   R10        2.64771   0.01243   0.00000   0.02655   0.02657   2.67428
   R11        2.70839  -0.00970   0.00000  -0.02322  -0.02323   2.68516
   R12        2.04526   0.00256   0.00000   0.00698   0.00698   2.05224
   R13        2.60573   0.00891   0.00000   0.01797   0.01800   2.62372
   R14        1.89542   0.00396   0.00000   0.00822   0.00822   1.90365
   R15        2.57870   0.02235   0.00000   0.04272   0.04274   2.62144
   R16        2.03419   0.00364   0.00000   0.00973   0.00973   2.04392
   R17        2.03430   0.00359   0.00000   0.00960   0.00960   2.04390
    A1        2.11420   0.00252   0.00000   0.01333   0.01331   2.12751
    A2        2.07986  -0.00145   0.00000  -0.00775  -0.00774   2.07211
    A3        2.08912  -0.00107   0.00000  -0.00558  -0.00556   2.08356
    A4        2.11523   0.00097   0.00000   0.00611   0.00607   2.12130
    A5        2.08365  -0.00046   0.00000  -0.00293  -0.00291   2.08074
    A6        2.08430  -0.00051   0.00000  -0.00318  -0.00316   2.08114
    A7        2.05144  -0.00466   0.00000  -0.02053  -0.02055   2.03088
    A8        2.11267   0.00240   0.00000   0.01071   0.01072   2.12338
    A9        2.11908   0.00225   0.00000   0.00982   0.00984   2.12892
   A10        2.13389   0.00396   0.00000   0.01462   0.01465   2.14853
   A11        2.27895  -0.00358   0.00000  -0.01172  -0.01171   2.26724
   A12        1.87035  -0.00038   0.00000  -0.00290  -0.00293   1.86741
   A13        2.07274   0.00271   0.00000   0.00972   0.00976   2.08251
   A14        1.86517  -0.00149   0.00000  -0.00637  -0.00642   1.85875
   A15        2.34527  -0.00122   0.00000  -0.00334  -0.00334   2.34193
   A16        2.07887  -0.00550   0.00000  -0.02324  -0.02323   2.05564
   A17        2.10306   0.00322   0.00000   0.01439   0.01438   2.11744
   A18        2.10125   0.00228   0.00000   0.00886   0.00885   2.11010
   A19        1.90743   0.00188   0.00000   0.00723   0.00724   1.91467
   A20        2.19023  -0.00103   0.00000  -0.00414  -0.00415   2.18608
   A21        2.18553  -0.00085   0.00000  -0.00309  -0.00309   2.18244
   A22        1.86968   0.00231   0.00000   0.01095   0.01097   1.88065
   A23        2.21717  -0.00145   0.00000  -0.00720  -0.00721   2.20996
   A24        2.19633  -0.00086   0.00000  -0.00375  -0.00376   2.19257
   A25        1.91215  -0.00232   0.00000  -0.00890  -0.00886   1.90329
   A26        2.10250   0.00101   0.00000   0.00357   0.00355   2.10605
   A27        2.26854   0.00131   0.00000   0.00533   0.00531   2.27385
    D1       -0.00001  -0.00000   0.00000  -0.00006  -0.00006  -0.00007
    D2       -3.14156  -0.00000   0.00000  -0.00007  -0.00007   3.14155
    D3        3.14152   0.00000   0.00000   0.00002   0.00002   3.14154
    D4       -0.00002  -0.00000   0.00000   0.00000   0.00000  -0.00002
    D5       -0.00003   0.00000   0.00000   0.00013   0.00013   0.00010
    D6        3.14153   0.00000   0.00000   0.00010   0.00010  -3.14156
    D7       -3.14157   0.00000   0.00000   0.00005   0.00005  -3.14151
    D8       -0.00001   0.00000   0.00000   0.00002   0.00002   0.00002
    D9        0.00003  -0.00000   0.00000  -0.00005  -0.00005  -0.00001
   D10       -3.14154  -0.00000   0.00000  -0.00000  -0.00000  -3.14154
   D11        3.14158  -0.00000   0.00000  -0.00003  -0.00003   3.14155
   D12        0.00001   0.00000   0.00000   0.00001   0.00001   0.00002
   D13       -0.00001   0.00000   0.00000   0.00008   0.00008   0.00007
   D14       -3.14144  -0.00000   0.00000  -0.00005  -0.00005  -3.14149
   D15        3.14156   0.00000   0.00000   0.00004   0.00004  -3.14159
   D16        0.00013  -0.00000   0.00000  -0.00009  -0.00009   0.00004
   D17       -0.00004   0.00000   0.00000  -0.00001  -0.00001  -0.00005
   D18       -3.14151  -0.00000   0.00000  -0.00015  -0.00016   3.14151
   D19        3.14143   0.00000   0.00000   0.00009   0.00009   3.14152
   D20       -0.00005  -0.00000   0.00000  -0.00005  -0.00005  -0.00011
   D21       -3.14124  -0.00001   0.00000  -0.00024  -0.00024  -3.14148
   D22       -0.00113   0.00000   0.00000   0.00005   0.00005  -0.00109
   D23        0.00049  -0.00001   0.00000  -0.00035  -0.00036   0.00014
   D24        3.14060  -0.00000   0.00000  -0.00007  -0.00007   3.14054
   D25        0.00005  -0.00000   0.00000  -0.00009  -0.00009  -0.00004
   D26       -3.14151  -0.00000   0.00000  -0.00006  -0.00006  -3.14157
   D27        3.14150   0.00000   0.00000   0.00010   0.00010  -3.14159
   D28       -0.00007   0.00000   0.00000   0.00013   0.00013   0.00006
   D29       -0.00041   0.00001   0.00000   0.00044   0.00044   0.00003
   D30        3.14139   0.00001   0.00000   0.00016   0.00016   3.14155
   D31        3.14132   0.00001   0.00000   0.00026   0.00026   3.14159
   D32       -0.00006  -0.00000   0.00000  -0.00002  -0.00002  -0.00008
   D33       -0.00077   0.00002   0.00000   0.00066   0.00065  -0.00012
   D34        3.14133   0.00001   0.00000   0.00020   0.00020   3.14153
   D35       -3.14089   0.00001   0.00000   0.00037   0.00037  -3.14052
   D36        0.00121  -0.00000   0.00000  -0.00008  -0.00008   0.00113
   D37        0.00072  -0.00002   0.00000  -0.00067  -0.00067   0.00005
   D38       -3.14144  -0.00000   0.00000  -0.00016  -0.00016   3.14158
   D39       -3.14107  -0.00001   0.00000  -0.00039  -0.00039  -3.14147
   D40       -0.00005   0.00000   0.00000   0.00012   0.00012   0.00006
         Item               Value     Threshold  Converged?
 Maximum Force            0.033066     0.000450     NO 
 RMS     Force            0.007442     0.000300     NO 
 Maximum Displacement     0.091880     0.001800     NO 
 RMS     Displacement     0.023230     0.001200     NO 
 Predicted change in Energy=-5.180117D-03
 GradGradGradGradGradGradGradGradGradGradGradGradGradGradGradGradGradGrad

                          Input orientation:                          
 ---------------------------------------------------------------------
 Center     Atomic      Atomic             Coordinates (Angstroms)
 Number     Number       Type             X           Y           Z
 ---------------------------------------------------------------------
      1          6           0       -2.167581    0.700375   -0.000007
      2          6           0       -2.145240   -0.733852    0.000040
      3          6           0       -0.932650   -1.452376    0.000038
      4          6           0        0.254325   -0.681844   -0.000029
      5          6           0        0.257166    0.773029   -0.000007
      6          6           0       -0.975374    1.468399    0.000029
      7          7           0        1.567024   -1.085854   -0.000160
      8          6           0        1.620371    1.173901    0.000015
      9          6           0        2.398898    0.025757   -0.000038
     10          1           0        1.880763   -2.043119    0.000666
     11          1           0        1.994459    2.188744   -0.000003
     12          1           0        3.474276   -0.089959   -0.000050
     13          1           0       -3.084752   -1.278695    0.000048
     14          1           0       -0.913465   -2.538566    0.000025
     15          1           0       -3.128098    1.207462   -0.000055
     16          1           0       -1.003219    2.554042    0.000026
 ---------------------------------------------------------------------
                    Distance matrix (angstroms):
                    1          2          3          4          5
     1  C    0.000000
     2  C    1.434401   0.000000
     3  C    2.481812   1.409485   0.000000
     4  C    2.788576   2.400128   1.415143   0.000000
     5  C    2.425835   2.835885   2.523508   1.454876   0.000000
     6  C    1.418175   2.493691   2.921088   2.477035   1.415165
     7  N    4.139794   3.728915   2.526403   1.373464   2.274022
     8  C    3.817435   4.221297   3.662684   2.304316   1.420925
     9  C    4.616042   4.607190   3.644735   2.258295   2.268355
    10  H    4.890383   4.233542   2.874765   2.120936   3.250655
    11  H    4.420161   5.067413   4.671801   3.356835   2.241079
    12  H    5.696944   5.656284   4.612719   3.273898   3.330848
    13  H    2.181266   1.086065   2.159099   3.392001   3.921478
    14  H    3.473261   2.185008   1.086359   2.193433   3.512412
    15  H    1.086154   2.175939   3.448874   3.874308   3.413026
    16  H    2.189023   3.480583   4.007039   3.471653   2.181874
                    6          7          8          9         10
     6  C    0.000000
     7  N    3.603887   0.000000
     8  C    2.612398   2.260385   0.000000
     9  C    3.669732   1.388414   1.387205   0.000000
    10  H    4.526398   1.007367   3.227541   2.132771   0.000000
    11  H    3.055945   3.302377   1.081595   2.200474   4.233390
    12  H    4.714643   2.151607   2.243726   1.081585   2.520737
    13  H    3.463525   4.655772   5.305979   5.636667   5.024011
    14  H    4.007443   2.874578   4.494745   4.188974   2.837812
    15  H    2.168481   5.225273   4.748588   5.651913   5.971178
    16  H    1.086000   4.455895   2.964459   4.238706   5.426900
                   11         12         13         14         15
    11  H    0.000000
    12  H    2.717048   0.000000
    13  H    6.149920   6.665879   0.000000
    14  H    5.550088   5.024733   2.510331   0.000000
    15  H    5.215698   6.728644   2.486535   4.351704   0.000000
    16  H    3.019853   5.199875   4.361497   5.093399   2.515629
                   16
    16  H    0.000000
 Stoichiometry    C8H7N
 Framework group  C1[X(C8H7N)]
 Deg. of freedom    42
 Full point group                 C1      NOp   1
 Largest Abelian subgroup         C1      NOp   1
 Largest concise Abelian subgroup C1      NOp   1
                         Standard orientation:                         
 ---------------------------------------------------------------------
 Center     Atomic      Atomic             Coordinates (Angstroms)
 Number     Number       Type             X           Y           Z
 ---------------------------------------------------------------------
      1          6           0       -2.168145    0.700423   -0.000004
      2          6           0       -2.146255   -0.733810    0.000044
      3          6           0       -0.933892   -1.452716    0.000042
      4          6           0        0.253326   -0.682557   -0.000026
      5          6           0        0.256624    0.772315   -0.000003
      6          6           0       -0.975697    1.468073    0.000032
      7          7           0        1.565898   -1.086980   -0.000156
      8          6           0        1.619956    1.172758    0.000018
      9          6           0        2.398122    0.024370   -0.000035
     10          1           0        1.879336   -2.044343    0.000669
     11          1           0        1.994362    2.187484    0.000001
     12          1           0        3.473463   -0.091685   -0.000047
     13          1           0       -3.085939   -1.278358    0.000051
     14          1           0       -0.915048   -2.538911    0.000028
     15          1           0       -3.128503    1.207813   -0.000051
     16          1           0       -1.003200    2.553724    0.000029
 ---------------------------------------------------------------------
 Rotational constants (GHZ):           3.7555043           1.6249171           1.1341831
 Standard basis: 6-31+G(d) (6D, 7F)
 There are   185 symmetry adapted cartesian basis functions of A   symmetry.
 There are   185 symmetry adapted basis functions of A   symmetry.
   185 basis functions,   316 primitive gaussians,   185 cartesian basis functions
    31 alpha electrons       31 beta electrons
       nuclear repulsion energy       396.9257591094 Hartrees.
 NAtoms=   16 NActive=   16 NUniq=   16 SFac= 1.00D+00 NAtFMM=   60 NAOKFM=F Big=F
 Integral buffers will be    131072 words long.
 Regular integral format.
 Two-electron integral symmetry is turned on.
 One-electron integrals computed using PRISM.
 NBasis=   185 RedAO= T EigKep=  1.46D-06  NBF=   185
 NBsUse=   185 1.00D-06 EigRej= -1.00D+00 NBFU=   185
 Initial guess from the checkpoint file:  "FuncsHSEH1PBE-V-2nd.chk"
 B after Tr=     0.000000    0.000000   -0.000000
         Rot=    1.000000    0.000003    0.000001    0.000182 Ang=   0.02 deg.
 ExpMin= 4.38D-02 ExpMax= 4.17D+03 ExpMxC= 6.27D+02 IAcc=3 IRadAn=         5 AccDes= 0.00D+00
 Harris functional with IExCor= 1009 and IRadAn=       5 diagonalized for initial guess.
 HarFok:  IExCor= 1009 AccDes= 0.00D+00 IRadAn=         5 IDoV= 1 UseB2=F ITyADJ=14
 ICtDFT=  3500011 ScaDFX=  1.000000  1.000000  1.000000  1.000000
 FoFCou: FMM=F IPFlag=           0 FMFlag=      100000 FMFlg1=           0
         NFxFlg=           0 DoJE=T BraDBF=F KetDBF=T FulRan=T
         wScrn=  0.000000 ICntrl=       500 IOpCl=  0 I1Cent=   200000004 NGrid=           0
         NMat0=    1 NMatS0=      1 NMatT0=    0 NMatD0=    1 NMtDS0=    0 NMtDT0=    0
 Petite list used in FoFCou.
 Keep R1 ints in memory in canonical form, NReq=303303409.
 Requested convergence on RMS density matrix=1.00D-08 within 128 cycles.
 Requested convergence on MAX density matrix=1.00D-06.
 Requested convergence on             energy=1.00D-06.
 No special actions if energy rises.
 SCF Done:  E(RHSEH1PBE) =  -363.430068607     A.U. after   13 cycles
            NFock= 13  Conv=0.45D-08     -V/T= 2.0102
 DoSCS=F DFT=T ScalE2(SS,OS)=  1.000000  1.000000
 ExpMin= 4.38D-02 ExpMax= 4.17D+03 ExpMxC= 6.27D+02 IAcc=3 IRadAn=         5 AccDes= 0.00D+00
 HarFok:  IExCor=  205 AccDes= 0.00D+00 IRadAn=         5 IDoV=-2 UseB2=F ITyADJ=14
 ICtDFT= 12500011 ScaDFX=  1.000000  1.000000  1.000000  1.000000
 Range of M.O.s used for correlation:    10   185
 NBasis=   185 NAE=    31 NBE=    31 NFC=     9 NFV=     0
 NROrb=    176 NOA=    22 NOB=    22 NVA=   154 NVB=   154

 **** Warning!!: The largest alpha MO coefficient is  0.16578139D+03

 Orbital symmetries:
       Occupied  (A) (A) (A) (A) (A) (A) (A) (A) (A) (A) (A) (A)
                 (A) (A) (A) (A) (A) (A) (A) (A) (A) (A) (A) (A)
                 (A) (A) (A) (A) (A) (A) (A)
       Virtual   (A) (A) (A) (A) (A) (A) (A) (A) (A) (A) (A) (A)
                 (A) (A) (A) (A) (A) (A) (A) (A) (A) (A) (A) (A)
                 (A) (A) (A) (A) (A) (A) (A) (A) (A) (A) (A) (A)
                 (A) (A) (A) (A) (A) (A) (A) (A) (A) (A) (A) (A)
                 (A) (A) (A) (A) (A) (A) (A) (A) (A) (A) (A) (A)
                 (A) (A) (A) (A) (A) (A) (A) (A) (A) (A) (A) (A)
                 (A) (A) (A) (A) (A) (A) (A) (A) (A) (A) (A) (A)
                 (A) (A) (A) (A) (A) (A) (A) (A) (A) (A) (A) (A)
                 (A) (A) (A) (A) (A) (A) (A) (A) (A) (A) (A) (A)
                 (A) (A) (A) (A) (A) (A) (A) (A) (A) (A) (A) (A)
                 (A) (A) (A) (A) (A) (A) (A) (A) (A) (A) (A) (A)
                 (A) (A) (A) (A) (A) (A) (A) (A) (A) (A) (A) (A)
                 (A) (A) (A) (A) (A) (A) (A) (A) (A) (A)
 Generating guess from densities on rwf.
 Convergence on wavefunction:    0.000001000000000
 Iteration     1 Dimension    12 NMult     0 NNew     12
 CISAX will form    12 AO SS matrices at one time.
 Iteration     2 Dimension    24 NMult    12 NNew     12
 Iteration     3 Dimension    36 NMult    24 NNew     12
 Iteration     4 Dimension    48 NMult    36 NNew     12
 Iteration     5 Dimension    60 NMult    48 NNew     12
 Iteration     6 Dimension    72 NMult    60 NNew     12
 Iteration     7 Dimension    84 NMult    72 NNew     12
 Iteration     8 Dimension    96 NMult    84 NNew     12
 Iteration     9 Dimension   108 NMult    96 NNew     12
 Iteration    10 Dimension   118 NMult   108 NNew     10
 Iteration    11 Dimension   122 NMult   118 NNew      4
 ***********************************************************************
 Excited states from <AA,BB:AA,BB> singles matrix:
 ***********************************************************************
 
 Ground to excited state transition densities written to RWF  633
 Ground to excited state transition electric dipole moments (Au):
       state          X           Y           Z        Dip. S.      Osc.
         1        -0.6235      0.6328     -0.0000      0.7892      0.0909
         2        -0.5497     -0.1815     -0.0001      0.3351      0.0391
         3         0.0005     -0.0001     -0.1442      0.0208      0.0026
         4        -0.0003      0.0001     -0.1213      0.0147      0.0020
         5         0.0001     -0.0000      0.0091      0.0001      0.0000
         6         0.0003      0.0001      0.1038      0.0108      0.0015
 Ground to excited state transition velocity dipole moments (Au):
       state          X           Y           Z        Dip. S.      Osc.
         1         0.0979     -0.1175      0.0000      0.0234      0.0903
         2         0.0913      0.0332      0.0000      0.0094      0.0360
         3        -0.0001      0.0000      0.0183      0.0003      0.0012
         4         0.0001     -0.0000      0.0263      0.0007      0.0023
         5        -0.0000      0.0000     -0.0004      0.0000      0.0000
         6        -0.0001     -0.0000     -0.0212      0.0005      0.0014
 Ground to excited state transition magnetic dipole moments (Au):
       state          X           Y           Z
         1         0.0001      0.0000      0.1788
         2        -0.0001     -0.0001     -0.0584
         3         0.1154     -0.0851      0.0002
         4         0.0333     -0.2260     -0.0001
         5         0.3060     -0.1830      0.0001
         6         0.1144      0.3634      0.0003
 Ground to excited state transition velocity quadrupole moments (Au):
       state          XX          YY          ZZ          XY          XZ          YZ
         1         0.2101     -0.1300      0.0127      0.0468      0.0000     -0.0000
         2         0.0491     -0.0994      0.0204     -0.0096      0.0000     -0.0000
         3        -0.0001      0.0001      0.0001      0.0001      0.0706      0.0382
         4         0.0000     -0.0001     -0.0000     -0.0000      0.1449     -0.0203
         5         0.0000     -0.0000      0.0000      0.0000      0.2094      0.2570
         6        -0.0000      0.0001      0.0000      0.0002     -0.3193      0.0156
 <0|del|b> * <b|rxdel|0> + <0|del|b> * <b|delr+rdel|0>
 Rotatory Strengths (R) in cgs (10**-40 erg-esu-cm/Gauss)
       state          XX          YY          ZZ    R(velocity)    E-M Angle
         1        -0.0045      0.0137      0.0074      0.0055       90.00
         2        -0.0093     -0.0157     -0.0115     -0.0122       90.00
         3         0.0005     -0.0222     -0.0135     -0.0117       90.00
         4         0.0009      0.0004      0.0070      0.0028       90.00
         5        -0.0026     -0.0190     -0.0015     -0.0077       90.00
         6        -0.0365     -0.0146     -0.0100     -0.0204       90.00
 1/2[<0|r|b>*<b|rxdel|0> + (<0|rxdel|b>*<b|r|0>)*]
 Rotatory Strengths (R) in cgs (10**-40 erg-esu-cm/Gauss)
       state          XX          YY          ZZ     R(length)
         1         0.0383     -0.0186      0.0052      0.0083
         2        -0.0237     -0.0114     -0.0022     -0.0124
         3        -0.0429     -0.0067      0.0158     -0.0113
         4         0.0070      0.0089     -0.0051      0.0036
         5        -0.0228     -0.0024     -0.0009     -0.0087
         6        -0.0217     -0.0262     -0.0197     -0.0226
  1/2[<0|del|b>*<b|r|0> + (<0|r|b>*<b|del|0>)*] (Au)
       state          X           Y           Z        Dip. S.   Osc.(frdel)
         1        -0.0611     -0.0744     -0.0000      0.1354      0.0903
         2        -0.0502     -0.0060     -0.0000      0.0562      0.0375
         3        -0.0000     -0.0000     -0.0026      0.0026      0.0018
         4        -0.0000     -0.0000     -0.0032      0.0032      0.0021
         5        -0.0000     -0.0000     -0.0000      0.0000      0.0000
         6        -0.0000     -0.0000     -0.0022      0.0022      0.0015

 Excitation energies and oscillator strengths:
 
 Excited State   1:      Singlet-A      4.6996 eV  263.82 nm  f=0.0909  <S**2>=0.000
      30 -> 32        -0.11265
      30 -> 34         0.16439
      31 -> 32         0.66500
 
 Excited State   2:      Singlet-A      4.7606 eV  260.44 nm  f=0.0391  <S**2>=0.000
      30 -> 32         0.57967
      31 -> 34        -0.38585
 This state for optimization and/or second-order correction.
 Total Energy, E(TD-HF/TD-DFT) =  -363.255119064    
 Copying the excited state density for this state as the 1-particle RhoCI density.
 
 Excited State   3:      Singlet-A      5.0359 eV  246.20 nm  f=0.0026  <S**2>=0.000
      31 -> 33         0.70438
 
 Excited State   4:      Singlet-A      5.4300 eV  228.33 nm  f=0.0020  <S**2>=0.000
      30 -> 33         0.69983
 
 Excited State   5:      Singlet-A      5.6122 eV  220.92 nm  f=0.0000  <S**2>=0.000
      31 -> 35         0.69862
 
 Excited State   6:      Singlet-A      5.7308 eV  216.35 nm  f=0.0015  <S**2>=0.000
      31 -> 36        -0.69824
 SavETr:  write IOETrn=   770 NScale= 10 NData=  16 NLR=1 NState=    6 LETran=     118.
          IDoAtm=1111111111111111
          Differentiating once with respect to electric field.
                with respect to dipole field.
          Differentiating once with respect to nuclear coordinates.
 Keep R1 ints in memory in canonical form, NReq=303315801.
          There are     1 degrees of freedom in the 1st order CPHF.  IDoFFX=0 NUNeed=     1.
 LinEq1:  Iter=  0 NonCon=     1 RMS=5.45D-03 Max=1.60D-01 NDo=     1
 AX will form     1 AO Fock derivatives at one time.
 LinEq1:  Iter=  1 NonCon=     1 RMS=2.30D-03 Max=6.59D-02 NDo=     1
 LinEq1:  Iter=  2 NonCon=     1 RMS=2.43D-03 Max=8.97D-02 NDo=     1
 LinEq1:  Iter=  3 NonCon=     1 RMS=8.50D-04 Max=1.88D-02 NDo=     1
 LinEq1:  Iter=  4 NonCon=     1 RMS=5.33D-04 Max=2.12D-02 NDo=     1
 LinEq1:  Iter=  5 NonCon=     1 RMS=2.84D-04 Max=6.10D-03 NDo=     1
 LinEq1:  Iter=  6 NonCon=     1 RMS=1.75D-04 Max=3.38D-03 NDo=     1
 LinEq1:  Iter=  7 NonCon=     1 RMS=8.62D-05 Max=1.99D-03 NDo=     1
 LinEq1:  Iter=  8 NonCon=     1 RMS=5.73D-05 Max=1.05D-03 NDo=     1
 LinEq1:  Iter=  9 NonCon=     1 RMS=2.63D-05 Max=5.51D-04 NDo=     1
 LinEq1:  Iter= 10 NonCon=     1 RMS=1.34D-05 Max=2.71D-04 NDo=     1
 LinEq1:  Iter= 11 NonCon=     1 RMS=3.92D-06 Max=9.50D-05 NDo=     1
 LinEq1:  Iter= 12 NonCon=     1 RMS=3.04D-06 Max=7.96D-05 NDo=     1
 LinEq1:  Iter= 13 NonCon=     1 RMS=1.04D-06 Max=1.68D-05 NDo=     1
 LinEq1:  Iter= 14 NonCon=     1 RMS=4.28D-07 Max=1.21D-05 NDo=     1
 LinEq1:  Iter= 15 NonCon=     1 RMS=1.91D-07 Max=2.51D-06 NDo=     1
 LinEq1:  Iter= 16 NonCon=     1 RMS=3.32D-08 Max=4.90D-07 NDo=     1
 LinEq1:  Iter= 17 NonCon=     1 RMS=1.72D-08 Max=2.75D-07 NDo=     1
 LinEq1:  Iter= 18 NonCon=     1 RMS=6.29D-09 Max=9.15D-08 NDo=     1
 LinEq1:  Iter= 19 NonCon=     1 RMS=1.18D-09 Max=2.22D-08 NDo=     1
 LinEq1:  Iter= 20 NonCon=     1 RMS=1.76D-10 Max=1.69D-09 NDo=     1
 LinEq1:  Iter= 21 NonCon=     0 RMS=3.20D-11 Max=3.24D-10 NDo=     1
 Linear equations converged to 1.000D-10 1.000D-09 after    21 iterations.
 End of Minotr F.D. properties file   721 does not exist.
 End of Minotr F.D. properties file   722 does not exist.
 End of Minotr F.D. properties file   788 does not exist.
 Calling FoFJK, ICntrl=  10005127 FMM=F ISym2X=0 I1Cent= 0 IOpClX= 0 NMat=1 NMatS=1 NMatT=0.
 ***** Axes restored to original set *****
 -------------------------------------------------------------------
 Center     Atomic                   Forces (Hartrees/Bohr)
 Number     Number              X              Y              Z
 -------------------------------------------------------------------
      1        6           0.000116532   -0.003705125    0.000001828
      2        6           0.000041487    0.001094035   -0.000000098
      3        6           0.000145593   -0.000406532    0.000001292
      4        6           0.002248659   -0.006242907   -0.000000472
      5        6           0.001508305    0.004027987   -0.000000338
      6        6           0.003566300    0.000595747   -0.000002126
      7        7          -0.010665933    0.003461078    0.000004378
      8        6          -0.002629179   -0.003750827   -0.000005860
      9        6           0.006397616    0.004693110    0.000008724
     10        1          -0.000133722   -0.000124297   -0.000005960
     11        1           0.000475542   -0.000126627   -0.000000337
     12        1          -0.000616302    0.000024756   -0.000000595
     13        1           0.000019994    0.000868533    0.000000090
     14        1          -0.000035757    0.000804907   -0.000000888
     15        1           0.000069461   -0.000303634    0.000000029
     16        1          -0.000508597   -0.000910203    0.000000331
 -------------------------------------------------------------------
 Cartesian Forces:  Max     0.010665933 RMS     0.002515168

 GradGradGradGradGradGradGradGradGradGradGradGradGradGradGradGradGradGrad
 Berny optimization.
 Using GEDIIS/GDIIS optimizer.
 FormGI is forming the generalized inverse of G from B-inverse, IUseBI=4.
 Internal  Forces:  Max     0.006679009 RMS     0.001300506
 Search for a local minimum.
 Step number   2 out of a maximum of   94
 All quantities printed in internal units (Hartrees-Bohrs-Radians)
 Mixed Optimization -- RFO/linear search
 Update second derivatives using D2CorX and points    1    2
 DE= -5.00D-03 DEPred=-5.18D-03 R= 9.64D-01
 TightC=F SS=  1.41D+00  RLast= 1.51D-01 DXNew= 5.0454D-01 4.5307D-01
 Trust test= 9.64D-01 RLast= 1.51D-01 DXMaxT set to 4.53D-01
 ITU=  1  0
 Use linear search instead of GDIIS.
     Eigenvalues ---    0.01853   0.01932   0.01986   0.02011   0.02071
     Eigenvalues ---    0.02113   0.02148   0.02153   0.02171   0.02209
     Eigenvalues ---    0.02234   0.02248   0.02339   0.15987   0.16000
     Eigenvalues ---    0.16000   0.16000   0.16000   0.16000   0.16010
     Eigenvalues ---    0.21087   0.22013   0.22841   0.24019   0.24635
     Eigenvalues ---    0.35714   0.35725   0.35785   0.35839   0.36410
     Eigenvalues ---    0.36465   0.37033   0.38057   0.42769   0.43059
     Eigenvalues ---    0.44450   0.46562   0.46996   0.47171   0.47596
     Eigenvalues ---    0.48673   0.56894
 RFO step:  Lambda=-4.11674376D-04 EMin= 1.85276119D-02
 Quartic linear search produced a step of  0.00818.
 Iteration  1 RMS(Cart)=  0.00512750 RMS(Int)=  0.00001719
 Iteration  2 RMS(Cart)=  0.00002163 RMS(Int)=  0.00000670
 Iteration  3 RMS(Cart)=  0.00000000 RMS(Int)=  0.00000670
 Variable       Old X    -DE/DX   Delta X   Delta X   Delta X     New X
                                 (Linear)    (Quad)   (Total)
    R1        2.71062  -0.00265   0.00045  -0.00431  -0.00386   2.70676
    R2        2.67996   0.00136   0.00055   0.00491   0.00546   2.68542
    R3        2.05253  -0.00020   0.00007  -0.00030  -0.00023   2.05230
    R4        2.66354  -0.00119   0.00039  -0.00097  -0.00058   2.66296
    R5        2.05237  -0.00045   0.00007  -0.00101  -0.00094   2.05143
    R6        2.67423  -0.00076   0.00033  -0.00025   0.00008   2.67431
    R7        2.05292  -0.00081   0.00006  -0.00202  -0.00196   2.05096
    R8        2.74932   0.00182   0.00056   0.00634   0.00688   2.75620
    R9        2.59547  -0.00668  -0.00005  -0.01402  -0.01407   2.58141
   R10        2.67428  -0.00285   0.00022  -0.00541  -0.00519   2.66908
   R11        2.68516  -0.00171  -0.00019  -0.00484  -0.00504   2.68012
   R12        2.05224  -0.00090   0.00006  -0.00230  -0.00224   2.05000
   R13        2.62372   0.00424   0.00015   0.00934   0.00951   2.63323
   R14        1.90365   0.00008   0.00007   0.00043   0.00050   1.90414
   R15        2.62144  -0.00248   0.00035  -0.00307  -0.00271   2.61873
   R16        2.04392   0.00005   0.00008   0.00044   0.00052   2.04444
   R17        2.04390  -0.00062   0.00008  -0.00139  -0.00131   2.04259
    A1        2.12751   0.00152   0.00011   0.00682   0.00693   2.13444
    A2        2.07211  -0.00100  -0.00006  -0.00497  -0.00503   2.06708
    A3        2.08356  -0.00052  -0.00005  -0.00185  -0.00190   2.08166
    A4        2.12130  -0.00041   0.00005  -0.00218  -0.00213   2.11916
    A5        2.08074  -0.00056  -0.00002  -0.00369  -0.00371   2.07704
    A6        2.08114   0.00097  -0.00003   0.00586   0.00584   2.08698
    A7        2.03088  -0.00079  -0.00017  -0.00432  -0.00450   2.02639
    A8        2.12338   0.00037   0.00009   0.00204   0.00213   2.12551
    A9        2.12892   0.00042   0.00008   0.00228   0.00237   2.13129
   A10        2.14853   0.00152   0.00012   0.00748   0.00761   2.15614
   A11        2.26724   0.00051  -0.00010   0.00213   0.00205   2.26929
   A12        1.86741  -0.00203  -0.00002  -0.00962  -0.00966   1.85776
   A13        2.08251  -0.00148   0.00008  -0.00523  -0.00514   2.07737
   A14        1.85875   0.00101  -0.00005   0.00339   0.00331   1.86206
   A15        2.34193   0.00047  -0.00003   0.00184   0.00183   2.34375
   A16        2.05564  -0.00036  -0.00019  -0.00257  -0.00276   2.05288
   A17        2.11744  -0.00037   0.00012  -0.00205  -0.00194   2.11551
   A18        2.11010   0.00072   0.00007   0.00463   0.00470   2.11480
   A19        1.91467   0.00316   0.00006   0.01411   0.01419   1.92886
   A20        2.18608  -0.00174  -0.00003  -0.00806  -0.00811   2.17797
   A21        2.18244  -0.00142  -0.00003  -0.00605  -0.00608   2.17635
   A22        1.88065   0.00077   0.00009   0.00486   0.00495   1.88561
   A23        2.20996   0.00011  -0.00006   0.00066   0.00060   2.21056
   A24        2.19257  -0.00089  -0.00003  -0.00552  -0.00555   2.18702
   A25        1.90329  -0.00291  -0.00007  -0.01275  -0.01280   1.89049
   A26        2.10605   0.00141   0.00003   0.00608   0.00610   2.11215
   A27        2.27385   0.00150   0.00004   0.00667   0.00670   2.28055
    D1       -0.00007   0.00000  -0.00000   0.00002   0.00002  -0.00006
    D2        3.14155   0.00000  -0.00000   0.00002   0.00002   3.14157
    D3        3.14154  -0.00000   0.00000  -0.00000  -0.00000   3.14153
    D4       -0.00002  -0.00000   0.00000  -0.00000  -0.00000  -0.00002
    D5        0.00010  -0.00000   0.00000  -0.00004  -0.00004   0.00006
    D6       -3.14156  -0.00000   0.00000  -0.00001  -0.00000  -3.14156
    D7       -3.14151  -0.00000   0.00000  -0.00002  -0.00002  -3.14153
    D8        0.00002   0.00000   0.00000   0.00002   0.00002   0.00003
    D9       -0.00001   0.00000  -0.00000   0.00002   0.00002   0.00001
   D10       -3.14154   0.00000  -0.00000   0.00002   0.00002  -3.14152
   D11        3.14155   0.00000  -0.00000   0.00002   0.00002   3.14156
   D12        0.00002   0.00000   0.00000   0.00001   0.00001   0.00003
   D13        0.00007  -0.00000   0.00000  -0.00003  -0.00003   0.00004
   D14       -3.14149  -0.00000  -0.00000  -0.00002  -0.00002  -3.14150
   D15       -3.14159  -0.00000   0.00000  -0.00003  -0.00003   3.14157
   D16        0.00004  -0.00000  -0.00000  -0.00001  -0.00001   0.00003
   D17       -0.00005   0.00000  -0.00000   0.00001   0.00001  -0.00004
   D18        3.14151   0.00000  -0.00000   0.00001   0.00001   3.14153
   D19        3.14152  -0.00000   0.00000  -0.00000  -0.00000   3.14152
   D20       -0.00011   0.00000  -0.00000  -0.00000  -0.00000  -0.00011
   D21       -3.14148   0.00000  -0.00000   0.00004   0.00004  -3.14144
   D22       -0.00109   0.00000   0.00000   0.00013   0.00013  -0.00096
   D23        0.00014   0.00000  -0.00000   0.00006   0.00005   0.00019
   D24        3.14054   0.00000  -0.00000   0.00014   0.00014   3.14068
   D25       -0.00004   0.00000  -0.00000   0.00003   0.00003  -0.00001
   D26       -3.14157   0.00000  -0.00000  -0.00001  -0.00001  -3.14158
   D27       -3.14159   0.00000   0.00000   0.00002   0.00002  -3.14156
   D28        0.00006  -0.00000   0.00000  -0.00001  -0.00001   0.00006
   D29        0.00003  -0.00000   0.00000  -0.00006  -0.00005  -0.00002
   D30        3.14155  -0.00000   0.00000  -0.00002  -0.00001   3.14154
   D31        3.14159  -0.00000   0.00000  -0.00005  -0.00005   3.14154
   D32       -0.00008  -0.00000  -0.00000  -0.00001  -0.00001  -0.00010
   D33       -0.00012  -0.00000   0.00001  -0.00009  -0.00009  -0.00021
   D34        3.14153  -0.00000   0.00000   0.00001   0.00001   3.14153
   D35       -3.14052  -0.00000   0.00000  -0.00018  -0.00017  -3.14069
   D36        0.00113  -0.00000  -0.00000  -0.00007  -0.00007   0.00105
   D37        0.00005   0.00000  -0.00001   0.00009   0.00008   0.00014
   D38        3.14158  -0.00000  -0.00000  -0.00002  -0.00003   3.14156
   D39       -3.14147   0.00000  -0.00000   0.00005   0.00005  -3.14142
   D40        0.00006  -0.00000   0.00000  -0.00006  -0.00006   0.00000
         Item               Value     Threshold  Converged?
 Maximum Force            0.006679     0.000450     NO 
 RMS     Force            0.001301     0.000300     NO 
 Maximum Displacement     0.021859     0.001800     NO 
 RMS     Displacement     0.005129     0.001200     NO 
 Predicted change in Energy=-2.061122D-04
 GradGradGradGradGradGradGradGradGradGradGradGradGradGradGradGradGradGrad

                          Input orientation:                          
 ---------------------------------------------------------------------
 Center     Atomic      Atomic             Coordinates (Angstroms)
 Number     Number       Type             X           Y           Z
 ---------------------------------------------------------------------
      1          6           0       -2.162351    0.695304    0.000007
      2          6           0       -2.145240   -0.736950    0.000055
      3          6           0       -0.933991   -1.457129    0.000035
      4          6           0        0.250698   -0.683012   -0.000026
      5          6           0        0.260257    0.775473   -0.000019
      6          6           0       -0.970263    1.468831    0.000006
      7          7           0        1.558299   -1.078229   -0.000151
      8          6           0        1.621420    1.173839   -0.000000
      9          6           0        2.403341    0.029740    0.000029
     10          1           0        1.869196   -2.036696    0.000574
     11          1           0        1.997517    2.188234   -0.000041
     12          1           0        3.477672   -0.089162    0.000020
     13          1           0       -3.088293   -1.274639    0.000073
     14          1           0       -0.914135   -2.542268    0.000006
     15          1           0       -3.123470    1.200985   -0.000030
     16          1           0       -1.003755    2.553126   -0.000002
 ---------------------------------------------------------------------
                    Distance matrix (angstroms):
                    1          2          3          4          5
     1  C    0.000000
[...]
 ! D9    D(1,2,3,4)              0.0003         -DE/DX =    0.0                 !
 ! D10   D(1,2,3,14)          -179.9961         -DE/DX =    0.0                 !
 ! D11   D(13,2,3,4)           179.999          -DE/DX =    0.0                 !
 ! D12   D(13,2,3,14)            0.0026         -DE/DX =    0.0                 !
 ! D13   D(2,3,4,5)              0.0017         -DE/DX =    0.0                 !
 ! D14   D(2,3,4,7)           -179.9973         -DE/DX =    0.0                 !
 ! D15   D(14,3,4,5)           179.998          -DE/DX =    0.0                 !
 ! D16   D(14,3,4,7)            -0.0009         -DE/DX =    0.0                 !
 ! D17   D(3,4,5,6)             -0.0023         -DE/DX =    0.0                 !
 ! D18   D(3,4,5,8)            179.9964         -DE/DX =    0.0                 !
 ! D19   D(7,4,5,6)            179.9968         -DE/DX =    0.0                 !
 ! D20   D(7,4,5,8)             -0.0045         -DE/DX =    0.0                 !
 ! D21   D(3,4,7,9)           -179.992          -DE/DX =    0.0                 !
 ! D22   D(3,4,7,10)            -0.0399         -DE/DX =    0.0                 !
 ! D23   D(5,4,7,9)              0.0089         -DE/DX =    0.0                 !
 ! D24   D(5,4,7,10)           179.9611         -DE/DX =    0.0                 !
 ! D25   D(4,5,6,1)              0.0009         -DE/DX =    0.0                 !
 ! D26   D(4,5,6,16)          -179.999          -DE/DX =    0.0                 !
 ! D27   D(8,5,6,1)           -179.9973         -DE/DX =    0.0                 !
 ! D28   D(8,5,6,16)             0.0027         -DE/DX =    0.0                 !
 ! D29   D(4,5,8,9)             -0.0015         -DE/DX =    0.0                 !
 ! D30   D(4,5,8,11)           179.9974         -DE/DX =    0.0                 !
 ! D31   D(6,5,8,9)            179.9969         -DE/DX =    0.0                 !
 ! D32   D(6,5,8,11)            -0.0042         -DE/DX =    0.0                 !
 ! D33   D(4,7,9,8)             -0.0101         -DE/DX =    0.0                 !
 ! D34   D(4,7,9,12)          -180.0009         -DE/DX =    0.0                 !
 ! D35   D(10,7,9,8)          -179.9624         -DE/DX =    0.0                 !
 ! D36   D(10,7,9,12)            0.0469         -DE/DX =    0.0                 !
 ! D37   D(5,8,9,7)              0.0069         -DE/DX =    0.0                 !
 ! D38   D(5,8,9,12)           179.9965         -DE/DX =    0.0                 !
 ! D39   D(11,8,9,7)          -179.992          -DE/DX =    0.0                 !
 ! D40   D(11,8,9,12)           -0.0025         -DE/DX =    0.0                 !
 --------------------------------------------------------------------------------
 GradGradGradGradGradGradGradGradGradGradGradGradGradGradGradGradGradGrad

                          Input orientation:                          
 ---------------------------------------------------------------------
 Center     Atomic      Atomic             Coordinates (Angstroms)
 Number     Number       Type             X           Y           Z
 ---------------------------------------------------------------------
      1          6           0       -2.160547    0.696695    0.000008
      2          6           0       -2.139269   -0.733699    0.000056
      3          6           0       -0.931352   -1.457119    0.000043
      4          6           0        0.252688   -0.682523   -0.000013
      5          6           0        0.258756    0.776841   -0.000022
      6          6           0       -0.972972    1.471868   -0.000021
      7          7           0        1.559671   -1.080789   -0.000089
      8          6           0        1.616812    1.172555    0.000002
      9          6           0        2.401184    0.026697    0.000059
     10          1           0        1.871321   -2.039061    0.000459
     11          1           0        1.994666    2.186316   -0.000035
     12          1           0        3.475042   -0.093045    0.000041
     13          1           0       -3.083316   -1.269966    0.000082
     14          1           0       -0.912173   -2.541925    0.000017
     15          1           0       -3.123506    1.198840   -0.000010
     16          1           0       -1.010102    2.555763   -0.000043
 ---------------------------------------------------------------------
                    Distance matrix (angstroms):
                    1          2          3          4          5
     1  C    0.000000
     2  C    1.430552   0.000000
     3  C    2.479887   1.407978   0.000000
     4  C    2.779558   2.392504   1.414902   0.000000
     5  C    2.420630   2.834123   2.531192   1.459377   0.000000
     6  C    1.418178   2.494950   2.929283   2.478638   1.414290
     7  N    4.123041   3.715189   2.519289   1.366316   2.267855
     8  C    3.807215   4.212119   3.661738   2.302640   1.414534
     9  C    4.610672   4.603685   3.647945   2.262528   2.269960
    10  H    4.872404   4.217678   2.862452   2.111912   3.244946
    11  H    4.414155   5.061216   4.672922   3.356296   2.236069
    12  H    5.690655   5.650745   4.612700   3.275828   3.331846
    13  H    2.172386   1.085729   2.160088   3.387331   3.919039
    14  H    3.470893   2.185280   1.084976   2.194146   3.519273
    15  H    1.086020   2.168739   3.443786   3.864998   3.408486
    16  H    2.186243   3.477869   4.013655   3.475793   2.185078
                    6          7          8          9         10
     6  C    0.000000
     7  N    3.595878   0.000000
     8  C    2.607024   2.254068   0.000000
     9  C    3.670620   1.390924   1.388607   0.000000
    10  H    4.518477   1.007676   3.221685   2.132630   0.000000
    11  H    3.052427   3.295936   1.081889   2.197547   4.227177
    12  H    4.715271   2.155060   2.248279   1.080513   2.521686
    13  H    3.459944   4.646839   5.296897   5.635697   5.013974
    14  H    4.014254   2.871399   4.493677   4.192393   2.828553
    15  H    2.167796   5.208537   4.740391   5.647665   5.952504
    16  H    1.084530   4.452891   2.968829   4.246534   5.423560
                   11         12         13         14         15
    11  H    0.000000
    12  H    2.717903   0.000000
    13  H    6.142621   6.663123   0.000000
    14  H    5.550313   5.024407   2.516295   0.000000
    15  H    5.212561   6.723823   2.469133   4.345494   0.000000
    16  H    3.027395   5.208906   4.351370   5.098629   2.511517
                   16
    16  H    0.000000
 Stoichiometry    C8H7N
 Framework group  C1[X(C8H7N)]
 Deg. of freedom    42
 Full point group                 C1      NOp   1
 Largest Abelian subgroup         C1      NOp   1
 Largest concise Abelian subgroup C1      NOp   1
                         Standard orientation:                         
 ---------------------------------------------------------------------
 Center     Atomic      Atomic             Coordinates (Angstroms)
 Number     Number       Type             X           Y           Z
 ---------------------------------------------------------------------
      1          6           0       -2.160419    0.700203   -0.000001
      2          6           0       -2.142095   -0.730232    0.000047
      3          6           0       -0.935675   -1.456146    0.000034
      4          6           0        0.249962   -0.683997   -0.000022
      5          6           0        0.259045    0.775351   -0.000031
      6          6           0       -0.971245    1.472922   -0.000030
      7          7           0        1.556120   -1.084962   -0.000098
      8          6           0        1.617916    1.168259   -0.000007
      9          6           0        2.399919    0.020783    0.000050
     10          1           0        1.865790   -2.043876    0.000450
     11          1           0        1.997862    2.181237   -0.000045
     12          1           0        3.473527   -0.101176    0.000032
     13          1           0       -3.087248   -1.264548    0.000073
     14          1           0       -0.918737   -2.540989    0.000008
     15          1           0       -3.122338    1.204336   -0.000019
     16          1           0       -1.006136    2.556890   -0.000052
 ---------------------------------------------------------------------
 Rotational constants (GHZ):           3.7535482           1.6309093           1.1369199

 **********************************************************************

            Population analysis using the CI Density.

 **********************************************************************

 Orbital symmetries:
       Occupied  (A) (A) (A) (A) (A) (A) (A) (A) (A) (A) (A) (A)
                 (A) (A) (A) (A) (A) (A) (A) (A) (A) (A) (A) (A)
                 (A) (A) (A) (A) (A) (A) (A)
       Virtual   (A) (A) (A) (A) (A) (A) (A) (A) (A) (A) (A) (A)
                 (A) (A) (A) (A) (A) (A) (A) (A) (A) (A) (A) (A)
                 (A) (A) (A) (A) (A) (A) (A) (A) (A) (A) (A) (A)
                 (A) (A) (A) (A) (A) (A) (A) (A) (A) (A) (A) (A)
                 (A) (A) (A) (A) (A) (A) (A) (A) (A) (A) (A) (A)
                 (A) (A) (A) (A) (A) (A) (A) (A) (A) (A) (A) (A)
                 (A) (A) (A) (A) (A) (A) (A) (A) (A) (A) (A) (A)
                 (A) (A) (A) (A) (A) (A) (A) (A) (A) (A) (A) (A)
                 (A) (A) (A) (A) (A) (A) (A) (A) (A) (A) (A) (A)
                 (A) (A) (A) (A) (A) (A) (A) (A) (A) (A) (A) (A)
                 (A) (A) (A) (A) (A) (A) (A) (A) (A) (A) (A) (A)
                 (A) (A) (A) (A) (A) (A) (A) (A) (A) (A) (A) (A)
                 (A) (A) (A) (A) (A) (A) (A) (A) (A) (A)
 The electronic state is 1-A.
 Alpha  occ. eigenvalues --  -14.44072 -10.26232 -10.26206 -10.23212 -10.22760
 Alpha  occ. eigenvalues --  -10.22691 -10.22678 -10.22234 -10.21624  -0.99638
 Alpha  occ. eigenvalues --   -0.84046  -0.79294  -0.73827  -0.72243  -0.62955
 Alpha  occ. eigenvalues --   -0.60145  -0.58281  -0.54021  -0.48934  -0.46921
 Alpha  occ. eigenvalues --   -0.43557  -0.43222  -0.42198  -0.40672  -0.39236
 Alpha  occ. eigenvalues --   -0.35283  -0.33613  -0.32789  -0.27958  -0.21614
 Alpha  occ. eigenvalues --   -0.20265
 Alpha virt. eigenvalues --   -0.03169  -0.00578   0.00634   0.01378   0.01916
 Alpha virt. eigenvalues --    0.03423   0.03580   0.03778   0.05518   0.05728
 Alpha virt. eigenvalues --    0.06322   0.06347   0.08117   0.08520   0.10371
 Alpha virt. eigenvalues --    0.10468   0.10838   0.12246   0.13073   0.13410
 Alpha virt. eigenvalues --    0.15082   0.15339   0.16119   0.16149   0.16822
 Alpha virt. eigenvalues --    0.17926   0.18285   0.18296   0.19181   0.19442
 Alpha virt. eigenvalues --    0.19602   0.19778   0.21393   0.22029   0.22714
 Alpha virt. eigenvalues --    0.23132   0.23465   0.23952   0.25210   0.25773
 Alpha virt. eigenvalues --    0.26749   0.26922   0.27507   0.28849   0.29154
 Alpha virt. eigenvalues --    0.30058   0.31079   0.32499   0.33800   0.35923
 Alpha virt. eigenvalues --    0.36763   0.38974   0.42274   0.44531   0.50466
 Alpha virt. eigenvalues --    0.55857   0.59475   0.67412   0.67527   0.70013
 Alpha virt. eigenvalues --    0.70994   0.72207   0.73040   0.73633   0.73863
 Alpha virt. eigenvalues --    0.75399   0.75438   0.77634   0.79097   0.79274
 Alpha virt. eigenvalues --    0.81127   0.85189   0.89154   0.89800   0.91077
 Alpha virt. eigenvalues --    0.93992   0.94640   0.95346   0.95949   0.98694
 Alpha virt. eigenvalues --    0.99527   1.03013   1.04865   1.06167   1.08852
 Alpha virt. eigenvalues --    1.10942   1.11096   1.16721   1.17611   1.20002
 Alpha virt. eigenvalues --    1.22181   1.23211   1.23923   1.31399   1.31702
 Alpha virt. eigenvalues --    1.33925   1.36224   1.39788   1.40387   1.43461
 Alpha virt. eigenvalues --    1.45538   1.46984   1.49016   1.49311   1.53498
 Alpha virt. eigenvalues --    1.58305   1.63981   1.77989   1.82059   1.88588
 Alpha virt. eigenvalues --    1.88988   1.89948   1.92026   1.98491   1.99387
 Alpha virt. eigenvalues --    2.00651   2.03834   2.05368   2.12422   2.13706
 Alpha virt. eigenvalues --    2.14947   2.18529   2.22294   2.23699   2.25696
 Alpha virt. eigenvalues --    2.26255   2.29738   2.36426   2.40506   2.44661
 Alpha virt. eigenvalues --    2.53230   2.54645   2.62295   2.62624   2.64783
 Alpha virt. eigenvalues --    2.67707   2.71450   2.79098   2.82881   2.83566
 Alpha virt. eigenvalues --    2.95984   2.96747   3.09417   3.22686   3.38390
 Alpha virt. eigenvalues --    4.15540   4.25302   4.30689   4.32910   4.36941
 Alpha virt. eigenvalues --    4.41159   4.48792   4.52910   4.77995
          Condensed to atoms (all electrons):
               1          2          3          4          5          6
     1  C    5.828541   0.284507   0.245236  -0.447585  -0.106177  -0.123817
     2  C    0.284507   5.938246  -0.048998   0.158895  -0.649750   0.696197
     3  C    0.245236  -0.048998  12.293697  -1.402572  -3.399541  -2.840985
     4  C   -0.447585   0.158895  -1.402572  12.231719  -3.601076  -0.841665
     5  C   -0.106177  -0.649750  -3.399541  -3.601076  13.880898   0.184314
     6  C   -0.123817   0.696197  -2.840985  -0.841665   0.184314  12.289258
     7  N   -0.036100   0.010485  -0.542424  -0.371031   0.914415   0.160563
     8  C    0.126607  -0.286878   2.854114   1.900588  -4.495668  -3.913922
     9  C   -0.077452   0.022544  -0.987804  -0.736052   1.653830   0.969623
    10  H   -0.003260  -0.006650  -0.136554  -0.058363   0.165492   0.025251
    11  H    0.001663   0.001104   0.003192   0.035178  -0.008218  -0.001848
    12  H    0.001287   0.000099   0.034804   0.100343  -0.103571  -0.020221
    13  H    0.024290   0.258472   0.010205   0.005735   0.014283  -0.006196
    14  H    0.008373   0.053015   0.223822   0.037587  -0.005263  -0.015558
    15  H    0.271406   0.020176   0.014356  -0.015223   0.026191  -0.017379
    16  H    0.024865   0.006812  -0.021339   0.016654   0.069724   0.225037
               7          8          9         10         11         12
     1  C   -0.036100   0.126607  -0.077452  -0.003260   0.001663   0.001287
     2  C    0.010485  -0.286878   0.022544  -0.006650   0.001104   0.000099
     3  C   -0.542424   2.854114  -0.987804  -0.136554   0.003192   0.034804
     4  C   -0.371031   1.900588  -0.736052  -0.058363   0.035178   0.100343
     5  C    0.914415  -4.495668   1.653830   0.165492  -0.008218  -0.103571
     6  C    0.160563  -3.913922   0.969623   0.025251  -0.001848  -0.020221
     7  N    7.300368  -0.772260   0.555080   0.276905   0.006456  -0.058648
     8  C   -0.772260  11.947263  -1.750804  -0.014107   0.290950   0.057114
     9  C    0.555080  -1.750804   6.350561  -0.011898  -0.025202   0.303292
    10  H    0.276905  -0.014107  -0.011898   0.321622  -0.000077  -0.002115
    11  H    0.006456   0.290950  -0.025202  -0.000077   0.472855  -0.000731
    12  H   -0.058648   0.057114   0.303292  -0.002115  -0.000731   0.461034
    13  H   -0.000473   0.000566   0.001145  -0.000002   0.000000  -0.000000
    14  H   -0.007618  -0.000814   0.004350   0.001907   0.000002   0.000002
    15  H    0.000267   0.008099  -0.000043  -0.000000  -0.000001  -0.000000
    16  H   -0.000886  -0.025382   0.002945   0.000003   0.001300  -0.000001
              13         14         15         16
     1  C    0.024290   0.008373   0.271406   0.024865
     2  C    0.258472   0.053015   0.020176   0.006812
     3  C    0.010205   0.223822   0.014356  -0.021339
     4  C    0.005735   0.037587  -0.015223   0.016654
     5  C    0.014283  -0.005263   0.026191   0.069724
     6  C   -0.006196  -0.015558  -0.017379   0.225037
     7  N   -0.000473  -0.007618   0.000267  -0.000886
     8  C    0.000566  -0.000814   0.008099  -0.025382
     9  C    0.001145   0.004350  -0.000043   0.002945
    10  H   -0.000002   0.001907  -0.000000   0.000003
    11  H    0.000000   0.000002  -0.000001   0.001300
    12  H   -0.000000   0.000002  -0.000000  -0.000001
    13  H    0.489335  -0.003263  -0.003755  -0.000110
    14  H   -0.003263   0.492834  -0.000116   0.000012
    15  H   -0.003755  -0.000116   0.489860  -0.003095
    16  H   -0.000110   0.000012  -0.003095   0.489527
 Mulliken charges:
               1
     1  C   -0.022384
     2  C   -0.458276
     3  C   -0.299209
     4  C   -1.013131
     5  C    1.460118
     6  C   -0.768654
     7  N   -0.435099
     8  C    0.074531
     9  C   -0.274114
    10  H    0.441843
    11  H    0.223377
    12  H    0.227312
    13  H    0.209769
    14  H    0.210729
    15  H    0.209257
    16  H    0.213932
 Sum of Mulliken charges =  -0.00000
 Mulliken charges with hydrogens summed into heavy atoms:
               1
     1  C    0.186873
     2  C   -0.248507
     3  C   -0.088481
     4  C   -1.013131
     5  C    1.460118
     6  C   -0.554722
     7  N    0.006743
     8  C    0.297908
     9  C   -0.046801
 Electronic spatial extent (au):  <R**2>=           1022.5798
 Charge=             -0.0000 electrons
 Dipole moment (field-independent basis, Debye):
    X=              2.0799    Y=             -1.4293    Z=              0.0004  Tot=              2.5236
 Quadrupole moment (field-independent basis, Debye-Ang):
   XX=            -45.5299   YY=            -45.6888   ZZ=            -60.1850
   XY=             -3.0523   XZ=              0.0009   YZ=             -0.0015
 Traceless Quadrupole moment (field-independent basis, Debye-Ang):
   XX=              4.9380   YY=              4.7791   ZZ=             -9.7171
   XY=             -3.0523   XZ=              0.0009   YZ=             -0.0015
 Octapole moment (field-independent basis, Debye-Ang**2):
  XXX=             16.2686  YYY=             -9.5218  ZZZ=             -0.0025  XYY=             10.9290
  XXY=             -7.1474  XXZ=              0.0006  XZZ=              2.9718  YZZ=             -1.3548
  YYZ=              0.0014  XYZ=             -0.0034
 Hexadecapole moment (field-independent basis, Debye-Ang**3):
 XXXX=           -834.1558 YYYY=           -392.5476 ZZZZ=            -82.0599 XXXY=            -20.2008
 XXXZ=             -0.0031 YYYX=            -19.0050 YYYZ=             -0.0009 ZZZX=             -0.0025
 ZZZY=              0.0066 XXYY=           -200.4392 XXZZ=           -200.0741 YYZZ=           -103.2035
 XXYZ=             -0.0040 YYXZ=              0.0070 ZZXY=             -3.3566
 N-N= 3.972920617730D+02 E-N=-1.636454582205D+03  KE= 3.600091827820D+02
 Unable to Open any file for archive entry.
 1\1\GINC-EXP-2-07\FOpt\RHSEH1PBE TD-FC\6-31+G(d)\C8H7N1\SCAPARAS\14-Ju
 n-2021\0\\# td= (nstates=6, root=2) HSEH1PBE/6-31+G* Opt density=curre
 nt\\FuncsHSEH1PBE-V-2nd\\0,1\C,-2.1605471164,0.6966950492,0.0000081598
 \C,-2.1392691036,-0.7336985577,0.0000560807\C,-0.9313515648,-1.4571192
 847,0.0000434743\C,0.2526876221,-0.6825232248,-0.0000132338\C,0.258755
 8164,0.7768407626,-0.0000217048\C,-0.9729719996,1.4718684731,-0.000021
 1546\N,1.5596708161,-1.0807890035,-0.0000885654\C,1.61681249,1.1725547
 242,0.0000021269\C,2.4011844529,0.026696521,0.0000591292\H,1.871321275
 9,-2.0390611782,0.0004591382\H,1.9946660829,2.1863155952,-0.0000354033
 \H,3.4750416431,-0.0930450422,0.0000413104\H,-3.0833162467,-1.26996623
 13,0.0000823315\H,-0.9121731302,-2.5419254742,0.0000170065\H,-3.123506
 0452,1.1988400205,-0.0000099954\H,-1.010101993,2.5557628505,-0.0000427
 \\Version=AS64L-G16RevC.01\State=1-A\HF=-363.429722\RMSD=3.328e-09\RMS
 F=1.020e-04\Dipole=0.8182924,-0.5623242,0.0001412\Quadrupole=3.6712737
 ,3.5531577,-7.2244314,-2.2693055,0.0006981,-0.0010838\PG=C01 [X(C8H7N1
 )]\\@
 The archive entry for this job was punched.


 FIREWORKS ENDED
 AND SPECTATORS GONE AWAY....
 AH, HOW VAST AND DARK
                     SHIKI
 Job cpu time:       0 days  2 hours  1 minutes 32.1 seconds.
 Elapsed time:       0 days  0 hours 31 minutes  5.5 seconds.
 File lengths (MBytes):  RWF=    238 Int=      0 D2E=      0 Chk=     11 Scr=      1
 Normal termination of Gaussian 16 at Mon Jun 14 11:28:43 2021.
