 Entering Gaussian System, Link 0=/cm/shared/apps/spack/cpu/opt/spack/linux-centos8-zen/gcc-8.3.1/gaussian-16.C.01-po5bqktfeugvmjyga3v7eigbecnokxng/g16/g16
 Initial command:
 /cm/shared/apps/spack/cpu/opt/spack/linux-centos8-zen/gcc-8.3.1/gaussian-16.C.01-po5bqktfeugvmjyga3v7eigbecnokxng/g16/l1.exe "/scratch/cwaldt/job_3575954/Gau-25986.inp" -scrdir="/scratch/cwaldt/job_3575954/"
 Entering Link 1 = /cm/shared/apps/spack/cpu/opt/spack/linux-centos8-zen/gcc-8.3.1/gaussian-16.C.01-po5bqktfeugvmjyga3v7eigbecnokxng/g16/l1.exe PID=     25987.
  
 Copyright (c) 1988-2019, Gaussian, Inc.  All Rights Reserved.
  
 This is part of the Gaussian(R) 16 program.  It is based on
 the Gaussian(R) 09 system (copyright 2009, Gaussian, Inc.),
 the Gaussian(R) 03 system (copyright 2003, Gaussian, Inc.),
 the Gaussian(R) 98 system (copyright 1998, Gaussian, Inc.),
 the Gaussian(R) 94 system (copyright 1995, Gaussian, Inc.),
 the Gaussian 92(TM) system (copyright 1992, Gaussian, Inc.),
 the Gaussian 90(TM) system (copyright 1990, Gaussian, Inc.),
 the Gaussian 88(TM) system (copyright 1988, Gaussian, Inc.),
 the Gaussian 86(TM) system (copyright 1986, Carnegie Mellon
 University), and the Gaussian 82(TM) system (copyright 1983,
 Carnegie Mellon University). Gaussian is a federally registered
 trademark of Gaussian, Inc.
  
 This software contains proprietary and confidential information,
 including trade secrets, belonging to Gaussian, Inc.
  
 This software is provided under written license and may be
 used, copied, transmitted, or stored only in accord with that
 written license.
  
 The following legend is applicable only to US Government
 contracts under FAR:
  
                    RESTRICTED RIGHTS LEGEND
  
 Use, reproduction and disclosure by the US Government is
 subject to restrictions as set forth in subparagraphs (a)
 and (c) of the Commercial Computer Software - Restricted
 Rights clause in FAR 52.227-19.
  
 Gaussian, Inc.
 340 Quinnipiac St., Bldg. 40, Wallingford CT 06492
  
  
 ---------------------------------------------------------------
 Warning -- This program may not be used in any manner that
 competes with the business of Gaussian, Inc. or will provide
 assistance to any competitor of Gaussian, Inc.  The licensee
 of this program is prohibited from giving any competitor of
 Gaussian, Inc. access to this program.  By using this program,
 the user acknowledges that Gaussian, Inc. is engaged in the
 business of creating and licensing software in the field of
 computational chemistry and represents and warrants to the
 licensee that it is not a competitor of Gaussian, Inc. and that
 it will not use this program in any manner prohibited above.
 ---------------------------------------------------------------
  

 Cite this work as:
 Gaussian 16, Revision C.01,
 M. J. Frisch, G. W. Trucks, H. B. Schlegel, G. E. Scuseria, 
 M. A. Robb, J. R. Cheeseman, G. Scalmani, V. Barone, 
 G. A. Petersson, H. Nakatsuji, X. Li, M. Caricato, A. V. Marenich, 
 J. Bloino, B. G. Janesko, R. Gomperts, B. Mennucci, H. P. Hratchian, 
 J. V. Ortiz, A. F. Izmaylov, J. L. Sonnenberg, D. Williams-Young, 
 F. Ding, F. Lipparini, F. Egidi, J. Goings, B. Peng, A. Petrone, 
 T. Henderson, D. Ranasinghe, V. G. Zakrzewski, J. Gao, N. Rega, 
 G. Zheng, W. Liang, M. Hada, M. Ehara, K. Toyota, R. Fukuda, 
 J. Hasegawa, M. Ishida, T. Nakajima, Y. Honda, O. Kitao, H. Nakai, 
 T. Vreven, K. Throssell, J. A. Montgomery, Jr., J. E. Peralta, 
 F. Ogliaro, M. J. Bearpark, J. J. Heyd, E. N. Brothers, K. N. Kudin, 
 V. N. Staroverov, T. A. Keith, R. Kobayashi, J. Normand, 
 K. Raghavachari, A. P. Rendell, J. C. Burant, S. S. Iyengar, 
 J. Tomasi, M. Cossi, J. M. Millam, M. Klene, C. Adamo, R. Cammi, 
 J. W. Ochterski, R. L. Martin, K. Morokuma, O. Farkas, 
 J. B. Foresman, and D. J. Fox, Gaussian, Inc., Wallingford CT, 2019.
 
 ******************************************
 Gaussian 16:  AS64L-G16RevC.01  3-Jul-2019
                23-Jun-2021 
 ******************************************
 %nprocshared=4
 Will use up to    4 processors via shared memory.
 %chk=FuncsCIS-V-3rd.chk
 %Mem=3GB
 ---------------------------------------------------------
 # td= (nstates=6, root=3) CIS/6-31+G* Opt density=current
 ---------------------------------------------------------
 1/18=20,19=15,38=1/1,3;
 2/9=110,12=2,17=6,18=5,40=1/2;
 3/5=1,6=6,7=11,11=9,25=1,30=1,71=1/1,2,3,8;
 4//1;
 5/5=2,38=5/2;
 8/6=1,10=2,107=3,108=6/1;
 9/8=3,15=2,41=6,42=1/14;
 10/5=4,28=3/2;
 6/7=2,8=2,9=2,10=2,22=-1/1;
 7/12=6,13=5,14=3/1,2,3,16;
 1/18=20,19=15/3(2);
 2/9=110/2;
 99//99;
 2/9=110/2;
 3/5=1,6=6,7=11,11=9,25=1,30=1,71=1/1,2,3,8;
 4/5=5,16=3,69=1/1;
 5/5=2,38=5/2;
 8/6=1,10=2,107=3,108=6/1;
 9/8=3,15=2,41=6,42=1,49=4/14;
 10/5=4,28=3/2;
 7/12=6,13=5,14=3/1,2,3,16;
 1/18=20,19=15/3(-8);
 2/9=110/2;
 6/7=2,8=2,9=2,10=2,22=-1/1;
 99/9=10/99;
 --------------
 FuncsCIS-V-3rd
 --------------
 Symbolic Z-matrix:
 Charge =  0 Multiplicity = 1
 C                    -2.15106   0.68921   0.00009 
 C                    -2.12793  -0.71582   0.00008 
 C                    -0.9323   -1.4131   -0.00001 
 C                     0.24691  -0.6702   -0.00004 
 C                     0.24819   0.7483    0. 
 C                    -0.97947   1.42353   0.00003 
 N                     1.56177  -1.07759  -0.00029 
 C                     1.62013   1.1629   -0.00016 
 C                     2.38201   0.03081   0.00025 
 H                     1.87632  -2.03001   0.00044 
 H                     1.99217   2.17301  -0.00035 
 H                     3.45255  -0.08243   0.00041 
 H                    -3.06159  -1.26202   0.00009 
 H                    -0.91725  -2.49534  -0.00007 
 H                    -3.1042    1.20079   0.00009 
 H                    -1.00935   2.50542  -0.00002 
 

 GradGradGradGradGradGradGradGradGradGradGradGradGradGradGradGradGradGrad
 Berny optimization.
 Initialization pass.
                           ----------------------------
                           !    Initial Parameters    !
                           ! (Angstroms and Degrees)  !
 --------------------------                            --------------------------
 ! Name  Definition              Value          Derivative Info.                !
 --------------------------------------------------------------------------------
 ! R1    R(1,2)                  1.4052         estimate D2E/DX2                !
 ! R2    R(1,6)                  1.3827         estimate D2E/DX2                !
 ! R3    R(1,15)                 1.0818         estimate D2E/DX2                !
 ! R4    R(2,3)                  1.3841         estimate D2E/DX2                !
 ! R5    R(2,13)                 1.0817         estimate D2E/DX2                !
 ! R6    R(3,4)                  1.3937         estimate D2E/DX2                !
 ! R7    R(3,14)                 1.0823         estimate D2E/DX2                !
 ! R8    R(4,5)                  1.4185         estimate D2E/DX2                !
 ! R9    R(4,7)                  1.3765         estimate D2E/DX2                !
 ! R10   R(5,6)                  1.4011         estimate D2E/DX2                !
 ! R11   R(5,8)                  1.4332         estimate D2E/DX2                !
 ! R12   R(6,16)                 1.0823         estimate D2E/DX2                !
 ! R13   R(7,9)                  1.3789         estimate D2E/DX2                !
 ! R14   R(7,10)                 1.003          estimate D2E/DX2                !
 ! R15   R(8,9)                  1.3646         estimate D2E/DX2                !
 ! R16   R(8,11)                 1.0764         estimate D2E/DX2                !
 ! R17   R(9,12)                 1.0765         estimate D2E/DX2                !
 ! A1    A(2,1,6)              121.1349         estimate D2E/DX2                !
 ! A2    A(2,1,15)             119.1671         estimate D2E/DX2                !
 ! A3    A(6,1,15)             119.698          estimate D2E/DX2                !
 ! A4    A(1,2,3)              121.1938         estimate D2E/DX2                !
 ! A5    A(1,2,13)             119.3846         estimate D2E/DX2                !
 ! A6    A(3,2,13)             119.4217         estimate D2E/DX2                !
 ! A7    A(2,3,4)              117.5387         estimate D2E/DX2                !
 ! A8    A(2,3,14)             121.0469         estimate D2E/DX2                !
 ! A9    A(4,3,14)             121.4144         estimate D2E/DX2                !
 ! A10   A(3,4,5)              122.2626         estimate D2E/DX2                !
 ! A11   A(3,4,7)              130.5743         estimate D2E/DX2                !
 ! A12   A(5,4,7)              107.163          estimate D2E/DX2                !
 ! A13   A(4,5,6)              118.7594         estimate D2E/DX2                !
 ! A14   A(4,5,8)              106.8666         estimate D2E/DX2                !
 ! A15   A(6,5,8)              134.374          estimate D2E/DX2                !
 ! A16   A(1,6,5)              119.1105         estimate D2E/DX2                !
 ! A17   A(1,6,16)             120.4966         estimate D2E/DX2                !
 ! A18   A(5,6,16)             120.3928         estimate D2E/DX2                !
 ! A19   A(4,7,9)              109.2874         estimate D2E/DX2                !
 ! A20   A(4,7,10)             125.4909         estimate D2E/DX2                !
 ! A21   A(9,7,10)             125.2217         estimate D2E/DX2                !
 ! A22   A(5,8,9)              107.125          estimate D2E/DX2                !
 ! A23   A(5,8,11)             127.0344         estimate D2E/DX2                !
 ! A24   A(9,8,11)             125.8405         estimate D2E/DX2                !
 ! A25   A(7,9,8)              109.5578         estimate D2E/DX2                !
 ! A26   A(7,9,12)             120.4645         estimate D2E/DX2                !
 ! A27   A(8,9,12)             129.9776         estimate D2E/DX2                !
 ! D1    D(6,1,2,3)             -0.0008         estimate D2E/DX2                !
 ! D2    D(6,1,2,13)          -179.9981         estimate D2E/DX2                !
 ! D3    D(15,1,2,3)           179.996          estimate D2E/DX2                !
 ! D4    D(15,1,2,13)           -0.0013         estimate D2E/DX2                !
 ! D5    D(2,1,6,5)             -0.0018         estimate D2E/DX2                !
 ! D6    D(2,1,6,16)           179.9965         estimate D2E/DX2                !
 ! D7    D(15,1,6,5)          -179.9986         estimate D2E/DX2                !
 ! D8    D(15,1,6,16)           -0.0003         estimate D2E/DX2                !
 ! D9    D(1,2,3,4)              0.002          estimate D2E/DX2                !
 ! D10   D(1,2,3,14)          -179.9968         estimate D2E/DX2                !
 ! D11   D(13,2,3,4)           179.9992         estimate D2E/DX2                !
 ! D12   D(13,2,3,14)            0.0005         estimate D2E/DX2                !
 ! D13   D(2,3,4,5)             -0.0005         estimate D2E/DX2                !
 ! D14   D(2,3,4,7)           -179.9911         estimate D2E/DX2                !
 ! D15   D(14,3,4,5)           179.9982         estimate D2E/DX2                !
 ! D16   D(14,3,4,7)             0.0076         estimate D2E/DX2                !
 ! D17   D(3,4,5,6)             -0.002          estimate D2E/DX2                !
 ! D18   D(3,4,5,8)           -179.9955         estimate D2E/DX2                !
 ! D19   D(7,4,5,6)            179.9905         estimate D2E/DX2                !
 ! D20   D(7,4,5,8)             -0.003          estimate D2E/DX2                !
 ! D21   D(3,4,7,9)           -179.98           estimate D2E/DX2                !
 ! D22   D(3,4,7,10)            -0.0649         estimate D2E/DX2                !
 ! D23   D(5,4,7,9)              0.0284         estimate D2E/DX2                !
 ! D24   D(5,4,7,10)           179.9434         estimate D2E/DX2                !
 ! D25   D(4,5,6,1)              0.0031         estimate D2E/DX2                !
 ! D26   D(4,5,6,16)          -179.9951         estimate D2E/DX2                !
 ! D27   D(8,5,6,1)            179.9944         estimate D2E/DX2                !
 ! D28   D(8,5,6,16)            -0.0038         estimate D2E/DX2                !
 ! D29   D(4,5,8,9)             -0.0234         estimate D2E/DX2                !
 ! D30   D(4,5,8,11)           179.9883         estimate D2E/DX2                !
 ! D31   D(6,5,8,9)            179.9846         estimate D2E/DX2                !
 ! D32   D(6,5,8,11)            -0.0037         estimate D2E/DX2                !
 ! D33   D(4,7,9,8)             -0.0444         estimate D2E/DX2                !
 ! D34   D(4,7,9,12)           179.9847         estimate D2E/DX2                !
 ! D35   D(10,7,9,8)          -179.9597         estimate D2E/DX2                !
 ! D36   D(10,7,9,12)            0.0693         estimate D2E/DX2                !
 ! D37   D(5,8,9,7)              0.0414         estimate D2E/DX2                !
 ! D38   D(5,8,9,12)          -179.9913         estimate D2E/DX2                !
 ! D39   D(11,8,9,7)          -179.9702         estimate D2E/DX2                !
 ! D40   D(11,8,9,12)           -0.0029         estimate D2E/DX2                !
 --------------------------------------------------------------------------------
 Trust Radius=3.00D-01 FncErr=1.00D-07 GrdErr=1.00D-07 EigMax=2.50D+02 EigMin=1.00D-04
 Number of steps in this run=     94 maximum allowed number of steps=    100.
 GradGradGradGradGradGradGradGradGradGradGradGradGradGradGradGradGradGrad

                          Input orientation:                          
 ---------------------------------------------------------------------
 Center     Atomic      Atomic             Coordinates (Angstroms)
 Number     Number       Type             X           Y           Z
 ---------------------------------------------------------------------
      1          6           0       -2.151063    0.689208    0.000088
      2          6           0       -2.127927   -0.715818    0.000075
      3          6           0       -0.932297   -1.413100   -0.000011
      4          6           0        0.246911   -0.670201   -0.000042
      5          6           0        0.248193    0.748299    0.000000
      6          6           0       -0.979474    1.423526    0.000032
      7          7           0        1.561774   -1.077592   -0.000285
      8          6           0        1.620133    1.162900   -0.000157
      9          6           0        2.382013    0.030806    0.000248
     10          1           0        1.876315   -2.030011    0.000438
     11          1           0        1.992173    2.173010   -0.000348
     12          1           0        3.452549   -0.082425    0.000408
     13          1           0       -3.061594   -1.262020    0.000088
     14          1           0       -0.917252   -2.495342   -0.000073
     15          1           0       -3.104203    1.200785    0.000090
     16          1           0       -1.009348    2.505421   -0.000015
 ---------------------------------------------------------------------
                    Distance matrix (angstroms):
                    1          2          3          4          5
     1  C    0.000000
     2  C    1.405216   0.000000
     3  C    2.430039   1.384100   0.000000
     4  C    2.756496   2.375276   1.393711   0.000000
     5  C    2.399984   2.790983   2.462763   1.418501   0.000000
     6  C    1.382694   2.428114   2.837018   2.426461   1.401106
     7  N    4.111781   3.707395   2.516536   1.376529   2.249305
     8  C    3.800829   4.192557   3.626386   2.290414   1.433218
     9  C    4.580641   4.571324   3.615178   2.247236   2.251218
    10  H    4.859416   4.214387   2.875566   2.122273   3.220216
    11  H    4.400917   5.031953   4.627387   3.336134   2.251948
    12  H    5.656491   5.616307   4.582311   3.259079   3.310287
    13  H    2.153220   1.081698   2.134650   3.361020   3.872476
    14  H    3.415208   2.152310   1.082347   2.164813   3.446661
    15  H    1.081752   2.150926   3.398466   3.838040   3.382795
    16  H    2.145261   3.409927   3.919278   3.415079   2.160761
                    6          7          8          9         10
     6  C    0.000000
     7  N    3.565604   0.000000
     8  C    2.612639   2.241252   0.000000
     9  C    3.638580   1.378890   1.364587   0.000000
    10  H    4.481345   1.003015   3.203172   2.121956   0.000000
    11  H    3.064704   3.278972   1.076446   2.177387   4.204618
    12  H    4.680888   2.136677   2.215532   1.076508   2.505515
    13  H    3.398144   4.627045   5.272457   5.595021   4.997275
    14  H    3.919362   2.855798   4.452085   4.155307   2.832058
    15  H    2.136372   5.192528   4.724488   5.609583   5.936632
    16  H    1.082307   4.410062   2.952378   4.198220   5.375611
                   11         12         13         14         15
    11  H    0.000000
    12  H    2.686947   0.000000
    13  H    6.110646   6.620083   0.000000
    14  H    5.500751   4.991726   2.473719   0.000000
    15  H    5.188282   6.681139   2.463174   4.294661   0.000000
    16  H    3.019872   5.158049   4.290143   5.001611   2.467892
                   16
    16  H    0.000000
 Stoichiometry    C8H7N
 Framework group  C1[X(C8H7N)]
 Deg. of freedom    42
 Full point group                 C1      NOp   1
 Largest Abelian subgroup         C1      NOp   1
 Largest concise Abelian subgroup C1      NOp   1
                         Standard orientation:                         
 ---------------------------------------------------------------------
 Center     Atomic      Atomic             Coordinates (Angstroms)
 Number     Number       Type             X           Y           Z
 ---------------------------------------------------------------------
      1          6           0       -2.151063    0.689208    0.000088
      2          6           0       -2.127927   -0.715818    0.000075
      3          6           0       -0.932297   -1.413100   -0.000011
      4          6           0        0.246911   -0.670201   -0.000042
      5          6           0        0.248193    0.748299    0.000000
      6          6           0       -0.979474    1.423526    0.000032
      7          7           0        1.561774   -1.077592   -0.000285
      8          6           0        1.620133    1.162900   -0.000157
      9          6           0        2.382013    0.030806    0.000248
     10          1           0        1.876315   -2.030011    0.000438
     11          1           0        1.992173    2.173010   -0.000348
     12          1           0        3.452549   -0.082425    0.000408
     13          1           0       -3.061594   -1.262020    0.000088
     14          1           0       -0.917252   -2.495342   -0.000073
     15          1           0       -3.104203    1.200785    0.000090
     16          1           0       -1.009348    2.505421   -0.000015
 ---------------------------------------------------------------------
 Rotational constants (GHZ):           3.9080822           1.6429452           1.1566805
 Standard basis: 6-31+G(d) (6D, 7F)
 There are   185 symmetry adapted cartesian basis functions of A   symmetry.
 There are   185 symmetry adapted basis functions of A   symmetry.
   185 basis functions,   316 primitive gaussians,   185 cartesian basis functions
    31 alpha electrons       31 beta electrons
       nuclear repulsion energy       401.3368668897 Hartrees.
 NAtoms=   16 NActive=   16 NUniq=   16 SFac= 1.00D+00 NAtFMM=   60 NAOKFM=F Big=F
 Integral buffers will be    131072 words long.
 Raffenetti 1 integral format.
 Two-electron integral symmetry is turned on.
 One-electron integrals computed using PRISM.
 NBasis=   185 RedAO= T EigKep=  1.26D-06  NBF=   185
 NBsUse=   185 1.00D-06 EigRej= -1.00D+00 NBFU=   185
 ExpMin= 4.38D-02 ExpMax= 4.17D+03 ExpMxC= 6.27D+02 IAcc=3 IRadAn=         5 AccDes= 0.00D+00
 Harris functional with IExCor=  205 and IRadAn=       5 diagonalized for initial guess.
 HarFok:  IExCor=  205 AccDes= 0.00D+00 IRadAn=         5 IDoV= 1 UseB2=F ITyADJ=14
 ICtDFT=  3500011 ScaDFX=  1.000000  1.000000  1.000000  1.000000
 FoFCou: FMM=F IPFlag=           0 FMFlag=      100000 FMFlg1=           0
         NFxFlg=           0 DoJE=T BraDBF=F KetDBF=T FulRan=T
         wScrn=  0.000000 ICntrl=       500 IOpCl=  0 I1Cent=   200000004 NGrid=           0
         NMat0=    1 NMatS0=      1 NMatT0=    0 NMatD0=    1 NMtDS0=    0 NMtDT0=    0
 Petite list used in FoFCou.
 Keep R1 ints in memory in canonical form, NReq=151233468.
 Requested convergence on RMS density matrix=1.00D-08 within 128 cycles.
 Requested convergence on MAX density matrix=1.00D-06.
 Requested convergence on             energy=1.00D-06.
 No special actions if energy rises.
 SCF Done:  E(RHF) =  -361.478205206     A.U. after   17 cycles
            NFock= 17  Conv=0.62D-08     -V/T= 2.0017
 ExpMin= 4.38D-02 ExpMax= 4.17D+03 ExpMxC= 6.27D+02 IAcc=3 IRadAn=         5 AccDes= 0.00D+00
 HarFok:  IExCor=  205 AccDes= 0.00D+00 IRadAn=         5 IDoV=-2 UseB2=F ITyADJ=14
 ICtDFT= 12500011 ScaDFX=  1.000000  1.000000  1.000000  1.000000
 Range of M.O.s used for correlation:    10   185
 NBasis=   185 NAE=    31 NBE=    31 NFC=     9 NFV=     0
 NROrb=    176 NOA=    22 NOB=    22 NVA=   154 NVB=   154

 **** Warning!!: The largest alpha MO coefficient is  0.23571798D+03

 Orbital symmetries:
       Occupied  (A) (A) (A) (A) (A) (A) (A) (A) (A) (A) (A) (A)
                 (A) (A) (A) (A) (A) (A) (A) (A) (A) (A) (A) (A)
                 (A) (A) (A) (A) (A) (A) (A)
       Virtual   (A) (A) (A) (A) (A) (A) (A) (A) (A) (A) (A) (A)
                 (A) (A) (A) (A) (A) (A) (A) (A) (A) (A) (A) (A)
                 (A) (A) (A) (A) (A) (A) (A) (A) (A) (A) (A) (A)
                 (A) (A) (A) (A) (A) (A) (A) (A) (A) (A) (A) (A)
                 (A) (A) (A) (A) (A) (A) (A) (A) (A) (A) (A) (A)
                 (A) (A) (A) (A) (A) (A) (A) (A) (A) (A) (A) (A)
                 (A) (A) (A) (A) (A) (A) (A) (A) (A) (A) (A) (A)
                 (A) (A) (A) (A) (A) (A) (A) (A) (A) (A) (A) (A)
                 (A) (A) (A) (A) (A) (A) (A) (A) (A) (A) (A) (A)
                 (A) (A) (A) (A) (A) (A) (A) (A) (A) (A) (A) (A)
                 (A) (A) (A) (A) (A) (A) (A) (A) (A) (A) (A) (A)
                 (A) (A) (A) (A) (A) (A) (A) (A) (A) (A) (A) (A)
                 (A) (A) (A) (A) (A) (A) (A) (A) (A) (A)
    24 initial guesses have been made.
 Convergence on wavefunction:    0.000001000000000
 Iteration     1 Dimension    24 NMult     0 NNew     24
 CISAX will form    24 AO SS matrices at one time.
 New state      1 was old state      4
 New state      3 was old state      1
 New state      4 was old state      6
 New state      5 was old state      8
 New state      6 was old state      7
 Iteration     2 Dimension    48 NMult    24 NNew     24
 New state      1 was old state      3
 New state      2 was old state      1
 New state      3 was old state      2
 Iteration     3 Dimension    54 NMult    48 NNew      6
 Iteration     4 Dimension    60 NMult    54 NNew      6
 Iteration     5 Dimension    66 NMult    60 NNew      6
 Iteration     6 Dimension    72 NMult    66 NNew      6
 Iteration     7 Dimension    78 NMult    72 NNew      6
 Iteration     8 Dimension    84 NMult    78 NNew      6
 Iteration     9 Dimension    90 NMult    84 NNew      6
 Iteration    10 Dimension    96 NMult    90 NNew      6
 Iteration    11 Dimension    99 NMult    96 NNew      3
 ***********************************************************************
 Excited states from <AA,BB:AA,BB> singles matrix:
 ***********************************************************************
 
 Ground to excited state transition densities written to RWF  633
 Ground to excited state transition electric dipole moments (Au):
       state          X           Y           Z        Dip. S.      Osc.
         1         1.0675     -0.5382      0.0012      1.4291      0.1959
         2         0.0041     -0.0018     -0.2758      0.0761      0.0106
         3         0.4077      0.4207      0.0002      0.3432      0.0480
         4        -0.0002      0.0000     -0.1565      0.0245      0.0037
         5         0.0001     -0.0000      0.0065      0.0000      0.0000
         6         0.0005      0.0001      0.1037      0.0108      0.0017
 Ground to excited state transition velocity dipole moments (Au):
       state          X           Y           Z        Dip. S.      Osc.
         1        -0.0603      0.0142     -0.0001      0.0038      0.0124
         2        -0.0002      0.0001      0.0294      0.0009      0.0028
         3        -0.0298      0.0002     -0.0000      0.0009      0.0028
         4         0.0000     -0.0000      0.0456      0.0021      0.0062
         5        -0.0000      0.0000     -0.0047      0.0000      0.0001
         6        -0.0000      0.0000     -0.0230      0.0005      0.0015
 Ground to excited state transition magnetic dipole moments (Au):
       state          X           Y           Z
         1        -0.0007      0.0007      0.0453
         2         0.1470     -0.1862      0.0003
         3         0.0000      0.0002      0.1931
         4         0.1194     -0.3938     -0.0001
         5         0.0481     -0.3228     -0.0001
         6         0.3871      0.0816      0.0005
 Ground to excited state transition velocity quadrupole moments (Au):
       state          XX          YY          ZZ          XY          XZ          YZ
         1        -0.1549      0.1480     -0.0484      0.0407     -0.0006     -0.0002
         2        -0.0008      0.0006     -0.0001      0.0002      0.1675      0.0662
         3        -0.1773     -0.0199     -0.0194      0.0243     -0.0001     -0.0000
         4        -0.0002      0.0000     -0.0000      0.0000      0.3458      0.1263
         5        -0.0002      0.0001     -0.0000     -0.0000      0.3804      0.1578
         6        -0.0000     -0.0001      0.0001      0.0002      0.0200      0.2802
 <0|del|b> * <b|rxdel|0> + <0|del|b> * <b|delr+rdel|0>
 Rotatory Strengths (R) in cgs (10**-40 erg-esu-cm/Gauss)
       state          XX          YY          ZZ    R(velocity)    E-M Angle
         1         0.0190      0.0945      0.0470      0.0535       90.00
         2        -0.0260     -0.0842     -0.0358     -0.0487       90.00
         3        -0.0006      0.0005     -0.0025     -0.0009       90.00
         4        -0.0060     -0.0051      0.0001     -0.0037       90.00
         5         0.0001     -0.0084      0.0048     -0.0012       90.00
         6        -0.0253     -0.0340     -0.0019     -0.0204       90.00
 1/2[<0|r|b>*<b|rxdel|0> + (<0|rxdel|b>*<b|r|0>)*]
 Rotatory Strengths (R) in cgs (10**-40 erg-esu-cm/Gauss)
       state          XX          YY          ZZ     R(length)
         1         0.5083      0.2735     -0.0380      0.2480
         2        -0.4240     -0.2351      0.0515     -0.2025
         3        -0.0044     -0.0670     -0.0270     -0.0328
         4         0.0162      0.0016     -0.0160      0.0006
         5        -0.0024     -0.0093      0.0004     -0.0038
         6        -0.1291     -0.0070     -0.0381     -0.0580
  1/2[<0|del|b>*<b|r|0> + (<0|r|b>*<b|del|0>)*] (Au)
       state          X           Y           Z        Dip. S.   Osc.(frdel)
         1        -0.0644     -0.0076     -0.0000      0.0720      0.0480
         2        -0.0000     -0.0000     -0.0081      0.0081      0.0054
         3        -0.0121      0.0001     -0.0000      0.0121      0.0080
         4        -0.0000     -0.0000     -0.0071      0.0071      0.0048
         5        -0.0000     -0.0000     -0.0000      0.0000      0.0000
         6        -0.0000      0.0000     -0.0024      0.0024      0.0016

 Excitation energies and oscillator strengths:
 
 Excited State   1:      Singlet-A      5.5963 eV  221.55 nm  f=0.1959  <S**2>=0.000
      30 -> 42        -0.17836
      30 -> 43         0.19306
      31 -> 36         0.56609
      31 -> 40        -0.11438
      31 -> 42         0.12290
 
 Excited State   2:      Singlet-A      5.6673 eV  218.77 nm  f=0.0106  <S**2>=0.000
      29 -> 32         0.11323
      31 -> 32         0.64321
      31 -> 34        -0.10579
      31 -> 41        -0.10366
 
 Excited State   3:      Singlet-A      5.7123 eV  217.05 nm  f=0.0480  <S**2>=0.000
      30 -> 36         0.51211
      30 -> 40        -0.12747
      30 -> 42         0.18033
      30 -> 43         0.10510
      31 -> 42         0.21149
      31 -> 43        -0.22116
      31 -> 44         0.13112
      31 -> 54         0.10111
 This state for optimization and/or second-order correction.
 Total Energy, E(CIS/TDA) =  -361.268280531    
 Copying the excited state density for this state as the 1-particle RhoCI density.
 
 Excited State   4:      Singlet-A      6.1216 eV  202.53 nm  f=0.0037  <S**2>=0.000
      30 -> 32         0.49361
      30 -> 33        -0.16848
      31 -> 33         0.37680
 
 Excited State   5:      Singlet-A      6.2611 eV  198.02 nm  f=0.0000  <S**2>=0.000
      30 -> 32        -0.33594
      30 -> 33         0.11994
      30 -> 34         0.12690
      31 -> 32        -0.12606
      31 -> 33         0.47120
      31 -> 34        -0.23826
 
 Excited State   6:      Singlet-A      6.3400 eV  195.56 nm  f=0.0017  <S**2>=0.000
      31 -> 32         0.10738
      31 -> 33         0.25990
      31 -> 34         0.55829
      31 -> 35         0.10337
      31 -> 41         0.16119
 SavETr:  write IOETrn=   770 NScale= 10 NData=  16 NLR=1 NState=    6 LETran=     118.
          IDoAtm=1111111111111111
          Differentiating once with respect to electric field.
                with respect to dipole field.
          Differentiating once with respect to nuclear coordinates.
 Keep R1 ints in memory in canonical form, NReq=151235562.
          There are     1 degrees of freedom in the 1st order CPHF.  IDoFFX=0 NUNeed=     1.
 LinEq1:  Iter=  0 NonCon=     1 RMS=2.30D-03 Max=3.82D-02 NDo=     1
 AX will form     1 AO Fock derivatives at one time.
 LinEq1:  Iter=  1 NonCon=     1 RMS=1.03D-03 Max=2.58D-02 NDo=     1
 LinEq1:  Iter=  2 NonCon=     1 RMS=3.14D-04 Max=5.40D-03 NDo=     1
 LinEq1:  Iter=  3 NonCon=     1 RMS=1.51D-04 Max=3.28D-03 NDo=     1
 LinEq1:  Iter=  4 NonCon=     1 RMS=4.69D-05 Max=1.28D-03 NDo=     1
 LinEq1:  Iter=  5 NonCon=     1 RMS=1.71D-05 Max=2.95D-04 NDo=     1
 LinEq1:  Iter=  6 NonCon=     1 RMS=5.89D-06 Max=1.19D-04 NDo=     1
 LinEq1:  Iter=  7 NonCon=     1 RMS=2.18D-06 Max=3.42D-05 NDo=     1
 LinEq1:  Iter=  8 NonCon=     1 RMS=8.05D-07 Max=1.36D-05 NDo=     1
 LinEq1:  Iter=  9 NonCon=     1 RMS=2.49D-07 Max=4.48D-06 NDo=     1
 LinEq1:  Iter= 10 NonCon=     1 RMS=9.52D-08 Max=1.28D-06 NDo=     1
 LinEq1:  Iter= 11 NonCon=     1 RMS=3.82D-08 Max=5.76D-07 NDo=     1
 LinEq1:  Iter= 12 NonCon=     1 RMS=9.94D-09 Max=1.51D-07 NDo=     1
 LinEq1:  Iter= 13 NonCon=     1 RMS=3.40D-09 Max=4.10D-08 NDo=     1
 LinEq1:  Iter= 14 NonCon=     1 RMS=1.19D-09 Max=2.88D-08 NDo=     1
 LinEq1:  Iter= 15 NonCon=     1 RMS=3.42D-10 Max=5.02D-09 NDo=     1
 LinEq1:  Iter= 16 NonCon=     1 RMS=1.25D-10 Max=2.10D-09 NDo=     1
 LinEq1:  Iter= 17 NonCon=     0 RMS=3.06D-11 Max=4.74D-10 NDo=     1
 Linear equations converged to 1.000D-10 1.000D-09 after    17 iterations.
 End of Minotr F.D. properties file   721 does not exist.
 End of Minotr F.D. properties file   722 does not exist.
 End of Minotr F.D. properties file   788 does not exist.

 **********************************************************************

            Population analysis using the CI Density.

 **********************************************************************

 Orbital symmetries:
       Occupied  (A) (A) (A) (A) (A) (A) (A) (A) (A) (A) (A) (A)
                 (A) (A) (A) (A) (A) (A) (A) (A) (A) (A) (A) (A)
                 (A) (A) (A) (A) (A) (A) (A)
       Virtual   (A) (A) (A) (A) (A) (A) (A) (A) (A) (A) (A) (A)
                 (A) (A) (A) (A) (A) (A) (A) (A) (A) (A) (A) (A)
                 (A) (A) (A) (A) (A) (A) (A) (A) (A) (A) (A) (A)
                 (A) (A) (A) (A) (A) (A) (A) (A) (A) (A) (A) (A)
                 (A) (A) (A) (A) (A) (A) (A) (A) (A) (A) (A) (A)
                 (A) (A) (A) (A) (A) (A) (A) (A) (A) (A) (A) (A)
                 (A) (A) (A) (A) (A) (A) (A) (A) (A) (A) (A) (A)
                 (A) (A) (A) (A) (A) (A) (A) (A) (A) (A) (A) (A)
                 (A) (A) (A) (A) (A) (A) (A) (A) (A) (A) (A) (A)
                 (A) (A) (A) (A) (A) (A) (A) (A) (A) (A) (A) (A)
                 (A) (A) (A) (A) (A) (A) (A) (A) (A) (A) (A) (A)
                 (A) (A) (A) (A) (A) (A) (A) (A) (A) (A) (A) (A)
                 (A) (A) (A) (A) (A) (A) (A) (A) (A) (A)
 The electronic state is 1-A.
 Alpha  occ. eigenvalues --  -15.61321 -11.27611 -11.27014 -11.23623 -11.23424
 Alpha  occ. eigenvalues --  -11.23328 -11.22993 -11.22515 -11.22134  -1.30107
 Alpha  occ. eigenvalues --   -1.13461  -1.06057  -1.00145  -0.97967  -0.84667
 Alpha  occ. eigenvalues --   -0.81037  -0.79254  -0.73244  -0.66474  -0.65191
 Alpha  occ. eigenvalues --   -0.60577  -0.59932  -0.58368  -0.57933  -0.55286
 Alpha  occ. eigenvalues --   -0.51092  -0.48471  -0.46558  -0.38573  -0.30154
 Alpha  occ. eigenvalues --   -0.28374
 Alpha virt. eigenvalues --    0.06043   0.07676   0.08122   0.09252   0.09650
 Alpha virt. eigenvalues --    0.09776   0.12084   0.12171   0.12844   0.13467
 Alpha virt. eigenvalues --    0.13521   0.14245   0.15653   0.16055   0.16315
 Alpha virt. eigenvalues --    0.17513   0.18608   0.20157   0.21313   0.21884
 Alpha virt. eigenvalues --    0.22291   0.23431   0.24192   0.25041   0.25565
 Alpha virt. eigenvalues --    0.26573   0.26993   0.27817   0.28238   0.29142
 Alpha virt. eigenvalues --    0.29617   0.30228   0.31272   0.31373   0.32533
 Alpha virt. eigenvalues --    0.33547   0.34617   0.35000   0.35866   0.37920
 Alpha virt. eigenvalues --    0.40149   0.40528   0.41722   0.42800   0.44859
 Alpha virt. eigenvalues --    0.46136   0.46794   0.47989   0.50112   0.53486
 Alpha virt. eigenvalues --    0.53930   0.58571   0.63141   0.65615   0.70996
 Alpha virt. eigenvalues --    0.79713   0.85181   0.88146   0.90334   0.92964
 Alpha virt. eigenvalues --    0.94405   0.95220   0.96046   0.97158   0.98568
 Alpha virt. eigenvalues --    0.98926   1.00346   1.01815   1.03444   1.03470
 Alpha virt. eigenvalues --    1.05365   1.09759   1.14310   1.14887   1.15909
 Alpha virt. eigenvalues --    1.18601   1.19729   1.20187   1.22379   1.22759
 Alpha virt. eigenvalues --    1.25831   1.28013   1.28420   1.31550   1.32379
 Alpha virt. eigenvalues --    1.34309   1.35646   1.40239   1.41289   1.43535
 Alpha virt. eigenvalues --    1.46408   1.49448   1.49968   1.57480   1.58925
 Alpha virt. eigenvalues --    1.60869   1.61601   1.66640   1.69282   1.71262
 Alpha virt. eigenvalues --    1.74349   1.74739   1.78281   1.79026   1.79852
 Alpha virt. eigenvalues --    1.85801   1.92279   2.08180   2.15070   2.19793
 Alpha virt. eigenvalues --    2.19805   2.20794   2.25822   2.31733   2.32127
 Alpha virt. eigenvalues --    2.32378   2.39218   2.43143   2.46693   2.49820
 Alpha virt. eigenvalues --    2.50521   2.52924   2.58035   2.59052   2.59697
 Alpha virt. eigenvalues --    2.60755   2.64599   2.71894   2.74868   2.78069
 Alpha virt. eigenvalues --    2.89010   2.90906   2.97945   3.00546   3.02201
 Alpha virt. eigenvalues --    3.05891   3.09575   3.16926   3.19852   3.22604
 Alpha virt. eigenvalues --    3.31648   3.33882   3.49471   3.62781   3.83621
 Alpha virt. eigenvalues --    4.58384   4.68434   4.71337   4.74886   4.78522
 Alpha virt. eigenvalues --    4.82387   4.90587   4.94542   5.22040
          Condensed to atoms (all electrons):
               1          2          3          4          5          6
     1  C    6.475525  -0.184390   0.498166  -0.569823   0.297140  -0.744606
     2  C   -0.184390   6.590104  -0.474152   0.329231  -0.877283   0.920550
     3  C    0.498166  -0.474152  10.985275  -0.721477  -2.382317  -2.627552
     4  C   -0.569823   0.329231  -0.721477  10.915053  -3.575921  -1.030524
     5  C    0.297140  -0.877283  -2.382317  -3.575921  12.797752  -0.178977
     6  C   -0.744606   0.920550  -2.627552  -1.030524  -0.178977  12.727374
     7  N   -0.044196   0.017942  -0.567408  -0.178085   0.882746   0.096830
     8  C    0.080490  -0.213098   2.214519   2.465183  -3.673231  -3.634340
     9  C   -0.095584   0.016133  -0.936001  -1.063778   1.462714   1.069770
    10  H   -0.002101  -0.006207  -0.107979  -0.051355   0.140128   0.024449
    11  H    0.003310   0.001167   0.001949  -0.017912   0.051698   0.034120
    12  H    0.001896  -0.000542   0.038928   0.097813  -0.130177  -0.013552
    13  H    0.055153   0.243374   0.052826  -0.019167   0.039005  -0.040716
    14  H   -0.002633   0.088172   0.226887   0.054626  -0.033788  -0.012759
    15  H    0.256494   0.052602   0.006074  -0.015920   0.027617  -0.006059
    16  H    0.058898  -0.012447  -0.001153   0.010163   0.105085   0.147933
               7          8          9         10         11         12
     1  C   -0.044196   0.080490  -0.095584  -0.002101   0.003310   0.001896
     2  C    0.017942  -0.213098   0.016133  -0.006207   0.001167  -0.000542
     3  C   -0.567408   2.214519  -0.936001  -0.107979   0.001949   0.038928
     4  C   -0.178085   2.465183  -1.063778  -0.051355  -0.017912   0.097813
     5  C    0.882746  -3.673231   1.462714   0.140128   0.051698  -0.130177
     6  C    0.096830  -3.634340   1.069770   0.024449   0.034120  -0.013552
     7  N    7.345667  -0.766452   0.556264   0.293756   0.003758  -0.052657
     8  C   -0.766452  10.470948  -1.246849  -0.039456   0.236903   0.138416
     9  C    0.556264  -1.246849   6.147453   0.015521   0.017713   0.258452
    10  H    0.293756  -0.039456   0.015521   0.247067  -0.000050  -0.000905
    11  H    0.003758   0.236903   0.017713  -0.000050   0.413071   0.000356
    12  H   -0.052657   0.138416   0.258452  -0.000905   0.000356   0.413062
    13  H   -0.000290   0.004876   0.000227  -0.000001  -0.000000  -0.000000
    14  H   -0.000927   0.006747   0.001922   0.000957   0.000001   0.000001
    15  H    0.000249   0.012650  -0.000166  -0.000000  -0.000001  -0.000000
    16  H   -0.000770   0.019295   0.000655   0.000002   0.000674  -0.000001
              13         14         15         16
     1  C    0.055153  -0.002633   0.256494   0.058898
     2  C    0.243374   0.088172   0.052602  -0.012447
     3  C    0.052826   0.226887   0.006074  -0.001153
     4  C   -0.019167   0.054626  -0.015920   0.010163
     5  C    0.039005  -0.033788   0.027617   0.105085
     6  C   -0.040716  -0.012759  -0.006059   0.147933
     7  N   -0.000290  -0.000927   0.000249  -0.000770
     8  C    0.004876   0.006747   0.012650   0.019295
     9  C    0.000227   0.001922  -0.000166   0.000655
    10  H   -0.000001   0.000957  -0.000000   0.000002
    11  H   -0.000000   0.000001  -0.000001   0.000674
    12  H   -0.000000   0.000001  -0.000000  -0.000001
    13  H    0.428813  -0.001015  -0.000956  -0.000087
    14  H   -0.001015   0.427162  -0.000089   0.000010
    15  H   -0.000956  -0.000089   0.424770  -0.000860
    16  H   -0.000087   0.000010  -0.000860   0.426005
 Mulliken charges:
               1
     1  C   -0.083741
     2  C   -0.491156
     3  C   -0.206587
     4  C   -0.628107
     5  C    1.047808
     6  C   -0.731941
     7  N   -0.586429
     8  C   -0.076601
     9  C   -0.204447
    10  H    0.486173
    11  H    0.253242
    12  H    0.248910
    13  H    0.237958
    14  H    0.244727
    15  H    0.243595
    16  H    0.246596
 Sum of Mulliken charges =  -0.00000
 Mulliken charges with hydrogens summed into heavy atoms:
               1
     1  C    0.159854
     2  C   -0.253198
     3  C    0.038140
     4  C   -0.628107
     5  C    1.047808
     6  C   -0.485345
     7  N   -0.100256
     8  C    0.176641
     9  C    0.044463
 Electronic spatial extent (au):  <R**2>=           1010.5043
 Charge=             -0.0000 electrons
 Dipole moment (field-independent basis, Debye):
    X=              1.9751    Y=             -1.2252    Z=             -0.0002  Tot=              2.3243
 Quadrupole moment (field-independent basis, Debye-Ang):
   XX=            -46.9777   YY=            -46.7798   ZZ=            -62.0178
   XY=             -3.7546   XZ=              0.0011   YZ=             -0.0010
 Traceless Quadrupole moment (field-independent basis, Debye-Ang):
   XX=              4.9474   YY=              5.1453   ZZ=            -10.0927
   XY=             -3.7546   XZ=              0.0011   YZ=             -0.0010
 Octapole moment (field-independent basis, Debye-Ang**2):
  XXX=             17.3548  YYY=             -8.8076  ZZZ=             -0.0096  XYY=             11.4350
  XXY=             -6.6742  XXZ=              0.0022  XZZ=              3.3576  YZZ=             -0.8444
  YYZ=             -0.0064  XYZ=             -0.0043
 Hexadecapole moment (field-independent basis, Debye-Ang**3):
 XXXX=           -847.3798 YYYY=           -387.4262 ZZZZ=            -91.4706 XXXY=            -26.5253
 XXXZ=             -0.0001 YYYX=            -19.8382 YYYZ=              0.0051 ZZZX=             -0.0045
 ZZZY=              0.0104 XXYY=           -199.6525 XXZZ=           -207.1635 YYZZ=           -106.0030
 XXYZ=             -0.0011 YYXZ=              0.0064 ZZXY=             -4.1694
 N-N= 4.013368668897D+02 E-N=-1.644122034765D+03  KE= 3.610373272148D+02
 Calling FoFJK, ICntrl=  10005127 FMM=F ISym2X=0 I1Cent= 0 IOpClX= 0 NMat=1 NMatS=1 NMatT=0.
 ***** Axes restored to original set *****
 -------------------------------------------------------------------
 Center     Atomic                   Forces (Hartrees/Bohr)
 Number     Number              X              Y              Z
 -------------------------------------------------------------------
      1        6          -0.029954064   -0.011386418   -0.000004999
      2        6          -0.027256306   -0.001090405    0.000000946
      3        6           0.006423357   -0.032490325    0.000010540
      4        6           0.030596124   -0.020727025   -0.000029312
      5        6           0.002498125    0.024487030   -0.000033967
      6        6           0.030146892    0.031433653    0.000006571
      7        7          -0.028125651   -0.003506866    0.000060730
      8        6           0.002839383   -0.003442049    0.000042878
      9        6           0.012794475    0.011647443   -0.000055476
     10        1          -0.003257474    0.008175195   -0.000005123
     11        1          -0.001598274   -0.004229428    0.000011853
     12        1          -0.005318264    0.000575582   -0.000006021
     13        1           0.004782488    0.003366112    0.000001194
     14        1           0.000269387    0.005675110   -0.000001296
     15        1           0.004871158   -0.002669419    0.000000496
     16        1           0.000288645   -0.005818190    0.000000986
 -------------------------------------------------------------------
 Cartesian Forces:  Max     0.032490325 RMS     0.013003826

 GradGradGradGradGradGradGradGradGradGradGradGradGradGradGradGradGradGrad
 Berny optimization.
 FormGI is forming the generalized inverse of G from B-inverse, IUseBI=4.
 Internal  Forces:  Max     0.037303997 RMS     0.006988025
 Search for a local minimum.
 Step number   1 out of a maximum of   94
 All quantities printed in internal units (Hartrees-Bohrs-Radians)
 Mixed Optimization -- RFO/linear search
 Second derivative matrix not updated -- first step.
 ITU=  0
     Eigenvalues ---    0.01853   0.01931   0.01986   0.02012   0.02070
     Eigenvalues ---    0.02113   0.02148   0.02153   0.02172   0.02209
     Eigenvalues ---    0.02233   0.02248   0.02338   0.16000   0.16000
     Eigenvalues ---    0.16000   0.16000   0.16000   0.16000   0.16000
     Eigenvalues ---    0.22000   0.22188   0.22662   0.24011   0.24651
     Eigenvalues ---    0.35712   0.35717   0.35783   0.35790   0.36420
     Eigenvalues ---    0.36427   0.37009   0.38432   0.42633   0.43465
     Eigenvalues ---    0.45769   0.46692   0.47162   0.47468   0.47567
     Eigenvalues ---    0.48125   0.50955
 RFO step:  Lambda=-9.06832618D-03 EMin= 1.85287394D-02
 Linear search not attempted -- first point.
 Iteration  1 RMS(Cart)=  0.01902046 RMS(Int)=  0.00014015
 Iteration  2 RMS(Cart)=  0.00019525 RMS(Int)=  0.00003033
 Iteration  3 RMS(Cart)=  0.00000003 RMS(Int)=  0.00003033
 Variable       Old X    -DE/DX   Delta X   Delta X   Delta X     New X
                                 (Linear)    (Quad)   (Total)
    R1        2.65547   0.01017   0.00000   0.02282   0.02280   2.67827
    R2        2.61291   0.03730   0.00000   0.07540   0.07540   2.68831
    R3        2.04421  -0.00555   0.00000  -0.01514  -0.01514   2.02908
    R4        2.61557   0.02251   0.00000   0.04613   0.04612   2.66169
    R5        2.04411  -0.00583   0.00000  -0.01588  -0.01588   2.02823
    R6        2.63373   0.01783   0.00000   0.03740   0.03740   2.67114
    R7        2.04534  -0.00567   0.00000  -0.01549  -0.01549   2.02985
    R8        2.68058   0.02377   0.00000   0.05491   0.05486   2.73544
    R9        2.60126  -0.02361   0.00000  -0.04761  -0.04760   2.55366
   R10        2.64771  -0.00080   0.00000  -0.00219  -0.00217   2.64554
   R11        2.70839  -0.00196   0.00000  -0.00294  -0.00299   2.70539
   R12        2.04526  -0.00582   0.00000  -0.01590  -0.01590   2.02936
   R13        2.60573   0.01134   0.00000   0.02115   0.02122   2.62695
   R14        1.89542  -0.00878   0.00000  -0.01827  -0.01827   1.87715
   R15        2.57870  -0.00617   0.00000  -0.01160  -0.01156   2.56713
   R16        2.03419  -0.00452   0.00000  -0.01211  -0.01211   2.02208
   R17        2.03430  -0.00535   0.00000  -0.01433  -0.01433   2.01997
    A1        2.11420   0.00490   0.00000   0.02333   0.02329   2.13750
    A2        2.07986  -0.00250   0.00000  -0.01196  -0.01194   2.06792
    A3        2.08912  -0.00240   0.00000  -0.01137  -0.01135   2.07777
    A4        2.11523  -0.00228   0.00000  -0.00716  -0.00721   2.10802
    A5        2.08365   0.00064   0.00000   0.00061   0.00064   2.08429
    A6        2.08430   0.00164   0.00000   0.00654   0.00657   2.09087
    A7        2.05144  -0.00474   0.00000  -0.01911  -0.01914   2.03230
    A8        2.11267   0.00273   0.00000   0.01166   0.01167   2.12434
    A9        2.11908   0.00202   0.00000   0.00745   0.00746   2.12654
   A10        2.13389   0.00593   0.00000   0.02292   0.02295   2.15684
   A11        2.27895  -0.00225   0.00000  -0.00803  -0.00801   2.27094
   A12        1.87035  -0.00368   0.00000  -0.01489  -0.01494   1.85540
   A13        2.07274   0.00044   0.00000  -0.00129  -0.00121   2.07154
   A14        1.86517  -0.00198   0.00000  -0.00345  -0.00358   1.86160
   A15        2.34527   0.00154   0.00000   0.00474   0.00478   2.35005
   A16        2.07887  -0.00425   0.00000  -0.01870  -0.01869   2.06018
   A17        2.10306   0.00226   0.00000   0.01012   0.01012   2.11318
   A18        2.10125   0.00200   0.00000   0.00857   0.00857   2.10982
   A19        1.90743   0.00647   0.00000   0.02278   0.02287   1.93029
   A20        2.19023  -0.00374   0.00000  -0.01436  -0.01440   2.17583
   A21        2.18553  -0.00273   0.00000  -0.00842  -0.00846   2.17707
   A22        1.86968   0.00040   0.00000   0.00422   0.00421   1.87389
   A23        2.21717  -0.00024   0.00000  -0.00234  -0.00233   2.21484
   A24        2.19633  -0.00016   0.00000  -0.00188  -0.00188   2.19446
   A25        1.91215  -0.00122   0.00000  -0.00866  -0.00856   1.90359
   A26        2.10250   0.00062   0.00000   0.00441   0.00436   2.10686
   A27        2.26854   0.00060   0.00000   0.00425   0.00420   2.27274
    D1       -0.00001  -0.00000   0.00000  -0.00004  -0.00004  -0.00005
    D2       -3.14156  -0.00000   0.00000  -0.00009  -0.00009   3.14154
    D3        3.14152   0.00000   0.00000   0.00007   0.00007   3.14159
    D4       -0.00002   0.00000   0.00000   0.00002   0.00002  -0.00000
    D5       -0.00003   0.00000   0.00000   0.00015   0.00015   0.00012
    D6        3.14153   0.00000   0.00000   0.00012   0.00012  -3.14154
    D7       -3.14157   0.00000   0.00000   0.00005   0.00005  -3.14152
    D8       -0.00001   0.00000   0.00000   0.00001   0.00001   0.00001
    D9        0.00003  -0.00000   0.00000  -0.00010  -0.00010  -0.00006
   D10       -3.14154  -0.00000   0.00000  -0.00002  -0.00002  -3.14155
   D11        3.14158  -0.00000   0.00000  -0.00005  -0.00005   3.14153
   D12        0.00001   0.00000   0.00000   0.00003   0.00003   0.00004
   D13       -0.00001   0.00000   0.00000   0.00012   0.00012   0.00011
   D14       -3.14144  -0.00000   0.00000  -0.00005  -0.00005  -3.14149
   D15        3.14156   0.00000   0.00000   0.00004   0.00004  -3.14158
   D16        0.00013  -0.00000   0.00000  -0.00013  -0.00013   0.00000
   D17       -0.00004  -0.00000   0.00000  -0.00001  -0.00001  -0.00005
   D18       -3.14151  -0.00001   0.00000  -0.00022  -0.00022   3.14145
   D19        3.14143   0.00000   0.00000   0.00012   0.00012   3.14155
   D20       -0.00005  -0.00000   0.00000  -0.00009  -0.00008  -0.00014
   D21       -3.14124  -0.00001   0.00000  -0.00029  -0.00029  -3.14153
   D22       -0.00113   0.00001   0.00000   0.00018   0.00018  -0.00095
   D23        0.00049  -0.00001   0.00000  -0.00044  -0.00044   0.00005
   D24        3.14060  -0.00000   0.00000   0.00003   0.00003   3.14063
   D25        0.00005  -0.00000   0.00000  -0.00012  -0.00012  -0.00007
   D26       -3.14151  -0.00000   0.00000  -0.00009  -0.00009   3.14159
   D27        3.14150   0.00000   0.00000   0.00015   0.00016  -3.14153
   D28       -0.00007   0.00001   0.00000   0.00019   0.00019   0.00012
   D29       -0.00041   0.00002   0.00000   0.00058   0.00058   0.00017
   D30        3.14139   0.00001   0.00000   0.00021   0.00022  -3.14158
   D31        3.14132   0.00001   0.00000   0.00032   0.00032  -3.14154
   D32       -0.00006  -0.00000   0.00000  -0.00004  -0.00004  -0.00010
   D33       -0.00077   0.00002   0.00000   0.00082   0.00083   0.00005
   D34        3.14133   0.00001   0.00000   0.00028   0.00029  -3.14157
   D35       -3.14089   0.00001   0.00000   0.00037   0.00037  -3.14052
   D36        0.00121  -0.00001   0.00000  -0.00018  -0.00018   0.00103
   D37        0.00072  -0.00003   0.00000  -0.00087  -0.00086  -0.00014
   D38       -3.14144  -0.00001   0.00000  -0.00026  -0.00025   3.14149
   D39       -3.14107  -0.00002   0.00000  -0.00051  -0.00051  -3.14158
   D40       -0.00005   0.00000   0.00000   0.00010   0.00010   0.00005
         Item               Value     Threshold  Converged?
 Maximum Force            0.037304     0.000450     NO 
 RMS     Force            0.006988     0.000300     NO 
 Maximum Displacement     0.068057     0.001800     NO 
 RMS     Displacement     0.019057     0.001200     NO 
 Predicted change in Energy=-4.630289D-03
 GradGradGradGradGradGradGradGradGradGradGradGradGradGradGradGradGradGrad

                          Input orientation:                          
 ---------------------------------------------------------------------
 Center     Atomic      Atomic             Coordinates (Angstroms)
 Number     Number       Type             X           Y           Z
 ---------------------------------------------------------------------
      1          6           0       -2.157503    0.681224   -0.000038
      2          6           0       -2.148480   -0.736028    0.000022
      3          6           0       -0.933824   -1.449114    0.000073
      4          6           0        0.249732   -0.676333   -0.000017
      5          6           0        0.260749    0.771158   -0.000020
      6          6           0       -0.962181    1.452569    0.000014
      7          7           0        1.543786   -1.065625   -0.000107
      8          6           0        1.635359    1.171187    0.000071
      9          6           0        2.386963    0.039585   -0.000097
     10          1           0        1.849475   -2.010763    0.000656
     11          1           0        2.013154    2.172312    0.000107
     12          1           0        3.448746   -0.083763   -0.000178
     13          1           0       -3.079978   -1.269199    0.000028
     14          1           0       -0.909456   -2.522989    0.000081
     15          1           0       -3.104518    1.187270   -0.000080
     16          1           0       -0.995121    2.525956    0.000019
 ---------------------------------------------------------------------
                    Distance matrix (angstroms):
                    1          2          3          4          5
     1  C    0.000000
     2  C    1.417280   0.000000
     3  C    2.456773   1.408504   0.000000
     4  C    2.763647   2.398955   1.413504   0.000000
     5  C    2.419925   2.841830   2.521232   1.447533   0.000000
     6  C    1.422592   2.489429   2.901821   2.449685   1.399957
     7  N    4.092802   3.706948   2.507113   1.351341   2.240525
     8  C    3.824378   4.237323   3.669697   2.309392   1.431633
     9  C    4.589540   4.601285   3.639210   2.253951   2.248552
    10  H    4.827284   4.196260   2.839401   2.083238   3.203613
    11  H    4.429190   5.077168   4.668983   3.350289   2.243692
    12  H    5.658201   5.635104   4.590327   3.253434   3.300638
    13  H    2.157571   1.073294   2.153683   3.382079   3.914527
    14  H    3.438693   2.174492   1.074152   2.180334   3.495824
    15  H    1.073741   2.147809   3.415031   3.837188   3.390896
    16  H    2.180405   3.459880   3.975542   3.435741   2.157898
                    6          7          8          9         10
     6  C    0.000000
     7  N    3.552629   0.000000
     8  C    2.612736   2.238686   0.000000
     9  C    3.635009   1.390121   1.358467   0.000000
    10  H    4.460950   0.993344   3.189147   2.119628   0.000000
    11  H    3.061152   3.271780   1.070038   2.165239   4.186277
    12  H    4.670824   2.143112   2.205283   1.068924   2.504197
    13  H    3.448635   4.628243   5.309415   5.621420   4.984919
    14  H    3.975908   2.853473   4.485869   4.175304   2.806078
    15  H    2.158701   5.165488   4.739904   5.610129   5.896564
    16  H    1.073892   4.398352   2.958855   4.197682   5.354768
                   11         12         13         14         15
    11  H    0.000000
    12  H    2.674098   0.000000
    13  H    6.146869   6.635473   0.000000
    14  H    5.530597   4.994372   2.506622   0.000000
    15  H    5.211609   6.675387   2.456593   4.310954   0.000000
    16  H    3.028991   5.153503   4.330107   5.049672   2.498326
                   16
    16  H    0.000000
 Stoichiometry    C8H7N
 Framework group  C1[X(C8H7N)]
 Deg. of freedom    42
 Full point group                 C1      NOp   1
 Largest Abelian subgroup         C1      NOp   1
 Largest concise Abelian subgroup C1      NOp   1
                         Standard orientation:                         
 ---------------------------------------------------------------------
 Center     Atomic      Atomic             Coordinates (Angstroms)
 Number     Number       Type             X           Y           Z
 ---------------------------------------------------------------------
      1          6           0       -2.146782    0.713963   -0.000037
      2          6           0       -2.160006   -0.703256    0.000023
      3          6           0       -0.956692   -1.435321    0.000074
      4          6           0        0.238848   -0.681214   -0.000016
      5          6           0        0.272585    0.765926   -0.000019
      6          6           0       -0.939499    1.466449    0.000015
      7          7           0        1.526632   -1.090770   -0.000106
      8          6           0        1.653304    1.144329    0.000072
      9          6           0        2.387053    0.001068   -0.000095
     10          1           0        1.817447   -2.040590    0.000657
     11          1           0        2.046767    2.139401    0.000108
     12          1           0        3.446769   -0.138931   -0.000176
     13          1           0       -3.099758   -1.221741    0.000029
     14          1           0       -0.949184   -2.509447    0.000082
     15          1           0       -3.085736    1.234812   -0.000079
     16          1           0       -0.955586    2.540221    0.000020
 ---------------------------------------------------------------------
 Rotational constants (GHZ):           3.8204782           1.6361502           1.1455565
 Standard basis: 6-31+G(d) (6D, 7F)
 There are   185 symmetry adapted cartesian basis functions of A   symmetry.
 There are   185 symmetry adapted basis functions of A   symmetry.
   185 basis functions,   316 primitive gaussians,   185 cartesian basis functions
    31 alpha electrons       31 beta electrons
       nuclear repulsion energy       399.3088213423 Hartrees.
 NAtoms=   16 NActive=   16 NUniq=   16 SFac= 1.00D+00 NAtFMM=   60 NAOKFM=F Big=F
 Integral buffers will be    131072 words long.
 Raffenetti 1 integral format.
 Two-electron integral symmetry is turned on.
 One-electron integrals computed using PRISM.
 NBasis=   185 RedAO= T EigKep=  1.40D-06  NBF=   185
 NBsUse=   185 1.00D-06 EigRej= -1.00D+00 NBFU=   185
 Initial guess from the checkpoint file:  "FuncsCIS-V-3rd.chk"
 B after Tr=     0.000000   -0.000000    0.000000
         Rot=    0.999972    0.000006    0.000003    0.007446 Ang=   0.85 deg.
 ExpMin= 4.38D-02 ExpMax= 4.17D+03 ExpMxC= 6.27D+02 IAcc=3 IRadAn=         5 AccDes= 0.00D+00
 Harris functional with IExCor=  205 and IRadAn=       5 diagonalized for initial guess.
 HarFok:  IExCor=  205 AccDes= 0.00D+00 IRadAn=         5 IDoV= 1 UseB2=F ITyADJ=14
 ICtDFT=  3500011 ScaDFX=  1.000000  1.000000  1.000000  1.000000
 FoFCou: FMM=F IPFlag=           0 FMFlag=      100000 FMFlg1=           0
         NFxFlg=           0 DoJE=T BraDBF=F KetDBF=T FulRan=T
         wScrn=  0.000000 ICntrl=       500 IOpCl=  0 I1Cent=   200000004 NGrid=           0
         NMat0=    1 NMatS0=      1 NMatT0=    0 NMatD0=    1 NMtDS0=    0 NMtDT0=    0
 Petite list used in FoFCou.
 Keep R1 ints in memory in canonical form, NReq=151233468.
 Requested convergence on RMS density matrix=1.00D-08 within 128 cycles.
 Requested convergence on MAX density matrix=1.00D-06.
 Requested convergence on             energy=1.00D-06.
 No special actions if energy rises.
 SCF Done:  E(RHF) =  -361.473320730     A.U. after   16 cycles
            NFock= 16  Conv=0.55D-08     -V/T= 2.0021
 ExpMin= 4.38D-02 ExpMax= 4.17D+03 ExpMxC= 6.27D+02 IAcc=3 IRadAn=         5 AccDes= 0.00D+00
 HarFok:  IExCor=  205 AccDes= 0.00D+00 IRadAn=         5 IDoV=-2 UseB2=F ITyADJ=14
 ICtDFT= 12500011 ScaDFX=  1.000000  1.000000  1.000000  1.000000
 Range of M.O.s used for correlation:    10   185
 NBasis=   185 NAE=    31 NBE=    31 NFC=     9 NFV=     0
 NROrb=    176 NOA=    22 NOB=    22 NVA=   154 NVB=   154

 **** Warning!!: The largest alpha MO coefficient is  0.23620027D+03

 Orbital symmetries:
       Occupied  (A) (A) (A) (A) (A) (A) (A) (A) (A) (A) (A) (A)
                 (A) (A) (A) (A) (A) (A) (A) (A) (A) (A) (A) (A)
                 (A) (A) (A) (A) (A) (A) (A)
       Virtual   (A) (A) (A) (A) (A) (A) (A) (A) (A) (A) (A) (A)
                 (A) (A) (A) (A) (A) (A) (A) (A) (A) (A) (A) (A)
                 (A) (A) (A) (A) (A) (A) (A) (A) (A) (A) (A) (A)
                 (A) (A) (A) (A) (A) (A) (A) (A) (A) (A) (A) (A)
                 (A) (A) (A) (A) (A) (A) (A) (A) (A) (A) (A) (A)
                 (A) (A) (A) (A) (A) (A) (A) (A) (A) (A) (A) (A)
                 (A) (A) (A) (A) (A) (A) (A) (A) (A) (A) (A) (A)
                 (A) (A) (A) (A) (A) (A) (A) (A) (A) (A) (A) (A)
                 (A) (A) (A) (A) (A) (A) (A) (A) (A) (A) (A) (A)
                 (A) (A) (A) (A) (A) (A) (A) (A) (A) (A) (A) (A)
                 (A) (A) (A) (A) (A) (A) (A) (A) (A) (A) (A) (A)
                 (A) (A) (A) (A) (A) (A) (A) (A) (A) (A) (A) (A)
                 (A) (A) (A) (A) (A) (A) (A) (A) (A) (A)
 Generating guess from densities on rwf.
 Convergence on wavefunction:    0.000001000000000
 Iteration     1 Dimension     6 NMult     0 NNew      6
 CISAX will form     6 AO SS matrices at one time.
 New state      1 was old state      3
 New state      2 was old state      1
 New state      3 was old state      2
 New state      5 was old state      6
 New state      6 was old state      5
 Iteration     2 Dimension    12 NMult     6 NNew      6
 New state      5 was old state      6
 New state      6 was old state      5
 Iteration     3 Dimension    18 NMult    12 NNew      6
 Iteration     4 Dimension    24 NMult    18 NNew      6
 Iteration     5 Dimension    30 NMult    24 NNew      6
 Iteration     6 Dimension    36 NMult    30 NNew      6
 Iteration     7 Dimension    42 NMult    36 NNew      6
 Iteration     8 Dimension    48 NMult    42 NNew      6
 Iteration     9 Dimension    54 NMult    48 NNew      6
 Iteration    10 Dimension    60 NMult    54 NNew      6
 Iteration    11 Dimension    66 NMult    60 NNew      6
 Iteration    12 Dimension    72 NMult    66 NNew      6
 Iteration    13 Dimension    77 NMult    72 NNew      5
 Iteration    14 Dimension    80 NMult    77 NNew      3
 Iteration    15 Dimension    83 NMult    80 NNew      3
 Iteration    16 Dimension    86 NMult    83 NNew      3
 Iteration    17 Dimension    88 NMult    86 NNew      2
 ***********************************************************************
 Excited states from <AA,BB:AA,BB> singles matrix:
 ***********************************************************************
 
 Ground to excited state transition densities written to RWF  633
 Ground to excited state transition electric dipole moments (Au):
       state          X           Y           Z        Dip. S.      Osc.
         1         0.0002     -0.0002     -0.2544      0.0647      0.0091
         2         0.9389     -0.4711      0.0001      1.1035      0.1483
         3         0.4246      0.6212     -0.0001      0.5662      0.0756
         4         0.0000     -0.0000     -0.1860      0.0346      0.0050
         5         0.0000      0.0000      0.0364      0.0013      0.0002
         6        -0.0001     -0.0000     -0.0421      0.0018      0.0003
 Ground to excited state transition velocity dipole moments (Au):
       state          X           Y           Z        Dip. S.      Osc.
         1         0.0000     -0.0000      0.0226      0.0005      0.0016
         2        -0.0475      0.0160     -0.0000      0.0025      0.0083
         3        -0.0263      0.0010      0.0000      0.0007      0.0023
         4         0.0000      0.0000      0.0444      0.0020      0.0060
         5        -0.0000     -0.0000     -0.0007      0.0000      0.0000
         6         0.0000     -0.0000      0.0021      0.0000      0.0000
 Ground to excited state transition magnetic dipole moments (Au):
       state          X           Y           Z
         1         0.0854     -0.1216      0.0000
         2         0.0000      0.0000      0.1817
         3         0.0001      0.0000      0.2507
         4         0.1271     -0.3165     -0.0000
         5        -0.0444     -0.5293     -0.0000
         6         0.4676      0.1374      0.0000
 Ground to excited state transition velocity quadrupole moments (Au):
       state          XX          YY          ZZ          XY          XZ          YZ
         1        -0.0000      0.0000      0.0001     -0.0000      0.1328      0.0175
         2        -0.1583      0.1336     -0.0489      0.0590     -0.0001      0.0000
         3        -0.1674     -0.0337     -0.0115      0.0342      0.0000     -0.0000
         4         0.0001     -0.0001     -0.0001     -0.0000      0.2293      0.0821
         5        -0.0000     -0.0001     -0.0000     -0.0001      0.5261      0.0762
         6         0.0001     -0.0000     -0.0000     -0.0001      0.0077      0.4243
 <0|del|b> * <b|rxdel|0> + <0|del|b> * <b|delr+rdel|0>
 Rotatory Strengths (R) in cgs (10**-40 erg-esu-cm/Gauss)
       state          XX          YY          ZZ    R(velocity)    E-M Angle
         1         0.0046      0.0031      0.0006      0.0028       90.00
         2        -0.0063     -0.0100      0.0016     -0.0049       90.00
         3         0.0042      0.0027     -0.0048      0.0007       90.00
         4        -0.0162      0.0034     -0.0018     -0.0049       90.00
         5         0.0128     -0.0004      0.0014      0.0046       90.00
         6        -0.0005      0.0239      0.0008      0.0081       90.00
 1/2[<0|r|b>*<b|rxdel|0> + (<0|rxdel|b>*<b|r|0>)*]
 Rotatory Strengths (R) in cgs (10**-40 erg-esu-cm/Gauss)
       state          XX          YY          ZZ     R(length)
         1        -0.0100     -0.0194      0.0068     -0.0076
         2        -0.0135      0.0162     -0.0105     -0.0026
         3        -0.0177     -0.0033      0.0091     -0.0040
         4        -0.0016     -0.0058     -0.0006     -0.0027
         5         0.0012      0.0023      0.0003      0.0013
         6         0.0382      0.0018      0.0006      0.0135
  1/2[<0|del|b>*<b|r|0> + (<0|r|b>*<b|del|0>)*] (Au)
       state          X           Y           Z        Dip. S.   Osc.(frdel)
         1         0.0000      0.0000     -0.0058      0.0058      0.0038
         2        -0.0446     -0.0076     -0.0000      0.0522      0.0348
         3        -0.0112      0.0006     -0.0000      0.0106      0.0070
         4         0.0000     -0.0000     -0.0083      0.0083      0.0055
         5        -0.0000     -0.0000     -0.0000      0.0000      0.0000
         6        -0.0000      0.0000     -0.0001      0.0001      0.0001

 Excitation energies and oscillator strengths:
 
 Excited State   1:      Singlet-A      5.7072 eV  217.24 nm  f=0.0091  <S**2>=0.000
      29 -> 32         0.10314
      30 -> 32        -0.10250
      31 -> 32         0.63014
      31 -> 34        -0.11572
 
 Excited State   2:      Singlet-A      5.4860 eV  226.00 nm  f=0.1483  <S**2>=0.000
      30 -> 36         0.20036
      30 -> 41        -0.15832
      30 -> 43        -0.23730
      30 -> 44        -0.10344
      31 -> 36         0.51654
      31 -> 40        -0.11875
      31 -> 41         0.16814
 
 Excited State   3:      Singlet-A      5.4506 eV  227.47 nm  f=0.0756  <S**2>=0.000
      30 -> 36         0.51173
      30 -> 40        -0.13967
      30 -> 41         0.20545
      31 -> 36        -0.20082
      31 -> 41         0.13265
      31 -> 43         0.22328
      31 -> 44         0.12277
 This state for optimization and/or second-order correction.
 Total Energy, E(CIS/TDA) =  -361.273014548    
 Copying the excited state density for this state as the 1-particle RhoCI density.
 
 Excited State   4:      Singlet-A      5.9411 eV  208.69 nm  f=0.0050  <S**2>=0.000
      30 -> 32         0.57616
      30 -> 33        -0.14725
      30 -> 34        -0.11043
      30 -> 39        -0.10742
      30 -> 42        -0.11060
      31 -> 32         0.12246
      31 -> 33         0.22047
 
 Excited State   5:      Singlet-A      6.2692 eV  197.77 nm  f=0.0002  <S**2>=0.000
      30 -> 32        -0.12520
      30 -> 33         0.12092
      30 -> 34         0.17321
      31 -> 32        -0.11011
      31 -> 33         0.51380
      31 -> 34        -0.31665
 
 Excited State   6:      Singlet-A      6.3519 eV  195.19 nm  f=0.0003  <S**2>=0.000
      30 -> 32        -0.14265
      30 -> 34        -0.17302
      30 -> 35         0.10347
      31 -> 33         0.34715
      31 -> 34         0.48090
      31 -> 42         0.13822
 SavETr:  write IOETrn=   770 NScale= 10 NData=  16 NLR=1 NState=    6 LETran=     118.
          IDoAtm=1111111111111111
          Differentiating once with respect to electric field.
                with respect to dipole field.
          Differentiating once with respect to nuclear coordinates.
 Keep R1 ints in memory in canonical form, NReq=151235562.
          There are     1 degrees of freedom in the 1st order CPHF.  IDoFFX=0 NUNeed=     1.
 LinEq1:  Iter=  0 NonCon=     1 RMS=2.45D-03 Max=4.89D-02 NDo=     1
 AX will form     1 AO Fock derivatives at one time.
 LinEq1:  Iter=  1 NonCon=     1 RMS=9.94D-04 Max=2.34D-02 NDo=     1
 LinEq1:  Iter=  2 NonCon=     1 RMS=3.21D-04 Max=5.78D-03 NDo=     1
 LinEq1:  Iter=  3 NonCon=     1 RMS=1.38D-04 Max=3.33D-03 NDo=     1
 LinEq1:  Iter=  4 NonCon=     1 RMS=4.26D-05 Max=1.21D-03 NDo=     1
 LinEq1:  Iter=  5 NonCon=     1 RMS=1.59D-05 Max=2.83D-04 NDo=     1
 LinEq1:  Iter=  6 NonCon=     1 RMS=6.20D-06 Max=1.32D-04 NDo=     1
 LinEq1:  Iter=  7 NonCon=     1 RMS=2.17D-06 Max=3.48D-05 NDo=     1
 LinEq1:  Iter=  8 NonCon=     1 RMS=8.38D-07 Max=1.29D-05 NDo=     1
 LinEq1:  Iter=  9 NonCon=     1 RMS=2.66D-07 Max=3.92D-06 NDo=     1
 LinEq1:  Iter= 10 NonCon=     1 RMS=9.96D-08 Max=1.28D-06 NDo=     1
 LinEq1:  Iter= 11 NonCon=     1 RMS=3.60D-08 Max=6.93D-07 NDo=     1
 LinEq1:  Iter= 12 NonCon=     1 RMS=1.23D-08 Max=2.22D-07 NDo=     1
 LinEq1:  Iter= 13 NonCon=     1 RMS=4.36D-09 Max=6.95D-08 NDo=     1
 LinEq1:  Iter= 14 NonCon=     1 RMS=1.53D-09 Max=3.38D-08 NDo=     1
 LinEq1:  Iter= 15 NonCon=     1 RMS=4.98D-10 Max=6.70D-09 NDo=     1
 LinEq1:  Iter= 16 NonCon=     1 RMS=1.61D-10 Max=3.03D-09 NDo=     1
 LinEq1:  Iter= 17 NonCon=     0 RMS=3.90D-11 Max=6.18D-10 NDo=     1
 Linear equations converged to 1.000D-10 1.000D-09 after    17 iterations.
 End of Minotr F.D. properties file   721 does not exist.
 End of Minotr F.D. properties file   722 does not exist.
 End of Minotr F.D. properties file   788 does not exist.
 Calling FoFJK, ICntrl=  10005127 FMM=F ISym2X=0 I1Cent= 0 IOpClX= 0 NMat=1 NMatS=1 NMatT=0.
 ***** Axes restored to original set *****
 -------------------------------------------------------------------
 Center     Atomic                   Forces (Hartrees/Bohr)
 Number     Number              X              Y              Z
 -------------------------------------------------------------------
      1        6          -0.001613953   -0.011781844    0.000004491
      2        6           0.000587281    0.008379521   -0.000001440
      3        6          -0.003901501   -0.002300530    0.000004317
      4        6           0.013210024    0.005922662    0.000004272
      5        6          -0.005440303   -0.002609650    0.000005091
      6        6           0.005770596    0.001596417   -0.000005797
      7        7          -0.012916380    0.003891001    0.000002606
      8        6          -0.000860500   -0.005287410   -0.000023084
      9        6           0.006058588    0.003023149    0.000025101
     10        1           0.001015584   -0.001626453   -0.000013347
     11        1          -0.000075448    0.000654529   -0.000002447
     12        1           0.000038625   -0.001009519    0.000002130
     13        1          -0.000254487    0.000448591   -0.000000892
     14        1           0.000430791    0.000113656   -0.000002417
     15        1          -0.000239033    0.000768613    0.000000046
     16        1          -0.001809884   -0.000182735    0.000001370
 -------------------------------------------------------------------
 Cartesian Forces:  Max     0.013210024 RMS     0.004032164

 GradGradGradGradGradGradGradGradGradGradGradGradGradGradGradGradGradGrad
 Berny optimization.
 Using GEDIIS/GDIIS optimizer.
 FormGI is forming the generalized inverse of G from B-inverse, IUseBI=4.
 Internal  Forces:  Max     0.009053695 RMS     0.001826981
 Search for a local minimum.
 Step number   2 out of a maximum of   94
 All quantities printed in internal units (Hartrees-Bohrs-Radians)
 Mixed Optimization -- RFO/linear search
 Update second derivatives using D2CorX and points    1    2
 DE= -4.73D-03 DEPred=-4.63D-03 R= 1.02D+00
 TightC=F SS=  1.41D+00  RLast= 1.45D-01 DXNew= 5.0454D-01 4.3525D-01
 Trust test= 1.02D+00 RLast= 1.45D-01 DXMaxT set to 4.35D-01
 ITU=  1  0
 Use linear search instead of GDIIS.
     Eigenvalues ---    0.01851   0.01932   0.01986   0.02012   0.02070
     Eigenvalues ---    0.02113   0.02147   0.02151   0.02172   0.02208
     Eigenvalues ---    0.02234   0.02248   0.02339   0.15878   0.16000
     Eigenvalues ---    0.16000   0.16000   0.16000   0.16000   0.16017
     Eigenvalues ---    0.20669   0.22045   0.22798   0.24280   0.24494
     Eigenvalues ---    0.35370   0.35715   0.35770   0.35799   0.36364
     Eigenvalues ---    0.36437   0.37050   0.38360   0.39881   0.42917
     Eigenvalues ---    0.45548   0.46438   0.47136   0.47477   0.47586
     Eigenvalues ---    0.50293   0.56507
 RFO step:  Lambda=-8.09620843D-04 EMin= 1.85138935D-02
 Quartic linear search produced a step of  0.04637.
 Iteration  1 RMS(Cart)=  0.00753118 RMS(Int)=  0.00004452
 Iteration  2 RMS(Cart)=  0.00004997 RMS(Int)=  0.00000603
 Iteration  3 RMS(Cart)=  0.00000000 RMS(Int)=  0.00000603
 Variable       Old X    -DE/DX   Delta X   Delta X   Delta X     New X
                                 (Linear)    (Quad)   (Total)
    R1        2.67827  -0.00905   0.00106  -0.02034  -0.01928   2.65899
    R2        2.68831   0.00286   0.00350   0.00917   0.01267   2.70097
    R3        2.02908   0.00057  -0.00070   0.00104   0.00034   2.02942
    R4        2.66169  -0.00064   0.00214   0.00051   0.00264   2.66433
    R5        2.02823  -0.00000  -0.00074  -0.00067  -0.00140   2.02683
    R6        2.67114   0.00371   0.00173   0.01000   0.01173   2.68287
    R7        2.02985  -0.00010  -0.00072  -0.00095  -0.00167   2.02819
    R8        2.73544  -0.00515   0.00254  -0.01118  -0.00865   2.72679
    R9        2.55366  -0.00840  -0.00221  -0.02056  -0.02277   2.53089
   R10        2.64554  -0.00186  -0.00010  -0.00434  -0.00443   2.64110
   R11        2.70539   0.00093  -0.00014   0.00279   0.00264   2.70803
   R12        2.02936  -0.00013  -0.00074  -0.00103  -0.00177   2.02759
   R13        2.62695   0.00169   0.00098   0.00475   0.00575   2.63270
   R14        1.87715   0.00186  -0.00085   0.00335   0.00251   1.87966
   R15        2.56713  -0.00084  -0.00054  -0.00108  -0.00161   2.56553
   R16        2.02208   0.00059  -0.00056   0.00117   0.00061   2.02269
   R17        2.01997   0.00015  -0.00066  -0.00015  -0.00082   2.01916
    A1        2.13750   0.00117   0.00108   0.00549   0.00657   2.14407
    A2        2.06792  -0.00001  -0.00055   0.00097   0.00042   2.06834
    A3        2.07777  -0.00116  -0.00053  -0.00647  -0.00699   2.07078
    A4        2.10802   0.00005  -0.00033  -0.00090  -0.00124   2.10678
    A5        2.08429  -0.00055   0.00003  -0.00307  -0.00304   2.08125
    A6        2.09087   0.00050   0.00030   0.00397   0.00428   2.09515
    A7        2.03230  -0.00022  -0.00089  -0.00201  -0.00290   2.02940
    A8        2.12434   0.00055   0.00054   0.00395   0.00449   2.12884
    A9        2.12654  -0.00033   0.00035  -0.00194  -0.00159   2.12495
   A10        2.15684  -0.00067   0.00106   0.00008   0.00115   2.15799
   A11        2.27094  -0.00200  -0.00037  -0.00703  -0.00739   2.26355
   A12        1.85540   0.00267  -0.00069   0.00694   0.00624   1.86164
   A13        2.07154   0.00021  -0.00006   0.00131   0.00127   2.07280
   A14        1.86160  -0.00201  -0.00017  -0.00943  -0.00962   1.85198
   A15        2.35005   0.00179   0.00022   0.00812   0.00835   2.35840
   A16        2.06018  -0.00055  -0.00087  -0.00398  -0.00484   2.05533
   A17        2.11318  -0.00157   0.00047  -0.00996  -0.00949   2.10369
   A18        2.10982   0.00212   0.00040   0.01394   0.01433   2.12416
   A19        1.93029   0.00199   0.00106   0.00893   0.01001   1.94030
   A20        2.17583  -0.00056  -0.00067  -0.00174  -0.00242   2.17341
   A21        2.17707  -0.00143  -0.00039  -0.00719  -0.00759   2.16948
   A22        1.87389   0.00146   0.00020   0.01042   0.01062   1.88451
   A23        2.21484  -0.00104  -0.00011  -0.00720  -0.00731   2.20752
   A24        2.19446  -0.00043  -0.00009  -0.00322  -0.00331   2.19115
   A25        1.90359  -0.00411  -0.00040  -0.01687  -0.01725   1.88634
   A26        2.10686   0.00105   0.00020   0.00188   0.00207   2.10893
   A27        2.27274   0.00306   0.00019   0.01499   0.01518   2.28791
    D1       -0.00005   0.00000  -0.00000   0.00009   0.00009   0.00003
    D2        3.14154   0.00000  -0.00000   0.00010   0.00009  -3.14155
    D3        3.14159   0.00000   0.00000   0.00001   0.00002  -3.14158
    D4       -0.00000   0.00000   0.00000   0.00002   0.00002   0.00002
    D5        0.00012  -0.00000   0.00001  -0.00011  -0.00010   0.00002
    D6       -3.14154  -0.00000   0.00001  -0.00004  -0.00003  -3.14157
    D7       -3.14152  -0.00000   0.00000  -0.00004  -0.00003  -3.14156
    D8        0.00001   0.00000   0.00000   0.00004   0.00004   0.00004
    D9       -0.00006   0.00000  -0.00000   0.00001   0.00001  -0.00005
   D10       -3.14155   0.00000  -0.00000   0.00004   0.00004  -3.14151
   D11        3.14153   0.00000  -0.00000   0.00001   0.00000   3.14154
   D12        0.00004   0.00000   0.00000   0.00003   0.00003   0.00007
   D13        0.00011  -0.00000   0.00001  -0.00009  -0.00009   0.00002
   D14       -3.14149   0.00000  -0.00000   0.00000   0.00000  -3.14149
   D15       -3.14158  -0.00000   0.00000  -0.00012  -0.00012   3.14148
   D16        0.00000  -0.00000  -0.00001  -0.00002  -0.00003  -0.00002
   D17       -0.00005   0.00000  -0.00000   0.00007   0.00007   0.00002
   D18        3.14145   0.00000  -0.00001   0.00013   0.00012   3.14157
   D19        3.14155  -0.00000   0.00001  -0.00001  -0.00000   3.14155
   D20       -0.00014   0.00000  -0.00000   0.00005   0.00005  -0.00009
   D21       -3.14153   0.00000  -0.00001   0.00015   0.00014  -3.14139
   D22       -0.00095   0.00000   0.00001   0.00022   0.00022  -0.00073
   D23        0.00005   0.00001  -0.00002   0.00024   0.00022   0.00028
   D24        3.14063   0.00001   0.00000   0.00030   0.00030   3.14094
   D25       -0.00007   0.00000  -0.00001   0.00003   0.00003  -0.00004
   D26        3.14159  -0.00000  -0.00000  -0.00004  -0.00004   3.14154
   D27       -3.14153  -0.00000   0.00001  -0.00004  -0.00004  -3.14157
   D28        0.00012  -0.00000   0.00001  -0.00012  -0.00011   0.00001
   D29        0.00017  -0.00001   0.00003  -0.00032  -0.00030  -0.00013
   D30       -3.14158  -0.00000   0.00001  -0.00008  -0.00007   3.14154
   D31       -3.14154  -0.00001   0.00001  -0.00025  -0.00024   3.14141
   D32       -0.00010   0.00000  -0.00000  -0.00001  -0.00001  -0.00011
   D33        0.00005  -0.00001   0.00004  -0.00046  -0.00042  -0.00036
   D34       -3.14157  -0.00000   0.00001  -0.00011  -0.00010   3.14151
   D35       -3.14052  -0.00001   0.00002  -0.00052  -0.00050  -3.14103
   D36        0.00103  -0.00000  -0.00001  -0.00017  -0.00018   0.00085
   D37       -0.00014   0.00001  -0.00004   0.00047   0.00043   0.00029
   D38        3.14149   0.00000  -0.00001   0.00008   0.00007   3.14156
   D39       -3.14158   0.00001  -0.00002   0.00023   0.00021  -3.14137
   D40        0.00005  -0.00000   0.00000  -0.00016  -0.00016  -0.00010
         Item               Value     Threshold  Converged?
 Maximum Force            0.009054     0.000450     NO 
 RMS     Force            0.001827     0.000300     NO 
 Maximum Displacement     0.029503     0.001800     NO 
 RMS     Displacement     0.007534     0.001200     NO 
 Predicted change in Energy=-4.151311D-04
 GradGradGradGradGradGradGradGradGradGradGradGradGradGradGradGradGradGrad

                          Input orientation:                          
 ---------------------------------------------------------------------
 Center     Atomic      Atomic             Coordinates (Angstroms)
 Number     Number       Type             X           Y           Z
 ---------------------------------------------------------------------
[...]
 ! D8    D(15,1,6,16)            0.0205         -DE/DX =    0.0                 !
 ! D9    D(1,2,3,4)              0.1908         -DE/DX =    0.0                 !
 ! D10   D(1,2,3,14)          -179.9839         -DE/DX =    0.0                 !
 ! D11   D(13,2,3,4)          -179.865          -DE/DX =    0.0                 !
 ! D12   D(13,2,3,14)           -0.0397         -DE/DX =    0.0                 !
 ! D13   D(2,3,4,5)             -0.143          -DE/DX =    0.0                 !
 ! D14   D(2,3,4,7)            179.946          -DE/DX =    0.0                 !
 ! D15   D(14,3,4,5)          -179.9644         -DE/DX =    0.0                 !
 ! D16   D(14,3,4,7)             0.1247         -DE/DX =    0.0                 !
 ! D17   D(3,4,5,6)             -0.0385         -DE/DX =    0.0                 !
 ! D18   D(3,4,5,8)           -179.8805         -DE/DX =    0.0                 !
 ! D19   D(7,4,5,6)            179.8906         -DE/DX =    0.0                 !
 ! D20   D(7,4,5,8)              0.0486         -DE/DX =    0.0                 !
 ! D21   D(3,4,7,9)            179.7925         -DE/DX =    0.0                 !
 ! D22   D(3,4,7,10)             0.119          -DE/DX =    0.0                 !
 ! D23   D(5,4,7,9)             -0.1298         -DE/DX =    0.0                 !
 ! D24   D(5,4,7,10)          -179.8033         -DE/DX =    0.0                 !
 ! D25   D(4,5,6,1)              0.1795         -DE/DX =    0.0                 !
 ! D26   D(4,5,6,16)          -179.9529         -DE/DX =    0.0                 !
 ! D27   D(8,5,6,1)            179.9711         -DE/DX =    0.0                 !
 ! D28   D(8,5,6,16)            -0.1613         -DE/DX =    0.0                 !
 ! D29   D(4,5,8,9)              0.0443         -DE/DX =    0.0                 !
 ! D30   D(4,5,8,11)           179.9499         -DE/DX =    0.0                 !
 ! D31   D(6,5,8,9)           -179.7652         -DE/DX =    0.0                 !
 ! D32   D(6,5,8,11)             0.1404         -DE/DX =    0.0                 !
 ! D33   D(4,7,9,8)              0.1587         -DE/DX =    0.0                 !
 ! D34   D(4,7,9,12)          -179.9482         -DE/DX =    0.0                 !
 ! D35   D(10,7,9,8)           179.8322         -DE/DX =    0.0                 !
 ! D36   D(10,7,9,12)           -0.2747         -DE/DX =    0.0                 !
 ! D37   D(5,8,9,7)             -0.1244         -DE/DX =    0.0                 !
 ! D38   D(5,8,9,12)          -180.0062         -DE/DX =    0.0                 !
 ! D39   D(11,8,9,7)           179.9662         -DE/DX =    0.0                 !
 ! D40   D(11,8,9,12)            0.0843         -DE/DX =    0.0                 !
 --------------------------------------------------------------------------------
 GradGradGradGradGradGradGradGradGradGradGradGradGradGradGradGradGradGrad

                          Input orientation:                          
 ---------------------------------------------------------------------
 Center     Atomic      Atomic             Coordinates (Angstroms)
 Number     Number       Type             X           Y           Z
 ---------------------------------------------------------------------
      1          6           0       -2.169234    0.696878   -0.000713
      2          6           0       -2.142602   -0.689870    0.000319
      3          6           0       -0.897116   -1.426186   -0.000621
      4          6           0        0.254067   -0.678656    0.001508
      5          6           0        0.260667    0.747597    0.001528
      6          6           0       -0.993929    1.455721   -0.001631
      7          7           0        1.580606   -1.077658    0.002312
      8          6           0        1.589413    1.153181    0.001215
      9          6           0        2.393962   -0.007290   -0.000034
     10          1           0        1.888348   -2.023875   -0.000317
     11          1           0        1.969662    2.154432    0.000398
     12          1           0        3.459161   -0.103722   -0.000692
     13          1           0       -3.064603   -1.241930    0.000936
     14          1           0       -0.894089   -2.500400   -0.000059
     15          1           0       -3.119238    1.199681   -0.001164
     16          1           0       -1.018171    2.529543   -0.002449
 ---------------------------------------------------------------------
                    Distance matrix (angstroms):
                    1          2          3          4          5
     1  C    0.000000
     2  C    1.387004   0.000000
     3  C    2.475012   1.446857   0.000000
     4  C    2.786483   2.396696   1.372600   0.000000
     5  C    2.430431   2.800359   2.462884   1.426268   0.000000
     6  C    1.398995   2.433724   2.883532   2.472462   1.440645
     7  N    4.148528   3.743348   2.502116   1.385246   2.252509
     8  C    3.786245   4.162304   3.582731   2.266886   1.389268
     9  C    4.617208   4.587627   3.583917   2.242740   2.262920
    10  H    4.885333   4.245955   2.848868   2.116718   3.214096
    11  H    4.388043   5.000076   4.586855   3.312046   2.213560
    12  H    5.685051   5.632346   4.552589   3.256253   3.309852
    13  H    2.135572   1.074644   2.175305   3.366133   3.875002
    14  H    3.442177   2.199273   1.074219   2.153374   3.447165
    15  H    1.074857   2.127022   3.439913   3.861003   3.410006
    16  H    2.164164   3.410127   3.957581   3.451252   2.193347
                    6          7          8          9         10
     6  C    0.000000
     7  N    3.611959   0.000000
     8  C    2.600999   2.230856   0.000000
     9  C    3.690285   1.344336   1.412088   0.000000
    10  H    4.518308   0.995007   3.191089   2.079004   0.000000
    11  H    3.044843   3.255422   1.071024   2.202969   4.179098
    12  H    4.718249   2.116018   2.252946   1.069556   2.480815
    13  H    3.400738   4.648113   5.234160   5.596451   5.014297
    14  H    3.957380   2.854525   4.417741   4.126363   2.822948
    15  H    2.140676   5.222529   4.708881   5.643771   5.955437
    16  H    1.074096   4.445848   2.948539   4.251844   5.401988
                   11         12         13         14         15
    11  H    0.000000
    12  H    2.705156   0.000000
    13  H    6.072817   6.622313   0.000000
    14  H    5.465211   4.969392   2.508959   0.000000
    15  H    5.177688   6.706280   2.442224   4.317625   0.000000
    16  H    3.011289   5.194285   4.290910   5.031473   2.486567
                   16
    16  H    0.000000
 Stoichiometry    C8H7N
 Framework group  C1[X(C8H7N)]
 Deg. of freedom    42
 Full point group                 C1      NOp   1
 Largest Abelian subgroup         C1      NOp   1
 Largest concise Abelian subgroup C1      NOp   1
                         Standard orientation:                         
 ---------------------------------------------------------------------
 Center     Atomic      Atomic             Coordinates (Angstroms)
 Number     Number       Type             X           Y           Z
 ---------------------------------------------------------------------
      1          6           0       -2.186091    0.645507   -0.000078
      2          6           0       -2.126541   -0.740218    0.000446
      3          6           0       -0.863925   -1.446756   -0.001185
      4          6           0        0.269187   -0.672106    0.000819
      5          6           0        0.241922    0.753902    0.001349
      6          6           0       -1.029133    1.432040   -0.001126
      7          7           0        1.604824   -1.039501    0.001024
      8          6           0        1.560665    1.190918    0.000727
      9          6           0        2.392537    0.049877   -0.001216
     10          1           0        1.934945   -1.978144   -0.002050
     11          1           0        1.917034    2.200915    0.000139
     12          1           0        3.459726   -0.021237   -0.002273
     13          1           0       -3.035175   -1.314014    0.001181
     14          1           0       -0.835395   -2.520595   -0.001011
     15          1           0       -3.147764    1.125613   -0.000023
     16          1           0       -1.078864    2.504984   -0.001549
 ---------------------------------------------------------------------
 Rotational constants (GHZ):           3.8787842           1.6327981           1.1490847

 **********************************************************************

            Population analysis using the CI Density.

 **********************************************************************

 Orbital symmetries:
       Occupied  (A) (A) (A) (A) (A) (A) (A) (A) (A) (A) (A) (A)
                 (A) (A) (A) (A) (A) (A) (A) (A) (A) (A) (A) (A)
                 (A) (A) (A) (A) (A) (A) (A)
       Virtual   (A) (A) (A) (A) (A) (A) (A) (A) (A) (A) (A) (A)
                 (A) (A) (A) (A) (A) (A) (A) (A) (A) (A) (A) (A)
                 (A) (A) (A) (A) (A) (A) (A) (A) (A) (A) (A) (A)
                 (A) (A) (A) (A) (A) (A) (A) (A) (A) (A) (A) (A)
                 (A) (A) (A) (A) (A) (A) (A) (A) (A) (A) (A) (A)
                 (A) (A) (A) (A) (A) (A) (A) (A) (A) (A) (A) (A)
                 (A) (A) (A) (A) (A) (A) (A) (A) (A) (A) (A) (A)
                 (A) (A) (A) (A) (A) (A) (A) (A) (A) (A) (A) (A)
                 (A) (A) (A) (A) (A) (A) (A) (A) (A) (A) (A) (A)
                 (A) (A) (A) (A) (A) (A) (A) (A) (A) (A) (A) (A)
                 (A) (A) (A) (A) (A) (A) (A) (A) (A) (A) (A) (A)
                 (A) (A) (A) (A) (A) (A) (A) (A) (A) (A) (A) (A)
                 (A) (A) (A) (A) (A) (A) (A) (A) (A) (A)
 The electronic state is 1-A.
 Alpha  occ. eigenvalues --  -15.61789 -11.28151 -11.26940 -11.24208 -11.23764
 Alpha  occ. eigenvalues --  -11.23521 -11.23363 -11.22753 -11.21809  -1.31128
 Alpha  occ. eigenvalues --   -1.12905  -1.05854  -1.00955  -0.96596  -0.85215
 Alpha  occ. eigenvalues --   -0.81513  -0.79126  -0.73469  -0.67066  -0.65191
 Alpha  occ. eigenvalues --   -0.61031  -0.60184  -0.58780  -0.56993  -0.55451
 Alpha  occ. eigenvalues --   -0.50553  -0.49221  -0.46244  -0.38214  -0.31190
 Alpha  occ. eigenvalues --   -0.26530
 Alpha virt. eigenvalues --    0.05886   0.07640   0.08185   0.08819   0.09228
 Alpha virt. eigenvalues --    0.09793   0.12073   0.12109   0.12934   0.13377
 Alpha virt. eigenvalues --    0.13444   0.14168   0.15849   0.16061   0.16300
 Alpha virt. eigenvalues --    0.17415   0.18602   0.20154   0.21236   0.21772
 Alpha virt. eigenvalues --    0.22254   0.23372   0.24307   0.24990   0.25470
 Alpha virt. eigenvalues --    0.26514   0.27033   0.27745   0.28250   0.29224
 Alpha virt. eigenvalues --    0.29674   0.30268   0.31131   0.31400   0.32547
 Alpha virt. eigenvalues --    0.33468   0.34600   0.34926   0.35861   0.37958
 Alpha virt. eigenvalues --    0.39827   0.39991   0.41705   0.43015   0.44510
 Alpha virt. eigenvalues --    0.46360   0.47064   0.47754   0.49959   0.52533
 Alpha virt. eigenvalues --    0.54154   0.57593   0.62081   0.65672   0.71630
 Alpha virt. eigenvalues --    0.79059   0.83734   0.87557   0.90460   0.92929
 Alpha virt. eigenvalues --    0.94014   0.95436   0.96026   0.96803   0.98267
 Alpha virt. eigenvalues --    0.99310   1.01453   1.01611   1.03123   1.03540
 Alpha virt. eigenvalues --    1.04405   1.09602   1.13914   1.14083   1.15773
 Alpha virt. eigenvalues --    1.19056   1.20449   1.20710   1.22132   1.23876
 Alpha virt. eigenvalues --    1.25543   1.27238   1.28922   1.30603   1.32536
 Alpha virt. eigenvalues --    1.34137   1.35728   1.40239   1.40675   1.43611
 Alpha virt. eigenvalues --    1.46512   1.49154   1.49480   1.57696   1.58554
 Alpha virt. eigenvalues --    1.60864   1.61206   1.66355   1.68282   1.70507
 Alpha virt. eigenvalues --    1.74532   1.74974   1.78132   1.78208   1.80102
 Alpha virt. eigenvalues --    1.85268   1.91732   2.07437   2.12060   2.19169
 Alpha virt. eigenvalues --    2.20227   2.21908   2.26829   2.31920   2.32702
 Alpha virt. eigenvalues --    2.32960   2.36605   2.40437   2.46197   2.47628
 Alpha virt. eigenvalues --    2.49178   2.53152   2.56132   2.57236   2.59998
 Alpha virt. eigenvalues --    2.60821   2.64577   2.70605   2.75356   2.79540
 Alpha virt. eigenvalues --    2.88048   2.91068   2.96580   2.99473   2.99825
 Alpha virt. eigenvalues --    3.03332   3.08156   3.15741   3.19311   3.21375
 Alpha virt. eigenvalues --    3.31434   3.33278   3.49628   3.62947   3.80263
 Alpha virt. eigenvalues --    4.59175   4.67274   4.70510   4.73551   4.78443
 Alpha virt. eigenvalues --    4.83522   4.90655   4.94065   5.21012
          Condensed to atoms (all electrons):
               1          2          3          4          5          6
     1  C    6.198591  -0.070732   0.712544  -0.720782   0.290639  -0.709418
     2  C   -0.070732   6.490934  -0.816573   0.473458  -0.624461   0.892792
     3  C    0.712544  -0.816573  11.442290  -0.523407  -3.047110  -2.680404
     4  C   -0.720782   0.473458  -0.523407  10.354624  -3.391249  -0.940071
     5  C    0.290639  -0.624461  -3.047110  -3.391249  13.090867   0.240792
     6  C   -0.709418   0.892792  -2.680404  -0.940071   0.240792  12.315966
     7  N   -0.020606   0.029646  -0.648542  -0.110042   0.902636   0.053646
     8  C    0.145148  -0.330559   2.424395   2.395233  -4.081989  -3.494001
     9  C   -0.120514   0.027090  -0.879412  -0.833113   1.315996   0.977127
    10  H   -0.002255  -0.002762  -0.106463  -0.041342   0.134592   0.018884
    11  H    0.002784   0.001320   0.003154  -0.020753   0.051411   0.034887
    12  H    0.001638  -0.000714   0.035831   0.082300  -0.119115  -0.009986
    13  H    0.057794   0.255056   0.036989  -0.022076   0.034314  -0.034032
    14  H   -0.002400   0.071631   0.252177   0.047765  -0.036480  -0.010711
    15  H    0.248393   0.057515   0.001843  -0.010491   0.022457   0.000745
    16  H    0.049223  -0.010856  -0.001938   0.015340   0.080054   0.178574
               7          8          9         10         11         12
     1  C   -0.020606   0.145148  -0.120514  -0.002255   0.002784   0.001638
     2  C    0.029646  -0.330559   0.027090  -0.002762   0.001320  -0.000714
     3  C   -0.648542   2.424395  -0.879412  -0.106463   0.003154   0.035831
     4  C   -0.110042   2.395233  -0.833113  -0.041342  -0.020753   0.082300
     5  C    0.902636  -4.081989   1.315996   0.134592   0.051411  -0.119115
     6  C    0.053646  -3.494001   0.977127   0.018884   0.034887  -0.009986
     7  N    7.320202  -0.713486   0.463799   0.293513   0.004474  -0.049379
     8  C   -0.713486  10.605188  -1.304717  -0.044927   0.251683   0.121126
     9  C    0.463799  -1.304717   6.327578   0.016791   0.004617   0.278037
    10  H    0.293513  -0.044927   0.016791   0.245283  -0.000043  -0.000814
    11  H    0.004474   0.251683   0.004617  -0.000043   0.402668   0.000372
    12  H   -0.049379   0.121126   0.278037  -0.000814   0.000372   0.394361
    13  H   -0.000269   0.005814   0.000096  -0.000000   0.000000  -0.000000
    14  H   -0.001148   0.008644   0.000825   0.001029   0.000001   0.000001
    15  H    0.000228   0.013099  -0.000038  -0.000000  -0.000001  -0.000000
    16  H   -0.000757   0.016430   0.000955   0.000002   0.000691  -0.000000
              13         14         15         16
     1  C    0.057794  -0.002400   0.248393   0.049223
     2  C    0.255056   0.071631   0.057515  -0.010856
     3  C    0.036989   0.252177   0.001843  -0.001938
     4  C   -0.022076   0.047765  -0.010491   0.015340
     5  C    0.034314  -0.036480   0.022457   0.080054
     6  C   -0.034032  -0.010711   0.000745   0.178574
     7  N   -0.000269  -0.001148   0.000228  -0.000757
     8  C    0.005814   0.008644   0.013099   0.016430
     9  C    0.000096   0.000825  -0.000038   0.000955
    10  H   -0.000000   0.001029  -0.000000   0.000002
    11  H    0.000000   0.000001  -0.000001   0.000691
    12  H   -0.000000   0.000001  -0.000000  -0.000000
    13  H    0.431746  -0.000761  -0.001093  -0.000089
    14  H   -0.000761   0.426896  -0.000083   0.000009
    15  H   -0.001093  -0.000083   0.437237  -0.000765
    16  H   -0.000089   0.000009  -0.000765   0.422933
 Mulliken charges:
               1
     1  C   -0.060046
     2  C   -0.442784
     3  C   -0.205373
     4  C   -0.755393
     5  C    1.136646
     6  C   -0.834792
     7  N   -0.523916
     8  C   -0.017080
     9  C   -0.275117
    10  H    0.488513
    11  H    0.262733
    12  H    0.266343
    13  H    0.236512
    14  H    0.242604
    15  H    0.230955
    16  H    0.250195
 Sum of Mulliken charges =  -0.00000
 Mulliken charges with hydrogens summed into heavy atoms:
               1
     1  C    0.170909
     2  C   -0.206272
     3  C    0.037231
     4  C   -0.755393
     5  C    1.136646
     6  C   -0.584597
     7  N   -0.035403
     8  C    0.245652
     9  C   -0.008773
 Electronic spatial extent (au):  <R**2>=           1017.2415
 Charge=              0.0000 electrons
 Dipole moment (field-independent basis, Debye):
    X=              2.6376    Y=             -1.5245    Z=              0.0635  Tot=              3.0472
 Quadrupole moment (field-independent basis, Debye-Ang):
   XX=            -46.9173   YY=            -47.0959   ZZ=            -63.6880
   XY=             -2.4435   XZ=              0.1171   YZ=             -0.0241
 Traceless Quadrupole moment (field-independent basis, Debye-Ang):
   XX=              5.6498   YY=              5.4711   ZZ=            -11.1209
   XY=             -2.4435   XZ=              0.1171   YZ=             -0.0241
 Octapole moment (field-independent basis, Debye-Ang**2):
  XXX=             16.7303  YYY=            -11.3216  ZZZ=              0.5328  XYY=             11.5476
  XXY=             -8.2716  XXZ=              0.3815  XZZ=              0.8965  YZZ=             -2.4030
  YYZ=              0.2958  XYZ=             -0.0593
 Hexadecapole moment (field-independent basis, Debye-Ang**3):
 XXXX=           -868.9976 YYYY=           -397.7277 ZZZZ=           -107.6035 XXXY=            -22.2348
 XXXZ=              1.8031 YYYX=            -14.5865 YYYZ=             -0.2354 ZZZX=              0.9092
 ZZZY=             -0.2350 XXYY=           -202.2936 XXZZ=           -219.4211 YYZZ=           -111.6816
 XXYZ=             -0.0860 YYXZ=              0.1949 ZZXY=             -2.4098
 N-N= 4.002155920902D+02 E-N=-1.641531146085D+03  KE= 3.608994605369D+02
 Unable to Open any file for archive entry.
 1\1\GINC-EXP-2-40\FOpt\RCIS(D,FC)\6-31+G(d)\C8H7N1\CWALDT\23-Jun-2021\
 0\\# td= (nstates=6, root=3) CIS/6-31+G* Opt density=current\\FuncsCIS
 -V-3rd\\0,1\C,-2.1692344457,0.6968784663,-0.000712877\C,-2.14260173,-0
 .6898695259,0.0003189834\C,-0.8971164432,-1.4261857314,-0.0006207374\C
 ,0.2540672637,-0.6786555697,0.0015082357\C,0.2606665325,0.7475973441,0
 .0015278251\C,-0.9939287581,1.4557207211,-0.0016305484\N,1.5806055796,
 -1.0776578092,0.0023117354\C,1.5894134593,1.153180551,0.001215135\C,2.
 3939615619,-0.0072904035,-0.0000342921\H,1.8883483928,-2.0238750293,-0
 .00031742\H,1.9696619018,2.1544316237,0.0003981201\H,3.4591614767,-0.1
 037221909,-0.000692195\H,-3.0646034638,-1.2419304576,0.0009362942\H,-0
 .8940893798,-2.5003998418,-0.0000594114\H,-3.1192376232,1.1996810729,-
 0.0011641173\H,-1.0181713246,2.52954278,-0.0024487302\\Version=AS64L-G
 16RevC.01\State=1-A\HF=-361.4670205\RMSD=6.063e-09\RMSF=3.597e-05\Dipo
 le=1.0377277,-0.599779,0.0249735\Quadrupole=4.2004599,4.0676659,-8.268
 1258,-1.8166494,0.087078,-0.0179176\PG=C01 [X(C8H7N1)]\\@
 The archive entry for this job was punched.


 THE LENGTH OF A MEETING IS PROPORTIONAL TO THE
 SQUARE OF THE PARTICIPANTS.
 Job cpu time:       0 days  1 hours  9 minutes  3.2 seconds.
 Elapsed time:       0 days  0 hours 20 minutes 45.3 seconds.
 File lengths (MBytes):  RWF=    192 Int=      0 D2E=      0 Chk=     11 Scr=      1
 Normal termination of Gaussian 16 at Wed Jun 23 07:49:49 2021.
