 Entering Gaussian System, Link 0=/cm/shared/apps/spack/cpu/opt/spack/linux-centos8-zen/gcc-8.3.1/gaussian-16.C.01-po5bqktfeugvmjyga3v7eigbecnokxng/g16/g16
 Initial command:
 /cm/shared/apps/spack/cpu/opt/spack/linux-centos8-zen/gcc-8.3.1/gaussian-16.C.01-po5bqktfeugvmjyga3v7eigbecnokxng/g16/l1.exe "/scratch/cwaldt/job_3575953/Gau-109606.inp" -scrdir="/scratch/cwaldt/job_3575953/"
 Entering Link 1 = /cm/shared/apps/spack/cpu/opt/spack/linux-centos8-zen/gcc-8.3.1/gaussian-16.C.01-po5bqktfeugvmjyga3v7eigbecnokxng/g16/l1.exe PID=    109607.
  
 Copyright (c) 1988-2019, Gaussian, Inc.  All Rights Reserved.
  
 This is part of the Gaussian(R) 16 program.  It is based on
 the Gaussian(R) 09 system (copyright 2009, Gaussian, Inc.),
 the Gaussian(R) 03 system (copyright 2003, Gaussian, Inc.),
 the Gaussian(R) 98 system (copyright 1998, Gaussian, Inc.),
 the Gaussian(R) 94 system (copyright 1995, Gaussian, Inc.),
 the Gaussian 92(TM) system (copyright 1992, Gaussian, Inc.),
 the Gaussian 90(TM) system (copyright 1990, Gaussian, Inc.),
 the Gaussian 88(TM) system (copyright 1988, Gaussian, Inc.),
 the Gaussian 86(TM) system (copyright 1986, Carnegie Mellon
 University), and the Gaussian 82(TM) system (copyright 1983,
 Carnegie Mellon University). Gaussian is a federally registered
 trademark of Gaussian, Inc.
  
 This software contains proprietary and confidential information,
 including trade secrets, belonging to Gaussian, Inc.
  
 This software is provided under written license and may be
 used, copied, transmitted, or stored only in accord with that
 written license.
  
 The following legend is applicable only to US Government
 contracts under FAR:
  
                    RESTRICTED RIGHTS LEGEND
  
 Use, reproduction and disclosure by the US Government is
 subject to restrictions as set forth in subparagraphs (a)
 and (c) of the Commercial Computer Software - Restricted
 Rights clause in FAR 52.227-19.
  
 Gaussian, Inc.
 340 Quinnipiac St., Bldg. 40, Wallingford CT 06492
  
  
 ---------------------------------------------------------------
 Warning -- This program may not be used in any manner that
 competes with the business of Gaussian, Inc. or will provide
 assistance to any competitor of Gaussian, Inc.  The licensee
 of this program is prohibited from giving any competitor of
 Gaussian, Inc. access to this program.  By using this program,
 the user acknowledges that Gaussian, Inc. is engaged in the
 business of creating and licensing software in the field of
 computational chemistry and represents and warrants to the
 licensee that it is not a competitor of Gaussian, Inc. and that
 it will not use this program in any manner prohibited above.
 ---------------------------------------------------------------
  

 Cite this work as:
 Gaussian 16, Revision C.01,
 M. J. Frisch, G. W. Trucks, H. B. Schlegel, G. E. Scuseria, 
 M. A. Robb, J. R. Cheeseman, G. Scalmani, V. Barone, 
 G. A. Petersson, H. Nakatsuji, X. Li, M. Caricato, A. V. Marenich, 
 J. Bloino, B. G. Janesko, R. Gomperts, B. Mennucci, H. P. Hratchian, 
 J. V. Ortiz, A. F. Izmaylov, J. L. Sonnenberg, D. Williams-Young, 
 F. Ding, F. Lipparini, F. Egidi, J. Goings, B. Peng, A. Petrone, 
 T. Henderson, D. Ranasinghe, V. G. Zakrzewski, J. Gao, N. Rega, 
 G. Zheng, W. Liang, M. Hada, M. Ehara, K. Toyota, R. Fukuda, 
 J. Hasegawa, M. Ishida, T. Nakajima, Y. Honda, O. Kitao, H. Nakai, 
 T. Vreven, K. Throssell, J. A. Montgomery, Jr., J. E. Peralta, 
 F. Ogliaro, M. J. Bearpark, J. J. Heyd, E. N. Brothers, K. N. Kudin, 
 V. N. Staroverov, T. A. Keith, R. Kobayashi, J. Normand, 
 K. Raghavachari, A. P. Rendell, J. C. Burant, S. S. Iyengar, 
 J. Tomasi, M. Cossi, J. M. Millam, M. Klene, C. Adamo, R. Cammi, 
 J. W. Ochterski, R. L. Martin, K. Morokuma, O. Farkas, 
 J. B. Foresman, and D. J. Fox, Gaussian, Inc., Wallingford CT, 2019.
 
 ******************************************
 Gaussian 16:  AS64L-G16RevC.01  3-Jul-2019
                23-Jun-2021 
 ******************************************
 %nprocshared=4
 Will use up to    4 processors via shared memory.
 %chk=FuncsCIS-V-2nd.chk
 %Mem=3GB
 ---------------------------------------------------------
 # td= (nstates=6, root=2) CIS/6-31+G* Opt density=current
 ---------------------------------------------------------
 1/18=20,19=15,38=1/1,3;
 2/9=110,12=2,17=6,18=5,40=1/2;
 3/5=1,6=6,7=11,11=9,25=1,30=1,71=1/1,2,3,8;
 4//1;
 5/5=2,38=5/2;
 8/6=1,10=2,107=2,108=6/1;
 9/8=2,15=2,41=6,42=1/14;
 10/5=4,28=2/2;
 6/7=2,8=2,9=2,10=2,22=-1/1;
 7/12=6,13=5,14=2/1,2,3,16;
 1/18=20,19=15/3(2);
 2/9=110/2;
 99//99;
 2/9=110/2;
 3/5=1,6=6,7=11,11=9,25=1,30=1,71=1/1,2,3,8;
 4/5=5,16=3,69=1/1;
 5/5=2,38=5/2;
 8/6=1,10=2,107=2,108=6/1;
 9/8=2,15=2,41=6,42=1,49=4/14;
 10/5=4,28=2/2;
 7/12=6,13=5,14=2/1,2,3,16;
 1/18=20,19=15/3(-8);
 2/9=110/2;
 6/7=2,8=2,9=2,10=2,22=-1/1;
 99/9=10/99;
 --------------
 FuncsCIS-V-2nd
 --------------
 Symbolic Z-matrix:
 Charge =  0 Multiplicity = 1
 C                    -2.15106   0.68921   0.00009 
 C                    -2.12793  -0.71582   0.00008 
 C                    -0.9323   -1.4131   -0.00001 
 C                     0.24691  -0.6702   -0.00004 
 C                     0.24819   0.7483    0. 
 C                    -0.97947   1.42353   0.00003 
 N                     1.56177  -1.07759  -0.00029 
 C                     1.62013   1.1629   -0.00016 
 C                     2.38201   0.03081   0.00025 
 H                     1.87632  -2.03001   0.00044 
 H                     1.99217   2.17301  -0.00035 
 H                     3.45255  -0.08243   0.00041 
 H                    -3.06159  -1.26202   0.00009 
 H                    -0.91725  -2.49534  -0.00007 
 H                    -3.1042    1.20079   0.00009 
 H                    -1.00935   2.50542  -0.00002 
 

 GradGradGradGradGradGradGradGradGradGradGradGradGradGradGradGradGradGrad
 Berny optimization.
 Initialization pass.
                           ----------------------------
                           !    Initial Parameters    !
                           ! (Angstroms and Degrees)  !
 --------------------------                            --------------------------
 ! Name  Definition              Value          Derivative Info.                !
 --------------------------------------------------------------------------------
 ! R1    R(1,2)                  1.4052         estimate D2E/DX2                !
 ! R2    R(1,6)                  1.3827         estimate D2E/DX2                !
 ! R3    R(1,15)                 1.0818         estimate D2E/DX2                !
 ! R4    R(2,3)                  1.3841         estimate D2E/DX2                !
 ! R5    R(2,13)                 1.0817         estimate D2E/DX2                !
 ! R6    R(3,4)                  1.3937         estimate D2E/DX2                !
 ! R7    R(3,14)                 1.0823         estimate D2E/DX2                !
 ! R8    R(4,5)                  1.4185         estimate D2E/DX2                !
 ! R9    R(4,7)                  1.3765         estimate D2E/DX2                !
 ! R10   R(5,6)                  1.4011         estimate D2E/DX2                !
 ! R11   R(5,8)                  1.4332         estimate D2E/DX2                !
 ! R12   R(6,16)                 1.0823         estimate D2E/DX2                !
 ! R13   R(7,9)                  1.3789         estimate D2E/DX2                !
 ! R14   R(7,10)                 1.003          estimate D2E/DX2                !
 ! R15   R(8,9)                  1.3646         estimate D2E/DX2                !
 ! R16   R(8,11)                 1.0764         estimate D2E/DX2                !
 ! R17   R(9,12)                 1.0765         estimate D2E/DX2                !
 ! A1    A(2,1,6)              121.1349         estimate D2E/DX2                !
 ! A2    A(2,1,15)             119.1671         estimate D2E/DX2                !
 ! A3    A(6,1,15)             119.698          estimate D2E/DX2                !
 ! A4    A(1,2,3)              121.1938         estimate D2E/DX2                !
 ! A5    A(1,2,13)             119.3846         estimate D2E/DX2                !
 ! A6    A(3,2,13)             119.4217         estimate D2E/DX2                !
 ! A7    A(2,3,4)              117.5387         estimate D2E/DX2                !
 ! A8    A(2,3,14)             121.0469         estimate D2E/DX2                !
 ! A9    A(4,3,14)             121.4144         estimate D2E/DX2                !
 ! A10   A(3,4,5)              122.2626         estimate D2E/DX2                !
 ! A11   A(3,4,7)              130.5743         estimate D2E/DX2                !
 ! A12   A(5,4,7)              107.163          estimate D2E/DX2                !
 ! A13   A(4,5,6)              118.7594         estimate D2E/DX2                !
 ! A14   A(4,5,8)              106.8666         estimate D2E/DX2                !
 ! A15   A(6,5,8)              134.374          estimate D2E/DX2                !
 ! A16   A(1,6,5)              119.1105         estimate D2E/DX2                !
 ! A17   A(1,6,16)             120.4966         estimate D2E/DX2                !
 ! A18   A(5,6,16)             120.3928         estimate D2E/DX2                !
 ! A19   A(4,7,9)              109.2874         estimate D2E/DX2                !
 ! A20   A(4,7,10)             125.4909         estimate D2E/DX2                !
 ! A21   A(9,7,10)             125.2217         estimate D2E/DX2                !
 ! A22   A(5,8,9)              107.125          estimate D2E/DX2                !
 ! A23   A(5,8,11)             127.0344         estimate D2E/DX2                !
 ! A24   A(9,8,11)             125.8405         estimate D2E/DX2                !
 ! A25   A(7,9,8)              109.5578         estimate D2E/DX2                !
 ! A26   A(7,9,12)             120.4645         estimate D2E/DX2                !
 ! A27   A(8,9,12)             129.9776         estimate D2E/DX2                !
 ! D1    D(6,1,2,3)             -0.0008         estimate D2E/DX2                !
 ! D2    D(6,1,2,13)          -179.9981         estimate D2E/DX2                !
 ! D3    D(15,1,2,3)           179.996          estimate D2E/DX2                !
 ! D4    D(15,1,2,13)           -0.0013         estimate D2E/DX2                !
 ! D5    D(2,1,6,5)             -0.0018         estimate D2E/DX2                !
 ! D6    D(2,1,6,16)           179.9965         estimate D2E/DX2                !
 ! D7    D(15,1,6,5)          -179.9986         estimate D2E/DX2                !
 ! D8    D(15,1,6,16)           -0.0003         estimate D2E/DX2                !
 ! D9    D(1,2,3,4)              0.002          estimate D2E/DX2                !
 ! D10   D(1,2,3,14)          -179.9968         estimate D2E/DX2                !
 ! D11   D(13,2,3,4)           179.9992         estimate D2E/DX2                !
 ! D12   D(13,2,3,14)            0.0005         estimate D2E/DX2                !
 ! D13   D(2,3,4,5)             -0.0005         estimate D2E/DX2                !
 ! D14   D(2,3,4,7)           -179.9911         estimate D2E/DX2                !
 ! D15   D(14,3,4,5)           179.9982         estimate D2E/DX2                !
 ! D16   D(14,3,4,7)             0.0076         estimate D2E/DX2                !
 ! D17   D(3,4,5,6)             -0.002          estimate D2E/DX2                !
 ! D18   D(3,4,5,8)           -179.9955         estimate D2E/DX2                !
 ! D19   D(7,4,5,6)            179.9905         estimate D2E/DX2                !
 ! D20   D(7,4,5,8)             -0.003          estimate D2E/DX2                !
 ! D21   D(3,4,7,9)           -179.98           estimate D2E/DX2                !
 ! D22   D(3,4,7,10)            -0.0649         estimate D2E/DX2                !
 ! D23   D(5,4,7,9)              0.0284         estimate D2E/DX2                !
 ! D24   D(5,4,7,10)           179.9434         estimate D2E/DX2                !
 ! D25   D(4,5,6,1)              0.0031         estimate D2E/DX2                !
 ! D26   D(4,5,6,16)          -179.9951         estimate D2E/DX2                !
 ! D27   D(8,5,6,1)            179.9944         estimate D2E/DX2                !
 ! D28   D(8,5,6,16)            -0.0038         estimate D2E/DX2                !
 ! D29   D(4,5,8,9)             -0.0234         estimate D2E/DX2                !
 ! D30   D(4,5,8,11)           179.9883         estimate D2E/DX2                !
 ! D31   D(6,5,8,9)            179.9846         estimate D2E/DX2                !
 ! D32   D(6,5,8,11)            -0.0037         estimate D2E/DX2                !
 ! D33   D(4,7,9,8)             -0.0444         estimate D2E/DX2                !
 ! D34   D(4,7,9,12)           179.9847         estimate D2E/DX2                !
 ! D35   D(10,7,9,8)          -179.9597         estimate D2E/DX2                !
 ! D36   D(10,7,9,12)            0.0693         estimate D2E/DX2                !
 ! D37   D(5,8,9,7)              0.0414         estimate D2E/DX2                !
 ! D38   D(5,8,9,12)          -179.9913         estimate D2E/DX2                !
 ! D39   D(11,8,9,7)          -179.9702         estimate D2E/DX2                !
 ! D40   D(11,8,9,12)           -0.0029         estimate D2E/DX2                !
 --------------------------------------------------------------------------------
 Trust Radius=3.00D-01 FncErr=1.00D-07 GrdErr=1.00D-07 EigMax=2.50D+02 EigMin=1.00D-04
 Number of steps in this run=     94 maximum allowed number of steps=    100.
 GradGradGradGradGradGradGradGradGradGradGradGradGradGradGradGradGradGrad

                          Input orientation:                          
 ---------------------------------------------------------------------
 Center     Atomic      Atomic             Coordinates (Angstroms)
 Number     Number       Type             X           Y           Z
 ---------------------------------------------------------------------
      1          6           0       -2.151063    0.689208    0.000088
      2          6           0       -2.127927   -0.715818    0.000075
      3          6           0       -0.932297   -1.413100   -0.000011
      4          6           0        0.246911   -0.670201   -0.000042
      5          6           0        0.248193    0.748299    0.000000
      6          6           0       -0.979474    1.423526    0.000032
      7          7           0        1.561774   -1.077592   -0.000285
      8          6           0        1.620133    1.162900   -0.000157
      9          6           0        2.382013    0.030806    0.000248
     10          1           0        1.876315   -2.030011    0.000438
     11          1           0        1.992173    2.173010   -0.000348
     12          1           0        3.452549   -0.082425    0.000408
     13          1           0       -3.061594   -1.262020    0.000088
     14          1           0       -0.917252   -2.495342   -0.000073
     15          1           0       -3.104203    1.200785    0.000090
     16          1           0       -1.009348    2.505421   -0.000015
 ---------------------------------------------------------------------
                    Distance matrix (angstroms):
                    1          2          3          4          5
     1  C    0.000000
     2  C    1.405216   0.000000
     3  C    2.430039   1.384100   0.000000
     4  C    2.756496   2.375276   1.393711   0.000000
     5  C    2.399984   2.790983   2.462763   1.418501   0.000000
     6  C    1.382694   2.428114   2.837018   2.426461   1.401106
     7  N    4.111781   3.707395   2.516536   1.376529   2.249305
     8  C    3.800829   4.192557   3.626386   2.290414   1.433218
     9  C    4.580641   4.571324   3.615178   2.247236   2.251218
    10  H    4.859416   4.214387   2.875566   2.122273   3.220216
    11  H    4.400917   5.031953   4.627387   3.336134   2.251948
    12  H    5.656491   5.616307   4.582311   3.259079   3.310287
    13  H    2.153220   1.081698   2.134650   3.361020   3.872476
    14  H    3.415208   2.152310   1.082347   2.164813   3.446661
    15  H    1.081752   2.150926   3.398466   3.838040   3.382795
    16  H    2.145261   3.409927   3.919278   3.415079   2.160761
                    6          7          8          9         10
     6  C    0.000000
     7  N    3.565604   0.000000
     8  C    2.612639   2.241252   0.000000
     9  C    3.638580   1.378890   1.364587   0.000000
    10  H    4.481345   1.003015   3.203172   2.121956   0.000000
    11  H    3.064704   3.278972   1.076446   2.177387   4.204618
    12  H    4.680888   2.136677   2.215532   1.076508   2.505515
    13  H    3.398144   4.627045   5.272457   5.595021   4.997275
    14  H    3.919362   2.855798   4.452085   4.155307   2.832058
    15  H    2.136372   5.192528   4.724488   5.609583   5.936632
    16  H    1.082307   4.410062   2.952378   4.198220   5.375611
                   11         12         13         14         15
    11  H    0.000000
    12  H    2.686947   0.000000
    13  H    6.110646   6.620083   0.000000
    14  H    5.500751   4.991726   2.473719   0.000000
    15  H    5.188282   6.681139   2.463174   4.294661   0.000000
    16  H    3.019872   5.158049   4.290143   5.001611   2.467892
                   16
    16  H    0.000000
 Stoichiometry    C8H7N
 Framework group  C1[X(C8H7N)]
 Deg. of freedom    42
 Full point group                 C1      NOp   1
 Largest Abelian subgroup         C1      NOp   1
 Largest concise Abelian subgroup C1      NOp   1
                         Standard orientation:                         
 ---------------------------------------------------------------------
 Center     Atomic      Atomic             Coordinates (Angstroms)
 Number     Number       Type             X           Y           Z
 ---------------------------------------------------------------------
      1          6           0       -2.151063    0.689208    0.000088
      2          6           0       -2.127927   -0.715818    0.000075
      3          6           0       -0.932297   -1.413100   -0.000011
      4          6           0        0.246911   -0.670201   -0.000042
      5          6           0        0.248193    0.748299    0.000000
      6          6           0       -0.979474    1.423526    0.000032
      7          7           0        1.561774   -1.077592   -0.000285
      8          6           0        1.620133    1.162900   -0.000157
      9          6           0        2.382013    0.030806    0.000248
     10          1           0        1.876315   -2.030011    0.000438
     11          1           0        1.992173    2.173010   -0.000348
     12          1           0        3.452549   -0.082425    0.000408
     13          1           0       -3.061594   -1.262020    0.000088
     14          1           0       -0.917252   -2.495342   -0.000073
     15          1           0       -3.104203    1.200785    0.000090
     16          1           0       -1.009348    2.505421   -0.000015
 ---------------------------------------------------------------------
 Rotational constants (GHZ):           3.9080822           1.6429452           1.1566805
 Standard basis: 6-31+G(d) (6D, 7F)
 There are   185 symmetry adapted cartesian basis functions of A   symmetry.
 There are   185 symmetry adapted basis functions of A   symmetry.
   185 basis functions,   316 primitive gaussians,   185 cartesian basis functions
    31 alpha electrons       31 beta electrons
       nuclear repulsion energy       401.3368668897 Hartrees.
 NAtoms=   16 NActive=   16 NUniq=   16 SFac= 1.00D+00 NAtFMM=   60 NAOKFM=F Big=F
 Integral buffers will be    131072 words long.
 Raffenetti 1 integral format.
 Two-electron integral symmetry is turned on.
 One-electron integrals computed using PRISM.
 NBasis=   185 RedAO= T EigKep=  1.26D-06  NBF=   185
 NBsUse=   185 1.00D-06 EigRej= -1.00D+00 NBFU=   185
 ExpMin= 4.38D-02 ExpMax= 4.17D+03 ExpMxC= 6.27D+02 IAcc=3 IRadAn=         5 AccDes= 0.00D+00
 Harris functional with IExCor=  205 and IRadAn=       5 diagonalized for initial guess.
 HarFok:  IExCor=  205 AccDes= 0.00D+00 IRadAn=         5 IDoV= 1 UseB2=F ITyADJ=14
 ICtDFT=  3500011 ScaDFX=  1.000000  1.000000  1.000000  1.000000
 FoFCou: FMM=F IPFlag=           0 FMFlag=      100000 FMFlg1=           0
         NFxFlg=           0 DoJE=T BraDBF=F KetDBF=T FulRan=T
         wScrn=  0.000000 ICntrl=       500 IOpCl=  0 I1Cent=   200000004 NGrid=           0
         NMat0=    1 NMatS0=      1 NMatT0=    0 NMatD0=    1 NMtDS0=    0 NMtDT0=    0
 Petite list used in FoFCou.
 Keep R1 ints in memory in canonical form, NReq=151233468.
 Requested convergence on RMS density matrix=1.00D-08 within 128 cycles.
 Requested convergence on MAX density matrix=1.00D-06.
 Requested convergence on             energy=1.00D-06.
 No special actions if energy rises.
 SCF Done:  E(RHF) =  -361.478205206     A.U. after   17 cycles
            NFock= 17  Conv=0.70D-08     -V/T= 2.0017
 ExpMin= 4.38D-02 ExpMax= 4.17D+03 ExpMxC= 6.27D+02 IAcc=3 IRadAn=         5 AccDes= 0.00D+00
 HarFok:  IExCor=  205 AccDes= 0.00D+00 IRadAn=         5 IDoV=-2 UseB2=F ITyADJ=14
 ICtDFT= 12500011 ScaDFX=  1.000000  1.000000  1.000000  1.000000
 Range of M.O.s used for correlation:    10   185
 NBasis=   185 NAE=    31 NBE=    31 NFC=     9 NFV=     0
 NROrb=    176 NOA=    22 NOB=    22 NVA=   154 NVB=   154

 **** Warning!!: The largest alpha MO coefficient is  0.23571799D+03

 Orbital symmetries:
       Occupied  (A) (A) (A) (A) (A) (A) (A) (A) (A) (A) (A) (A)
                 (A) (A) (A) (A) (A) (A) (A) (A) (A) (A) (A) (A)
                 (A) (A) (A) (A) (A) (A) (A)
       Virtual   (A) (A) (A) (A) (A) (A) (A) (A) (A) (A) (A) (A)
                 (A) (A) (A) (A) (A) (A) (A) (A) (A) (A) (A) (A)
                 (A) (A) (A) (A) (A) (A) (A) (A) (A) (A) (A) (A)
                 (A) (A) (A) (A) (A) (A) (A) (A) (A) (A) (A) (A)
                 (A) (A) (A) (A) (A) (A) (A) (A) (A) (A) (A) (A)
                 (A) (A) (A) (A) (A) (A) (A) (A) (A) (A) (A) (A)
                 (A) (A) (A) (A) (A) (A) (A) (A) (A) (A) (A) (A)
                 (A) (A) (A) (A) (A) (A) (A) (A) (A) (A) (A) (A)
                 (A) (A) (A) (A) (A) (A) (A) (A) (A) (A) (A) (A)
                 (A) (A) (A) (A) (A) (A) (A) (A) (A) (A) (A) (A)
                 (A) (A) (A) (A) (A) (A) (A) (A) (A) (A) (A) (A)
                 (A) (A) (A) (A) (A) (A) (A) (A) (A) (A) (A) (A)
                 (A) (A) (A) (A) (A) (A) (A) (A) (A) (A)
    24 initial guesses have been made.
 Convergence on wavefunction:    0.000001000000000
 Iteration     1 Dimension    24 NMult     0 NNew     24
 CISAX will form    24 AO SS matrices at one time.
 New state      1 was old state      4
 New state      3 was old state      1
 New state      4 was old state      6
 New state      5 was old state      8
 New state      6 was old state      7
 Iteration     2 Dimension    48 NMult    24 NNew     24
 New state      1 was old state      3
 New state      2 was old state      1
 New state      3 was old state      2
 Iteration     3 Dimension    54 NMult    48 NNew      6
 Iteration     4 Dimension    60 NMult    54 NNew      6
 Iteration     5 Dimension    66 NMult    60 NNew      6
 Iteration     6 Dimension    72 NMult    66 NNew      6
 Iteration     7 Dimension    78 NMult    72 NNew      6
 Iteration     8 Dimension    84 NMult    78 NNew      6
 Iteration     9 Dimension    90 NMult    84 NNew      6
 Iteration    10 Dimension    96 NMult    90 NNew      6
 Iteration    11 Dimension    99 NMult    96 NNew      3
 ***********************************************************************
 Excited states from <AA,BB:AA,BB> singles matrix:
 ***********************************************************************
 
 Ground to excited state transition densities written to RWF  633
 Ground to excited state transition electric dipole moments (Au):
       state          X           Y           Z        Dip. S.      Osc.
         1         1.0675     -0.5382      0.0012      1.4291      0.1959
         2         0.0041     -0.0018     -0.2758      0.0761      0.0106
         3         0.4077      0.4207      0.0002      0.3432      0.0480
         4        -0.0002      0.0000     -0.1565      0.0245      0.0037
         5         0.0001     -0.0000      0.0065      0.0000      0.0000
         6         0.0005      0.0001      0.1037      0.0108      0.0017
 Ground to excited state transition velocity dipole moments (Au):
       state          X           Y           Z        Dip. S.      Osc.
         1        -0.0603      0.0142     -0.0001      0.0038      0.0124
         2        -0.0002      0.0001      0.0294      0.0009      0.0028
         3        -0.0298      0.0002     -0.0000      0.0009      0.0028
         4         0.0000     -0.0000      0.0456      0.0021      0.0062
         5        -0.0000      0.0000     -0.0047      0.0000      0.0001
         6        -0.0000      0.0000     -0.0230      0.0005      0.0015
 Ground to excited state transition magnetic dipole moments (Au):
       state          X           Y           Z
         1        -0.0007      0.0007      0.0453
         2         0.1470     -0.1862      0.0003
         3         0.0000      0.0002      0.1931
         4         0.1194     -0.3938     -0.0001
         5         0.0481     -0.3228     -0.0001
         6         0.3871      0.0816      0.0005
 Ground to excited state transition velocity quadrupole moments (Au):
       state          XX          YY          ZZ          XY          XZ          YZ
         1        -0.1549      0.1480     -0.0484      0.0407     -0.0006     -0.0002
         2        -0.0008      0.0006     -0.0001      0.0002      0.1675      0.0662
         3        -0.1773     -0.0199     -0.0194      0.0243     -0.0001     -0.0000
         4        -0.0002      0.0000     -0.0000      0.0000      0.3458      0.1263
         5        -0.0002      0.0001     -0.0000     -0.0000      0.3804      0.1578
         6        -0.0000     -0.0001      0.0001      0.0002      0.0200      0.2802
 <0|del|b> * <b|rxdel|0> + <0|del|b> * <b|delr+rdel|0>
 Rotatory Strengths (R) in cgs (10**-40 erg-esu-cm/Gauss)
       state          XX          YY          ZZ    R(velocity)    E-M Angle
         1         0.0190      0.0945      0.0470      0.0535       90.00
         2        -0.0260     -0.0842     -0.0358     -0.0487       90.00
         3        -0.0006      0.0005     -0.0025     -0.0009       90.00
         4        -0.0060     -0.0051      0.0001     -0.0037       90.00
         5         0.0001     -0.0084      0.0048     -0.0012       90.00
         6        -0.0253     -0.0340     -0.0019     -0.0204       90.00
 1/2[<0|r|b>*<b|rxdel|0> + (<0|rxdel|b>*<b|r|0>)*]
 Rotatory Strengths (R) in cgs (10**-40 erg-esu-cm/Gauss)
       state          XX          YY          ZZ     R(length)
         1         0.5083      0.2735     -0.0380      0.2480
         2        -0.4240     -0.2351      0.0515     -0.2025
         3        -0.0044     -0.0670     -0.0270     -0.0328
         4         0.0162      0.0016     -0.0160      0.0006
         5        -0.0024     -0.0093      0.0004     -0.0038
         6        -0.1291     -0.0070     -0.0381     -0.0580
  1/2[<0|del|b>*<b|r|0> + (<0|r|b>*<b|del|0>)*] (Au)
       state          X           Y           Z        Dip. S.   Osc.(frdel)
         1        -0.0644     -0.0076     -0.0000      0.0720      0.0480
         2        -0.0000     -0.0000     -0.0081      0.0081      0.0054
         3        -0.0121      0.0001     -0.0000      0.0121      0.0080
         4        -0.0000     -0.0000     -0.0071      0.0071      0.0048
         5        -0.0000     -0.0000     -0.0000      0.0000      0.0000
         6        -0.0000      0.0000     -0.0024      0.0024      0.0016

 Excitation energies and oscillator strengths:
 
 Excited State   1:      Singlet-A      5.5963 eV  221.55 nm  f=0.1959  <S**2>=0.000
      30 -> 42        -0.17836
      30 -> 43         0.19306
      31 -> 36         0.56609
      31 -> 40        -0.11438
      31 -> 42         0.12290
 
 Excited State   2:      Singlet-A      5.6673 eV  218.77 nm  f=0.0106  <S**2>=0.000
      29 -> 32         0.11323
      31 -> 32         0.64321
      31 -> 34        -0.10579
      31 -> 41        -0.10366
 This state for optimization and/or second-order correction.
 Total Energy, E(CIS/TDA) =  -361.269935681    
 Copying the excited state density for this state as the 1-particle RhoCI density.
 
 Excited State   3:      Singlet-A      5.7123 eV  217.05 nm  f=0.0480  <S**2>=0.000
      30 -> 36         0.51211
      30 -> 40        -0.12747
      30 -> 42         0.18033
      30 -> 43         0.10510
      31 -> 42         0.21149
      31 -> 43        -0.22116
      31 -> 44         0.13112
      31 -> 54         0.10111
 
 Excited State   4:      Singlet-A      6.1216 eV  202.53 nm  f=0.0037  <S**2>=0.000
      30 -> 32         0.49361
      30 -> 33        -0.16848
      31 -> 33         0.37680
 
 Excited State   5:      Singlet-A      6.2611 eV  198.02 nm  f=0.0000  <S**2>=0.000
      30 -> 32        -0.33594
      30 -> 33         0.11994
      30 -> 34         0.12690
      31 -> 32        -0.12606
      31 -> 33         0.47120
      31 -> 34        -0.23826
 
 Excited State   6:      Singlet-A      6.3400 eV  195.56 nm  f=0.0017  <S**2>=0.000
      31 -> 32         0.10738
      31 -> 33         0.25990
      31 -> 34         0.55829
      31 -> 35         0.10337
      31 -> 41         0.16119
 SavETr:  write IOETrn=   770 NScale= 10 NData=  16 NLR=1 NState=    6 LETran=     118.
          IDoAtm=1111111111111111
          Differentiating once with respect to electric field.
                with respect to dipole field.
          Differentiating once with respect to nuclear coordinates.
 Keep R1 ints in memory in canonical form, NReq=151235562.
          There are     1 degrees of freedom in the 1st order CPHF.  IDoFFX=0 NUNeed=     1.
 LinEq1:  Iter=  0 NonCon=     1 RMS=6.95D-03 Max=8.82D-02 NDo=     1
 AX will form     1 AO Fock derivatives at one time.
 LinEq1:  Iter=  1 NonCon=     1 RMS=2.23D-03 Max=3.63D-02 NDo=     1
 LinEq1:  Iter=  2 NonCon=     1 RMS=9.28D-04 Max=1.74D-02 NDo=     1
 LinEq1:  Iter=  3 NonCon=     1 RMS=3.17D-04 Max=6.58D-03 NDo=     1
 LinEq1:  Iter=  4 NonCon=     1 RMS=9.81D-05 Max=2.02D-03 NDo=     1
 LinEq1:  Iter=  5 NonCon=     1 RMS=4.59D-05 Max=9.60D-04 NDo=     1
 LinEq1:  Iter=  6 NonCon=     1 RMS=1.36D-05 Max=2.16D-04 NDo=     1
 LinEq1:  Iter=  7 NonCon=     1 RMS=5.28D-06 Max=1.20D-04 NDo=     1
 LinEq1:  Iter=  8 NonCon=     1 RMS=2.17D-06 Max=3.78D-05 NDo=     1
 LinEq1:  Iter=  9 NonCon=     1 RMS=5.10D-07 Max=8.78D-06 NDo=     1
 LinEq1:  Iter= 10 NonCon=     1 RMS=1.55D-07 Max=2.04D-06 NDo=     1
 LinEq1:  Iter= 11 NonCon=     1 RMS=5.37D-08 Max=7.82D-07 NDo=     1
 LinEq1:  Iter= 12 NonCon=     1 RMS=1.21D-08 Max=2.39D-07 NDo=     1
 LinEq1:  Iter= 13 NonCon=     1 RMS=4.27D-09 Max=6.29D-08 NDo=     1
 LinEq1:  Iter= 14 NonCon=     1 RMS=1.75D-09 Max=3.38D-08 NDo=     1
 LinEq1:  Iter= 15 NonCon=     1 RMS=4.36D-10 Max=7.90D-09 NDo=     1
 LinEq1:  Iter= 16 NonCon=     1 RMS=1.60D-10 Max=2.72D-09 NDo=     1
 LinEq1:  Iter= 17 NonCon=     0 RMS=5.36D-11 Max=7.31D-10 NDo=     1
 Linear equations converged to 1.000D-10 1.000D-09 after    17 iterations.
 End of Minotr F.D. properties file   721 does not exist.
 End of Minotr F.D. properties file   722 does not exist.
 End of Minotr F.D. properties file   788 does not exist.

 **********************************************************************

            Population analysis using the CI Density.

 **********************************************************************

 Orbital symmetries:
       Occupied  (A) (A) (A) (A) (A) (A) (A) (A) (A) (A) (A) (A)
                 (A) (A) (A) (A) (A) (A) (A) (A) (A) (A) (A) (A)
                 (A) (A) (A) (A) (A) (A) (A)
       Virtual   (A) (A) (A) (A) (A) (A) (A) (A) (A) (A) (A) (A)
                 (A) (A) (A) (A) (A) (A) (A) (A) (A) (A) (A) (A)
                 (A) (A) (A) (A) (A) (A) (A) (A) (A) (A) (A) (A)
                 (A) (A) (A) (A) (A) (A) (A) (A) (A) (A) (A) (A)
                 (A) (A) (A) (A) (A) (A) (A) (A) (A) (A) (A) (A)
                 (A) (A) (A) (A) (A) (A) (A) (A) (A) (A) (A) (A)
                 (A) (A) (A) (A) (A) (A) (A) (A) (A) (A) (A) (A)
                 (A) (A) (A) (A) (A) (A) (A) (A) (A) (A) (A) (A)
                 (A) (A) (A) (A) (A) (A) (A) (A) (A) (A) (A) (A)
                 (A) (A) (A) (A) (A) (A) (A) (A) (A) (A) (A) (A)
                 (A) (A) (A) (A) (A) (A) (A) (A) (A) (A) (A) (A)
                 (A) (A) (A) (A) (A) (A) (A) (A) (A) (A) (A) (A)
                 (A) (A) (A) (A) (A) (A) (A) (A) (A) (A)
 The electronic state is 1-A.
 Alpha  occ. eigenvalues --  -15.61321 -11.27611 -11.27014 -11.23623 -11.23424
 Alpha  occ. eigenvalues --  -11.23328 -11.22993 -11.22515 -11.22134  -1.30107
 Alpha  occ. eigenvalues --   -1.13461  -1.06057  -1.00145  -0.97967  -0.84667
 Alpha  occ. eigenvalues --   -0.81037  -0.79254  -0.73244  -0.66474  -0.65191
 Alpha  occ. eigenvalues --   -0.60577  -0.59932  -0.58368  -0.57933  -0.55286
 Alpha  occ. eigenvalues --   -0.51092  -0.48471  -0.46558  -0.38573  -0.30154
 Alpha  occ. eigenvalues --   -0.28374
 Alpha virt. eigenvalues --    0.06043   0.07676   0.08122   0.09252   0.09650
 Alpha virt. eigenvalues --    0.09776   0.12084   0.12171   0.12844   0.13467
 Alpha virt. eigenvalues --    0.13521   0.14245   0.15653   0.16055   0.16315
 Alpha virt. eigenvalues --    0.17513   0.18608   0.20157   0.21313   0.21884
 Alpha virt. eigenvalues --    0.22291   0.23431   0.24192   0.25041   0.25565
 Alpha virt. eigenvalues --    0.26573   0.26993   0.27817   0.28238   0.29142
 Alpha virt. eigenvalues --    0.29617   0.30228   0.31272   0.31373   0.32533
 Alpha virt. eigenvalues --    0.33547   0.34617   0.35000   0.35866   0.37920
 Alpha virt. eigenvalues --    0.40149   0.40528   0.41722   0.42800   0.44859
 Alpha virt. eigenvalues --    0.46136   0.46794   0.47989   0.50112   0.53486
 Alpha virt. eigenvalues --    0.53930   0.58571   0.63141   0.65615   0.70996
 Alpha virt. eigenvalues --    0.79713   0.85181   0.88146   0.90334   0.92964
 Alpha virt. eigenvalues --    0.94405   0.95220   0.96046   0.97158   0.98568
 Alpha virt. eigenvalues --    0.98926   1.00346   1.01815   1.03444   1.03470
 Alpha virt. eigenvalues --    1.05365   1.09759   1.14310   1.14887   1.15909
 Alpha virt. eigenvalues --    1.18601   1.19729   1.20187   1.22379   1.22759
 Alpha virt. eigenvalues --    1.25831   1.28013   1.28420   1.31550   1.32379
 Alpha virt. eigenvalues --    1.34309   1.35646   1.40239   1.41289   1.43535
 Alpha virt. eigenvalues --    1.46408   1.49448   1.49968   1.57480   1.58925
 Alpha virt. eigenvalues --    1.60869   1.61601   1.66640   1.69282   1.71262
 Alpha virt. eigenvalues --    1.74349   1.74739   1.78281   1.79026   1.79852
 Alpha virt. eigenvalues --    1.85801   1.92279   2.08180   2.15070   2.19793
 Alpha virt. eigenvalues --    2.19805   2.20794   2.25822   2.31733   2.32127
 Alpha virt. eigenvalues --    2.32378   2.39218   2.43143   2.46693   2.49820
 Alpha virt. eigenvalues --    2.50521   2.52924   2.58035   2.59052   2.59697
 Alpha virt. eigenvalues --    2.60755   2.64599   2.71894   2.74868   2.78069
 Alpha virt. eigenvalues --    2.89010   2.90906   2.97945   3.00546   3.02201
 Alpha virt. eigenvalues --    3.05891   3.09575   3.16926   3.19852   3.22604
 Alpha virt. eigenvalues --    3.31648   3.33882   3.49471   3.62781   3.83621
 Alpha virt. eigenvalues --    4.58384   4.68434   4.71337   4.74886   4.78522
 Alpha virt. eigenvalues --    4.82387   4.90587   4.94542   5.22040
          Condensed to atoms (all electrons):
               1          2          3          4          5          6
     1  C   23.402572   6.034953   9.446403 -20.887345  -3.554805 -21.996134
     2  C    6.034953  14.748625   7.771997 -15.613725   4.531138 -16.650405
     3  C    9.446403   7.771997  69.543099 -68.643457  16.989201 -34.875206
     4  C  -20.887345 -15.613725 -68.643457 112.279993 -32.094756  50.721170
     5  C   -3.554805   4.531138  16.989201 -32.094756  71.557570 -20.969196
     6  C  -21.996134 -16.650405 -34.875206  50.721170 -20.969196  63.492841
     7  N   -1.511995  -0.364367 -10.745425   7.169571   1.485897   2.709549
     8  C   27.082888   9.689929  44.850960 -54.285923 -69.339032 -27.887049
     9  C  -11.596040  -3.809380 -26.523038  26.455933  34.991355  10.782638
    10  H    0.023222  -0.026260   0.377719  -0.045629   0.180183  -0.035390
    11  H   -0.020636  -0.004817  -0.011588  -0.013760   0.262563   0.021116
    12  H    0.000502  -0.001843   0.035791   0.066285  -0.090274  -0.011147
    13  H    0.087470   0.158805  -0.095394   0.158429  -0.050040   0.073333
    14  H    0.002488   0.071743   0.010016   0.308264  -0.136929   0.038874
    15  H    0.251869   0.066303  -0.005909  -0.010906   0.018840   0.005910
    16  H   -0.088483  -0.071250  -0.050630   0.157049   0.203940   0.287204
               7          8          9         10         11         12
     1  C   -1.511995  27.082888 -11.596040   0.023222  -0.020636   0.000502
     2  C   -0.364367   9.689929  -3.809380  -0.026260  -0.004817  -0.001843
     3  C  -10.745425  44.850960 -26.523038   0.377719  -0.011588   0.035791
     4  C    7.169571 -54.285923  26.455933  -0.045629  -0.013760   0.066285
     5  C    1.485897 -69.339032  34.991355   0.180183   0.262563  -0.090274
     6  C    2.709549 -27.887049  10.782638  -0.035390   0.021116  -0.011147
     7  N   15.837552 -25.952425  18.031088  -0.433977   0.013940  -0.014779
     8  C  -25.952425 230.808543-123.810100   1.033928  -0.131186   0.044965
     9  C   18.031088-123.810100  78.089385  -0.816936   0.211168   0.310942
    10  H   -0.433977   1.033928  -0.816936   0.262440  -0.000086  -0.001457
    11  H    0.013940  -0.131186   0.211168  -0.000086   0.352178   0.000501
    12  H   -0.014779   0.044965   0.310942  -0.001457   0.000501   0.314586
    13  H    0.003651  -0.018357   0.011565  -0.000012   0.000000  -0.000000
    14  H    0.035611  -0.048700   0.043740  -0.000873   0.000001   0.000002
    15  H    0.000153   0.010963  -0.000083  -0.000000  -0.000001  -0.000000
    16  H    0.003232  -0.193077   0.072448  -0.000003   0.000685   0.000000
              13         14         15         16
     1  C    0.087470   0.002488   0.251869  -0.088483
     2  C    0.158805   0.071743   0.066303  -0.071250
     3  C   -0.095394   0.010016  -0.005909  -0.050630
     4  C    0.158429   0.308264  -0.010906   0.157049
     5  C   -0.050040  -0.136929   0.018840   0.203940
     6  C    0.073333   0.038874   0.005910   0.287204
     7  N    0.003651   0.035611   0.000153   0.003232
     8  C   -0.018357  -0.048700   0.010963  -0.193077
     9  C    0.011565   0.043740  -0.000083   0.072448
    10  H   -0.000012  -0.000873  -0.000000  -0.000003
    11  H    0.000000   0.000001  -0.000001   0.000685
    12  H   -0.000000   0.000002  -0.000000   0.000000
    13  H    0.398003  -0.000068  -0.000712  -0.000058
    14  H   -0.000068   0.369609  -0.000070   0.000010
    15  H   -0.000712  -0.000070   0.407963  -0.000684
    16  H   -0.000058   0.000010  -0.000684   0.398475
 Mulliken charges:
               1
     1  C   -0.676929
     2  C   -0.531443
     3  C   -2.074539
     4  C    0.278807
     5  C    2.014346
     6  C    0.291890
     7  N    0.732724
     8  C   -5.856325
     9  C    3.555315
    10  H    0.483132
    11  H    0.319922
    12  H    0.345928
    13  H    0.273386
    14  H    0.306281
    15  H    0.256363
    16  H    0.281142
 Sum of Mulliken charges =   0.00000
 Mulliken charges with hydrogens summed into heavy atoms:
               1
     1  C   -0.420566
     2  C   -0.258058
     3  C   -1.768258
     4  C    0.278807
     5  C    2.014346
     6  C    0.573033
     7  N    1.215856
     8  C   -5.536403
     9  C    3.901243
 Electronic spatial extent (au):  <R**2>=           1043.0224
 Charge=              0.0000 electrons
 Dipole moment (field-independent basis, Debye):
    X=             -6.2921    Y=              4.1808    Z=              0.0122  Tot=              7.5545
 Quadrupole moment (field-independent basis, Debye-Ang):
   XX=            -67.4885   YY=            -61.8209   ZZ=            -70.2037
   XY=             10.9433   XZ=              0.0267   YZ=             -0.0102
 Traceless Quadrupole moment (field-independent basis, Debye-Ang):
   XX=             -0.9841   YY=              4.6835   ZZ=             -3.6993
   XY=             10.9433   XZ=              0.0267   YZ=             -0.0102
 Octapole moment (field-independent basis, Debye-Ang**2):
  XXX=           -135.4683  YYY=             47.8680  ZZZ=              0.0805  XYY=            -42.7540
  XXY=             33.8173  XXZ=              0.0849  XZZ=            -24.4794  YZZ=             15.7938
  YYZ=              0.0604  XYZ=             -0.0133
 Hexadecapole moment (field-independent basis, Debye-Ang**3):
 XXXX=          -1456.5487 YYYY=           -656.8387 ZZZZ=           -171.8558 XXXY=            153.2937
 XXXZ=              0.3820 YYYX=             84.9342 YYYZ=             -0.0790 ZZZX=              0.1604
 ZZZY=             -0.0564 XXYY=           -349.1899 XXZZ=           -276.7098 YYZZ=           -155.8658
 XXYZ=             -0.0288 YYXZ=              0.0389 ZZXY=             30.8420
 N-N= 4.013368668897D+02 E-N=-1.640435986660D+03  KE= 3.607632816158D+02
 Calling FoFJK, ICntrl=  10005127 FMM=F ISym2X=0 I1Cent= 0 IOpClX= 0 NMat=1 NMatS=1 NMatT=0.
 ***** Axes restored to original set *****
 -------------------------------------------------------------------
 Center     Atomic                   Forces (Hartrees/Bohr)
 Number     Number              X              Y              Z
 -------------------------------------------------------------------
      1        6          -0.009965219   -0.003005806    0.000011209
      2        6          -0.014203188    0.021022188    0.000010726
      3        6           0.035076154   -0.010850162   -0.000051238
      4        6          -0.017829112    0.001346398    0.000013200
      5        6           0.014851219   -0.007680480   -0.000013866
      6        6          -0.004035741    0.010874337   -0.000055192
      7        7           0.036808280    0.045949444    0.000150088
      8        6          -0.047906839    0.031314149    0.000070321
      9        6          -0.001572382   -0.086521281   -0.000153171
     10        1           0.004546972   -0.001129364   -0.000029642
     11        1          -0.000179929   -0.004401055    0.000004276
     12        1          -0.006546709    0.000483638    0.000012712
     13        1           0.005316842    0.003070657    0.000000262
     14        1           0.000522083    0.008532639    0.000013160
     15        1           0.005457248   -0.002656777    0.000004569
     16        1          -0.000339679   -0.006348526    0.000012586
 -------------------------------------------------------------------
 Cartesian Forces:  Max     0.086521281 RMS     0.019004730

 GradGradGradGradGradGradGradGradGradGradGradGradGradGradGradGradGradGrad
 Berny optimization.
 FormGI is forming the generalized inverse of G from B-inverse, IUseBI=4.
 Internal  Forces:  Max     0.060413232 RMS     0.009790672
 Search for a local minimum.
 Step number   1 out of a maximum of   94
 All quantities printed in internal units (Hartrees-Bohrs-Radians)
 Mixed Optimization -- RFO/linear search
 Second derivative matrix not updated -- first step.
 ITU=  0
     Eigenvalues ---    0.01853   0.01931   0.01986   0.02012   0.02070
     Eigenvalues ---    0.02113   0.02148   0.02153   0.02172   0.02209
     Eigenvalues ---    0.02233   0.02248   0.02338   0.16000   0.16000
     Eigenvalues ---    0.16000   0.16000   0.16000   0.16000   0.16000
     Eigenvalues ---    0.22000   0.22188   0.22662   0.24011   0.24651
     Eigenvalues ---    0.35712   0.35717   0.35783   0.35790   0.36420
     Eigenvalues ---    0.36427   0.37009   0.38432   0.42633   0.43465
     Eigenvalues ---    0.45769   0.46692   0.47162   0.47468   0.47567
     Eigenvalues ---    0.48125   0.50955
 RFO step:  Lambda=-1.68888900D-02 EMin= 1.85287394D-02
 Linear search not attempted -- first point.
 Iteration  1 RMS(Cart)=  0.02949185 RMS(Int)=  0.00012642
 Iteration  2 RMS(Cart)=  0.00015692 RMS(Int)=  0.00003014
 Iteration  3 RMS(Cart)=  0.00000001 RMS(Int)=  0.00003014
 Variable       Old X    -DE/DX   Delta X   Delta X   Delta X     New X
                                 (Linear)    (Quad)   (Total)
    R1        2.65547  -0.00951   0.00000  -0.01945  -0.01947   2.63601
    R2        2.61291  -0.00422   0.00000  -0.00735  -0.00735   2.60556
    R3        2.04421  -0.00606   0.00000  -0.01618  -0.01618   2.02803
    R4        2.61557   0.02102   0.00000   0.04192   0.04191   2.65748
    R5        2.04411  -0.00614   0.00000  -0.01638  -0.01638   2.02773
    R6        2.63373  -0.02315   0.00000  -0.04895  -0.04895   2.58479
    R7        2.04534  -0.00852   0.00000  -0.02279  -0.02279   2.02255
    R8        2.68058  -0.00751   0.00000  -0.01800  -0.01794   2.66264
    R9        2.60126   0.00985   0.00000   0.01609   0.01617   2.61743
   R10        2.64771   0.00574   0.00000   0.01228   0.01229   2.66000
   R11        2.70839  -0.02472   0.00000  -0.05480  -0.05485   2.65354
   R12        2.04526  -0.00634   0.00000  -0.01694  -0.01694   2.02832
   R13        2.60573  -0.06041   0.00000  -0.12040  -0.12039   2.48533
   R14        1.89542   0.00250   0.00000   0.00511   0.00511   1.90054
   R15        2.57870   0.04306   0.00000   0.08186   0.08179   2.66049
   R16        2.03419  -0.00419   0.00000  -0.01100  -0.01100   2.02319
   R17        2.03430  -0.00656   0.00000  -0.01722  -0.01722   2.01709
    A1        2.11420  -0.00675   0.00000  -0.02396  -0.02397   2.09024
    A2        2.07986   0.00362   0.00000   0.01336   0.01337   2.09323
    A3        2.08912   0.00313   0.00000   0.01059   0.01060   2.09972
    A4        2.11523   0.00580   0.00000   0.02653   0.02652   2.14175
    A5        2.08365  -0.00286   0.00000  -0.01307  -0.01306   2.07059
    A6        2.08430  -0.00293   0.00000  -0.01347  -0.01346   2.07085
    A7        2.05144  -0.00157   0.00000  -0.00881  -0.00881   2.04262
    A8        2.11267   0.00144   0.00000   0.00811   0.00811   2.12078
    A9        2.11908   0.00013   0.00000   0.00070   0.00070   2.11978
   A10        2.13389  -0.00380   0.00000  -0.01470  -0.01473   2.11916
   A11        2.27895  -0.00270   0.00000  -0.00532  -0.00539   2.27356
   A12        1.87035   0.00649   0.00000   0.02002   0.02012   1.89047
   A13        2.07274   0.00970   0.00000   0.03248   0.03252   2.10526
   A14        1.86517  -0.00770   0.00000  -0.02317  -0.02320   1.84198
   A15        2.34527  -0.00200   0.00000  -0.00931  -0.00932   2.33595
   A16        2.07887  -0.00339   0.00000  -0.01154  -0.01152   2.06735
   A17        2.10306   0.00117   0.00000   0.00280   0.00279   2.10585
   A18        2.10125   0.00222   0.00000   0.00875   0.00874   2.10999
   A19        1.90743   0.00305   0.00000   0.00243   0.00251   1.90994
   A20        2.19023   0.00223   0.00000   0.02002   0.01998   2.21021
   A21        2.18553  -0.00528   0.00000  -0.02245  -0.02249   2.16304
   A22        1.86968  -0.00069   0.00000   0.00633   0.00622   1.87590
   A23        2.21717   0.00172   0.00000   0.00461   0.00467   2.22183
   A24        2.19633  -0.00103   0.00000  -0.01094  -0.01088   2.18545
   A25        1.91215  -0.00116   0.00000  -0.00561  -0.00566   1.90649
   A26        2.10250   0.00037   0.00000   0.00161   0.00164   2.10414
   A27        2.26854   0.00079   0.00000   0.00400   0.00402   2.27256
    D1       -0.00001   0.00000   0.00000   0.00004   0.00004   0.00002
    D2       -3.14156   0.00000   0.00000   0.00004   0.00004  -3.14152
    D3        3.14152   0.00000   0.00000   0.00004   0.00004   3.14157
    D4       -0.00002   0.00000   0.00000   0.00004   0.00004   0.00002
    D5       -0.00003  -0.00001   0.00000  -0.00025  -0.00024  -0.00028
    D6        3.14153   0.00000   0.00000   0.00013   0.00014  -3.14152
    D7       -3.14157  -0.00001   0.00000  -0.00025  -0.00025   3.14137
    D8       -0.00001   0.00000   0.00000   0.00013   0.00013   0.00012
    D9        0.00003   0.00001   0.00000   0.00021   0.00021   0.00025
   D10       -3.14154  -0.00001   0.00000  -0.00012  -0.00012   3.14153
   D11        3.14158   0.00001   0.00000   0.00021   0.00021  -3.14139
   D12        0.00001  -0.00001   0.00000  -0.00012  -0.00012  -0.00011
   D13       -0.00001  -0.00001   0.00000  -0.00026  -0.00025  -0.00026
   D14       -3.14144  -0.00001   0.00000  -0.00010  -0.00009  -3.14153
   D15        3.14156   0.00000   0.00000   0.00008   0.00008  -3.14154
   D16        0.00013   0.00001   0.00000   0.00024   0.00024   0.00037
   D17       -0.00004   0.00001   0.00000   0.00006   0.00005   0.00001
   D18       -3.14151   0.00000   0.00000   0.00002   0.00001  -3.14150
   D19        3.14143   0.00000   0.00000  -0.00007  -0.00008   3.14135
   D20       -0.00005  -0.00000   0.00000  -0.00011  -0.00012  -0.00017
   D21       -3.14124  -0.00002   0.00000  -0.00074  -0.00077   3.14118
   D22       -0.00113   0.00001   0.00000   0.00029   0.00028  -0.00085
   D23        0.00049  -0.00002   0.00000  -0.00060  -0.00062  -0.00013
   D24        3.14060   0.00002   0.00000   0.00043   0.00043   3.14103
   D25        0.00005   0.00001   0.00000   0.00020   0.00021   0.00026
   D26       -3.14151  -0.00001   0.00000  -0.00018  -0.00017   3.14151
   D27        3.14150   0.00001   0.00000   0.00025   0.00026  -3.14143
   D28       -0.00007  -0.00001   0.00000  -0.00013  -0.00012  -0.00019
   D29       -0.00041   0.00004   0.00000   0.00081   0.00079   0.00038
   D30        3.14139   0.00001   0.00000   0.00009   0.00007   3.14146
   D31        3.14132   0.00003   0.00000   0.00076   0.00074  -3.14112
   D32       -0.00006   0.00000   0.00000   0.00004   0.00003  -0.00004
   D33       -0.00077   0.00005   0.00000   0.00116   0.00115   0.00037
   D34        3.14133   0.00002   0.00000   0.00034   0.00032  -3.14154
   D35       -3.14089   0.00001   0.00000   0.00009   0.00009  -3.14080
   D36        0.00121  -0.00003   0.00000  -0.00073  -0.00074   0.00047
   D37        0.00072  -0.00004   0.00000  -0.00119  -0.00120  -0.00048
   D38       -3.14144  -0.00001   0.00000  -0.00026  -0.00026   3.14148
   D39       -3.14107  -0.00001   0.00000  -0.00048  -0.00050  -3.14157
   D40       -0.00005   0.00002   0.00000   0.00045   0.00044   0.00039
         Item               Value     Threshold  Converged?
 Maximum Force            0.060413     0.000450     NO 
 RMS     Force            0.009791     0.000300     NO 
 Maximum Displacement     0.092063     0.001800     NO 
 RMS     Displacement     0.029489     0.001200     NO 
 Predicted change in Energy=-8.758616D-03
 GradGradGradGradGradGradGradGradGradGradGradGradGradGradGradGradGradGrad

                          Input orientation:                          
 ---------------------------------------------------------------------
 Center     Atomic      Atomic             Coordinates (Angstroms)
 Number     Number       Type             X           Y           Z
 ---------------------------------------------------------------------
      1          6           0       -2.164269    0.705165   -0.000024
      2          6           0       -2.108258   -0.688626    0.000013
      3          6           0       -0.895471   -1.400498   -0.000050
      4          6           0        0.257429   -0.664479    0.000151
      5          6           0        0.229501    0.744250    0.000097
      6          6           0       -0.995781    1.437106   -0.000153
      7          7           0        1.580714   -1.073602    0.000086
      8          6           0        1.574654    1.147134    0.000226
      9          6           0        2.365073   -0.017912   -0.000161
     10          1           0        1.915692   -2.021898    0.000557
     11          1           0        1.951841    2.149117    0.000117
     12          1           0        3.426518   -0.130475   -0.000294
     13          1           0       -3.028625   -1.240273    0.000046
     14          1           0       -0.874929   -2.470587    0.000037
     15          1           0       -3.115055    1.202897    0.000002
     16          1           0       -1.022132    2.510125   -0.000114
 ---------------------------------------------------------------------
                    Distance matrix (angstroms):
                    1          2          3          4          5
     1  C    0.000000
     2  C    1.394916   0.000000
     3  C    2.458387   1.406277   0.000000
     4  C    2.782184   2.365811   1.367810   0.000000
     5  C    2.394089   2.741943   2.421882   1.409006   0.000000
     6  C    1.378805   2.399238   2.839377   2.446874   1.407610
     7  N    4.145951   3.709006   2.497670   1.385087   2.265031
     8  C    3.764954   4.115076   3.548514   2.239871   1.404190
     9  C    4.586696   4.523334   3.541567   2.204589   2.267501
    10  H    4.907439   4.239079   2.879023   2.142994   3.239570
    11  H    4.362036   4.953503   4.550490   3.284410   2.222635
    12  H    5.652892   5.562848   4.504725   3.213764   3.314523
    13  H    2.128813   1.073029   2.139163   3.336120   3.814934
    14  H    3.427506   2.167138   1.070285   2.131727   3.399256
    15  H    1.073187   2.142778   3.421143   3.854963   3.375857
    16  H    2.135968   3.378118   3.912674   3.422775   2.164463
                    6          7          8          9         10
     6  C    0.000000
     7  N    3.597497   0.000000
     8  C    2.586739   2.220745   0.000000
     9  C    3.662296   1.315181   1.407869   0.000000
    10  H    4.521215   1.005721   3.187330   2.053754   0.000000
    11  H    3.032397   3.244019   1.070626   2.206077   4.171172
    12  H    4.691912   2.072795   2.249819   1.067397   2.420760
    13  H    3.361669   4.612352   5.185547   5.530475   5.005717
    14  H    3.909561   2.825198   4.369023   4.063647   2.826461
    15  H    2.132177   5.218496   4.690040   5.614461   5.975593
    16  H    1.073343   4.429211   2.932753   4.226598   5.400930
                   11         12         13         14         15
    11  H    0.000000
    12  H    2.714998   0.000000
    13  H    6.024369   6.549849   0.000000
    14  H    5.415929   4.896791   2.480339   0.000000
    15  H    5.154490   6.676081   2.444699   4.302633   0.000000
    16  H    2.995804   5.173322   4.253411   4.982887   2.467625
                   16
    16  H    0.000000
 Stoichiometry    C8H7N
 Framework group  C1[X(C8H7N)]
 Deg. of freedom    42
 Full point group                 C1      NOp   1
 Largest Abelian subgroup         C1      NOp   1
 Largest concise Abelian subgroup C1      NOp   1
                         Standard orientation:                         
 ---------------------------------------------------------------------
 Center     Atomic      Atomic             Coordinates (Angstroms)
 Number     Number       Type             X           Y           Z
 ---------------------------------------------------------------------
      1          6           0       -2.185633    0.629091   -0.000049
      2          6           0       -2.081484   -0.761931   -0.000012
      3          6           0       -0.844819   -1.431463   -0.000075
      4          6           0        0.281956   -0.656038    0.000126
      5          6           0        0.205357    0.750884    0.000072
      6          6           0       -1.043139    1.400979   -0.000178
      7          7           0        1.618590   -1.019183    0.000061
      8          6           0        1.535781    1.200018    0.000201
      9          6           0        2.365994    0.062986   -0.000186
     10          1           0        1.986141   -1.955335    0.000532
     11          1           0        1.878114    2.214438    0.000092
     12          1           0        3.430695   -0.012826   -0.000319
     13          1           0       -2.982236   -1.345059    0.000021
     14          1           0       -0.787305   -2.500202    0.000012
     15          1           0       -3.153053    1.093665   -0.000023
     16          1           0       -1.106560    2.472447   -0.000139
 ---------------------------------------------------------------------
 Rotational constants (GHZ):           3.9499183           1.6581177           1.1678651
 Standard basis: 6-31+G(d) (6D, 7F)
 There are   185 symmetry adapted cartesian basis functions of A   symmetry.
 There are   185 symmetry adapted basis functions of A   symmetry.
   185 basis functions,   316 primitive gaussians,   185 cartesian basis functions
    31 alpha electrons       31 beta electrons
       nuclear repulsion energy       403.3963907550 Hartrees.
 NAtoms=   16 NActive=   16 NUniq=   16 SFac= 1.00D+00 NAtFMM=   60 NAOKFM=F Big=F
 Integral buffers will be    131072 words long.
 Raffenetti 1 integral format.
 Two-electron integral symmetry is turned on.
 One-electron integrals computed using PRISM.
 NBasis=   185 RedAO= T EigKep=  1.13D-06  NBF=   185
 NBsUse=   185 1.00D-06 EigRej= -1.00D+00 NBFU=   185
 Initial guess from the checkpoint file:  "FuncsCIS-V-2nd.chk"
 B after Tr=     0.000000   -0.000000    0.000000
         Rot=    0.999860    0.000010    0.000015   -0.016746 Ang=   1.92 deg.
 ExpMin= 4.38D-02 ExpMax= 4.17D+03 ExpMxC= 6.27D+02 IAcc=3 IRadAn=         5 AccDes= 0.00D+00
 Harris functional with IExCor=  205 and IRadAn=       5 diagonalized for initial guess.
 HarFok:  IExCor=  205 AccDes= 0.00D+00 IRadAn=         5 IDoV= 1 UseB2=F ITyADJ=14
 ICtDFT=  3500011 ScaDFX=  1.000000  1.000000  1.000000  1.000000
 FoFCou: FMM=F IPFlag=           0 FMFlag=      100000 FMFlg1=           0
         NFxFlg=           0 DoJE=T BraDBF=F KetDBF=T FulRan=T
         wScrn=  0.000000 ICntrl=       500 IOpCl=  0 I1Cent=   200000004 NGrid=           0
         NMat0=    1 NMatS0=      1 NMatT0=    0 NMatD0=    1 NMtDS0=    0 NMtDT0=    0
 Petite list used in FoFCou.
 Keep R1 ints in memory in canonical form, NReq=151233468.
 Requested convergence on RMS density matrix=1.00D-08 within 128 cycles.
 Requested convergence on MAX density matrix=1.00D-06.
 Requested convergence on             energy=1.00D-06.
 No special actions if energy rises.
 SCF Done:  E(RHF) =  -361.469975866     A.U. after   15 cycles
            NFock= 15  Conv=0.31D-08     -V/T= 2.0010
 ExpMin= 4.38D-02 ExpMax= 4.17D+03 ExpMxC= 6.27D+02 IAcc=3 IRadAn=         5 AccDes= 0.00D+00
 HarFok:  IExCor=  205 AccDes= 0.00D+00 IRadAn=         5 IDoV=-2 UseB2=F ITyADJ=14
 ICtDFT= 12500011 ScaDFX=  1.000000  1.000000  1.000000  1.000000
 Range of M.O.s used for correlation:    10   185
 NBasis=   185 NAE=    31 NBE=    31 NFC=     9 NFV=     0
 NROrb=    176 NOA=    22 NOB=    22 NVA=   154 NVB=   154

 **** Warning!!: The largest alpha MO coefficient is  0.25796656D+03

 Orbital symmetries:
       Occupied  (A) (A) (A) (A) (A) (A) (A) (A) (A) (A) (A) (A)
                 (A) (A) (A) (A) (A) (A) (A) (A) (A) (A) (A) (A)
                 (A) (A) (A) (A) (A) (A) (A)
       Virtual   (A) (A) (A) (A) (A) (A) (A) (A) (A) (A) (A) (A)
                 (A) (A) (A) (A) (A) (A) (A) (A) (A) (A) (A) (A)
                 (A) (A) (A) (A) (A) (A) (A) (A) (A) (A) (A) (A)
                 (A) (A) (A) (A) (A) (A) (A) (A) (A) (A) (A) (A)
                 (A) (A) (A) (A) (A) (A) (A) (A) (A) (A) (A) (A)
                 (A) (A) (A) (A) (A) (A) (A) (A) (A) (A) (A) (A)
                 (A) (A) (A) (A) (A) (A) (A) (A) (A) (A) (A) (A)
                 (A) (A) (A) (A) (A) (A) (A) (A) (A) (A) (A) (A)
                 (A) (A) (A) (A) (A) (A) (A) (A) (A) (A) (A) (A)
                 (A) (A) (A) (A) (A) (A) (A) (A) (A) (A) (A) (A)
                 (A) (A) (A) (A) (A) (A) (A) (A) (A) (A) (A) (A)
                 (A) (A) (A) (A) (A) (A) (A) (A) (A) (A) (A) (A)
                 (A) (A) (A) (A) (A) (A) (A) (A) (A) (A)
 Generating guess from densities on rwf.
 Convergence on wavefunction:    0.000001000000000
 Iteration     1 Dimension     6 NMult     0 NNew      6
 CISAX will form     6 AO SS matrices at one time.
 New state      4 was old state      6
 New state      6 was old state      4
 Iteration     2 Dimension    12 NMult     6 NNew      6
 New state      1 was old state      2
 New state      2 was old state      1
 New state      4 was old state      5
 New state      5 was old state      4
 Iteration     3 Dimension    18 NMult    12 NNew      6
 Iteration     4 Dimension    24 NMult    18 NNew      6
 Iteration     5 Dimension    30 NMult    24 NNew      6
 Iteration     6 Dimension    36 NMult    30 NNew      6
 Iteration     7 Dimension    42 NMult    36 NNew      6
 Iteration     8 Dimension    48 NMult    42 NNew      6
 Iteration     9 Dimension    54 NMult    48 NNew      6
 Iteration    10 Dimension    60 NMult    54 NNew      6
 Iteration    11 Dimension    66 NMult    60 NNew      6
 Iteration    12 Dimension    72 NMult    66 NNew      6
 Iteration    13 Dimension    78 NMult    72 NNew      6
 Iteration    14 Dimension    82 NMult    78 NNew      4
 Iteration    15 Dimension    85 NMult    82 NNew      3
 Iteration    16 Dimension    88 NMult    85 NNew      3
 Iteration    17 Dimension    90 NMult    88 NNew      2
 Iteration    18 Dimension    92 NMult    90 NNew      2
 ***********************************************************************
 Excited states from <AA,BB:AA,BB> singles matrix:
 ***********************************************************************
 
 Ground to excited state transition densities written to RWF  633
 Ground to excited state transition electric dipole moments (Au):
       state          X           Y           Z        Dip. S.      Osc.
         1         1.3888     -0.6421      0.0002      2.3412      0.3029
         2         0.0020     -0.0010     -0.2816      0.0793      0.0101
         3         0.0007      0.1494      0.0001      0.0223      0.0031
         4         0.0001      0.0003     -0.1585      0.0251      0.0036
         5         0.0004     -0.0000      0.1493      0.0223      0.0032
         6         0.0004      0.0001     -0.3201      0.1024      0.0161
 Ground to excited state transition velocity dipole moments (Au):
       state          X           Y           Z        Dip. S.      Osc.
         1        -0.0660     -0.0049     -0.0000      0.0044      0.0150
         2        -0.0001     -0.0000      0.0270      0.0007      0.0025
         3         0.0015      0.0031      0.0000      0.0000      0.0000
         4        -0.0000     -0.0000      0.0320      0.0010      0.0032
         5        -0.0000     -0.0000     -0.0227      0.0005      0.0016
         6        -0.0000     -0.0000      0.0738      0.0054      0.0154
 Ground to excited state transition magnetic dipole moments (Au):
       state          X           Y           Z
         1        -0.0003      0.0002     -0.0499
         2         0.1816     -0.1852     -0.0002
         3        -0.0001      0.0005     -0.1080
         4         0.1145     -0.4317      0.0000
         5         0.3152      0.0624     -0.0000
         6        -0.0719      0.0486      0.0001
 Ground to excited state transition velocity quadrupole moments (Au):
       state          XX          YY          ZZ          XY          XZ          YZ
         1        -0.1425      0.1405     -0.0591     -0.0149     -0.0003     -0.0002
         2        -0.0001      0.0002     -0.0001      0.0000      0.1551      0.0775
         3        -0.1406     -0.0466     -0.0202     -0.0200     -0.0005     -0.0002
         4         0.0001     -0.0001     -0.0000      0.0000      0.4536      0.2077
         5        -0.0000      0.0000     -0.0001     -0.0000      0.0339      0.1974
         6         0.0000     -0.0000     -0.0001     -0.0001     -0.0344     -0.0870
 <0|del|b> * <b|rxdel|0> + <0|del|b> * <b|delr+rdel|0>
 Rotatory Strengths (R) in cgs (10**-40 erg-esu-cm/Gauss)
       state          XX          YY          ZZ    R(velocity)    E-M Angle
         1         0.0015      0.0629      0.0192      0.0279       90.00
         2         0.0099     -0.0429     -0.0125     -0.0152       90.00
         3         0.0046     -0.0009      0.0003      0.0013       90.00
         4         0.0322     -0.0016     -0.0003      0.0101       90.00
         5         0.0015     -0.0344     -0.0096     -0.0142       90.00
         6        -0.0004      0.0248     -0.0010      0.0078       90.00
 1/2[<0|r|b>*<b|rxdel|0> + (<0|rxdel|b>*<b|r|0>)*]
 Rotatory Strengths (R) in cgs (10**-40 erg-esu-cm/Gauss)
       state          XX          YY          ZZ     R(length)
         1         0.3198      0.0915      0.0080      0.1398
         2        -0.2569     -0.1355     -0.0305     -0.1410
         3         0.0000     -0.0482      0.0076     -0.0135
         4        -0.0047      0.0859      0.0027      0.0280
         5        -0.0885      0.0001      0.0020     -0.0288
         6         0.0184     -0.0038      0.0151      0.0099
  1/2[<0|del|b>*<b|r|0> + (<0|r|b>*<b|del|0>)*] (Au)
       state          X           Y           Z        Dip. S.   Osc.(frdel)
         1        -0.0917      0.0032     -0.0000      0.0885      0.0590
         2        -0.0000      0.0000     -0.0076      0.0076      0.0051
         3         0.0000      0.0005      0.0000     -0.0005     -0.0003
         4        -0.0000     -0.0000     -0.0051      0.0051      0.0034
         5        -0.0000      0.0000     -0.0034      0.0034      0.0023
         6        -0.0000     -0.0000     -0.0236      0.0236      0.0157

 Excitation energies and oscillator strengths:
 
 Excited State   1:      Singlet-A      5.2809 eV  234.78 nm  f=0.3029  <S**2>=0.000
      30 -> 42        -0.11906
      30 -> 43         0.13925
      31 -> 36         0.61249
      31 -> 42         0.12944
      31 -> 43         0.10008
 
 Excited State   2:      Singlet-A      5.1937 eV  238.72 nm  f=0.0101  <S**2>=0.000
      31 -> 32         0.65743
 This state for optimization and/or second-order correction.
 Total Energy, E(CIS/TDA) =  -361.279112578    
 Copying the excited state density for this state as the 1-particle RhoCI density.
 
 Excited State   3:      Singlet-A      5.7469 eV  215.74 nm  f=0.0031  <S**2>=0.000
      30 -> 36         0.43953
      30 -> 40        -0.11350
      30 -> 42         0.16287
      30 -> 43         0.10056
      31 -> 42         0.28189
      31 -> 43        -0.27792
      31 -> 44         0.14990
      31 -> 54         0.12782
 
 Excited State   4:      Singlet-A      5.8115 eV  213.34 nm  f=0.0036  <S**2>=0.000
      31 -> 33         0.57374
      31 -> 34        -0.31072
      31 -> 35        -0.10824
 
 Excited State   5:      Singlet-A      5.9227 eV  209.34 nm  f=0.0032  <S**2>=0.000
      31 -> 32         0.11381
      31 -> 33         0.32266
      31 -> 34         0.52290
      31 -> 35         0.15710
      31 -> 41         0.17436
 
 Excited State   6:      Singlet-A      6.4055 eV  193.56 nm  f=0.0161  <S**2>=0.000
      30 -> 32         0.49128
      30 -> 33        -0.17961
      30 -> 34        -0.11536
      31 -> 37        -0.36296
 SavETr:  write IOETrn=   770 NScale= 10 NData=  16 NLR=1 NState=    6 LETran=     118.
          IDoAtm=1111111111111111
          Differentiating once with respect to electric field.
                with respect to dipole field.
          Differentiating once with respect to nuclear coordinates.
 Keep R1 ints in memory in canonical form, NReq=151235562.
          There are     1 degrees of freedom in the 1st order CPHF.  IDoFFX=0 NUNeed=     1.
 LinEq1:  Iter=  0 NonCon=     1 RMS=7.25D-03 Max=1.03D-01 NDo=     1
 AX will form     1 AO Fock derivatives at one time.
 LinEq1:  Iter=  1 NonCon=     1 RMS=2.41D-03 Max=3.96D-02 NDo=     1
 LinEq1:  Iter=  2 NonCon=     1 RMS=9.99D-04 Max=2.09D-02 NDo=     1
 LinEq1:  Iter=  3 NonCon=     1 RMS=3.46D-04 Max=8.06D-03 NDo=     1
 LinEq1:  Iter=  4 NonCon=     1 RMS=1.11D-04 Max=2.06D-03 NDo=     1
 LinEq1:  Iter=  5 NonCon=     1 RMS=5.31D-05 Max=1.35D-03 NDo=     1
 LinEq1:  Iter=  6 NonCon=     1 RMS=1.56D-05 Max=2.48D-04 NDo=     1
 LinEq1:  Iter=  7 NonCon=     1 RMS=6.87D-06 Max=1.49D-04 NDo=     1
 LinEq1:  Iter=  8 NonCon=     1 RMS=2.48D-06 Max=4.02D-05 NDo=     1
 LinEq1:  Iter=  9 NonCon=     1 RMS=5.59D-07 Max=1.05D-05 NDo=     1
 LinEq1:  Iter= 10 NonCon=     1 RMS=1.77D-07 Max=3.26D-06 NDo=     1
 LinEq1:  Iter= 11 NonCon=     1 RMS=6.41D-08 Max=1.28D-06 NDo=     1
 LinEq1:  Iter= 12 NonCon=     1 RMS=1.51D-08 Max=2.46D-07 NDo=     1
 LinEq1:  Iter= 13 NonCon=     1 RMS=5.83D-09 Max=1.48D-07 NDo=     1
 LinEq1:  Iter= 14 NonCon=     1 RMS=2.08D-09 Max=4.15D-08 NDo=     1
 LinEq1:  Iter= 15 NonCon=     1 RMS=5.33D-10 Max=8.52D-09 NDo=     1
 LinEq1:  Iter= 16 NonCon=     1 RMS=2.26D-10 Max=3.99D-09 NDo=     1
 LinEq1:  Iter= 17 NonCon=     0 RMS=7.29D-11 Max=8.23D-10 NDo=     1
 Linear equations converged to 1.000D-10 1.000D-09 after    17 iterations.
 End of Minotr F.D. properties file   721 does not exist.
 End of Minotr F.D. properties file   722 does not exist.
 End of Minotr F.D. properties file   788 does not exist.
 Calling FoFJK, ICntrl=  10005127 FMM=F ISym2X=0 I1Cent= 0 IOpClX= 0 NMat=1 NMatS=1 NMatT=0.
 ***** Axes restored to original set *****
 -------------------------------------------------------------------
 Center     Atomic                   Forces (Hartrees/Bohr)
 Number     Number              X              Y              Z
 -------------------------------------------------------------------
      1        6           0.003956022    0.002545982   -0.000014214
      2        6           0.000973954   -0.003933631   -0.000001976
      3        6          -0.000115371   -0.000827329    0.000018331
      4        6          -0.013196722   -0.007682099   -0.000016354
      5        6           0.014586065    0.000966565    0.000013171
      6        6          -0.003606222    0.001365978    0.000033162
      7        7           0.006519072    0.011861392    0.000014024
      8        6          -0.010510658    0.016021374   -0.000064544
      9        6          -0.000178307   -0.019140915    0.000047994
     10        1          -0.000092125   -0.001466673   -0.000028045
     11        1           0.001723441   -0.000363366    0.000005532
     12        1           0.001272793    0.002580690    0.000002722
     13        1          -0.000168648   -0.001327322    0.000000447
     14        1          -0.002105867   -0.000551995   -0.000003028
     15        1          -0.000280190   -0.000260845   -0.000002304
     16        1           0.001222763    0.000212196   -0.000004920
 -------------------------------------------------------------------
 Cartesian Forces:  Max     0.019140915 RMS     0.005476278

 GradGradGradGradGradGradGradGradGradGradGradGradGradGradGradGradGradGrad
 Berny optimization.
 Using GEDIIS/GDIIS optimizer.
 FormGI is forming the generalized inverse of G from B-inverse, IUseBI=4.
 Internal  Forces:  Max     0.010163804 RMS     0.002351303
 Search for a local minimum.
 Step number   2 out of a maximum of   94
 All quantities printed in internal units (Hartrees-Bohrs-Radians)
 Mixed Optimization -- RFO/linear search
 Update second derivatives using D2CorX and points    1    2
 DE= -9.18D-03 DEPred=-8.76D-03 R= 1.05D+00
 TightC=F SS=  1.41D+00  RLast= 1.92D-01 DXNew= 5.0454D-01 5.7749D-01
 Trust test= 1.05D+00 RLast= 1.92D-01 DXMaxT set to 5.05D-01
 ITU=  1  0
 Use linear search instead of GDIIS.
     Eigenvalues ---    0.01855   0.01932   0.01987   0.02011   0.02066
     Eigenvalues ---    0.02113   0.02147   0.02158   0.02171   0.02210
     Eigenvalues ---    0.02233   0.02248   0.02338   0.15761   0.16000
     Eigenvalues ---    0.16000   0.16000   0.16000   0.16000   0.16158
     Eigenvalues ---    0.21975   0.22159   0.22492   0.24244   0.25184
     Eigenvalues ---    0.35714   0.35740   0.35775   0.35925   0.36421
     Eigenvalues ---    0.36514   0.37178   0.37584   0.41838   0.42766
     Eigenvalues ---    0.44836   0.46008   0.47127   0.47429   0.47945
     Eigenvalues ---    0.48499   0.52733
 RFO step:  Lambda=-1.62854854D-03 EMin= 1.85543452D-02
 Quartic linear search produced a step of  0.04723.
 Iteration  1 RMS(Cart)=  0.00949318 RMS(Int)=  0.00005919
 Iteration  2 RMS(Cart)=  0.00007950 RMS(Int)=  0.00002618
 Iteration  3 RMS(Cart)=  0.00000000 RMS(Int)=  0.00002618
 Variable       Old X    -DE/DX   Delta X   Delta X   Delta X     New X
                                 (Linear)    (Quad)   (Total)
    R1        2.63601   0.00392  -0.00092   0.00784   0.00690   2.64291
    R2        2.60556  -0.00034  -0.00035  -0.00121  -0.00156   2.60400
    R3        2.02803   0.00013  -0.00076  -0.00031  -0.00107   2.02696
    R4        2.65748  -0.00322   0.00198  -0.00537  -0.00340   2.65408
    R5        2.02773   0.00083  -0.00077   0.00172   0.00095   2.02868
    R6        2.58479   0.00076  -0.00231  -0.00029  -0.00260   2.58219
    R7        2.02255   0.00051  -0.00108   0.00054  -0.00054   2.02201
    R8        2.66264   0.00580  -0.00085   0.01409   0.01333   2.67597
    R9        2.61743   0.00343   0.00076   0.00726   0.00805   2.62549
   R10        2.66000   0.00071   0.00058   0.00246   0.00305   2.66305
   R11        2.65354  -0.00447  -0.00259  -0.01291  -0.01548   2.63805
   R12        2.02832   0.00018  -0.00080  -0.00018  -0.00098   2.02735
   R13        2.48533  -0.00573  -0.00569  -0.01809  -0.02383   2.46150
   R14        1.90054   0.00135   0.00024   0.00322   0.00346   1.90400
   R15        2.66049   0.01016   0.00386   0.02428   0.02808   2.68856
   R16        2.02319   0.00027  -0.00052   0.00030  -0.00022   2.02297
   R17        2.01709   0.00099  -0.00081   0.00212   0.00131   2.01840
    A1        2.09024   0.00272  -0.00113   0.01095   0.00981   2.10005
    A2        2.09323  -0.00173   0.00063  -0.00780  -0.00717   2.08606
    A3        2.09972  -0.00099   0.00050  -0.00314  -0.00264   2.09708
    A4        2.14175  -0.00047   0.00125  -0.00249  -0.00125   2.14050
    A5        2.07059   0.00130  -0.00062   0.00816   0.00755   2.07814
    A6        2.07085  -0.00083  -0.00064  -0.00567  -0.00630   2.06455
    A7        2.04262  -0.00197  -0.00042  -0.00959  -0.01000   2.03262
    A8        2.12078  -0.00116   0.00038  -0.00895  -0.00857   2.11220
    A9        2.11978   0.00312   0.00003   0.01855   0.01858   2.13836
   A10        2.11916   0.00401  -0.00070   0.01769   0.01698   2.13613
   A11        2.27356   0.00229  -0.00025   0.00894   0.00861   2.28217
   A12        1.89047  -0.00630   0.00095  -0.02662  -0.02559   1.86488
   A13        2.10526  -0.00370   0.00154  -0.01373  -0.01219   2.09307
   A14        1.84198   0.00622  -0.00110   0.02635   0.02532   1.86730
   A15        2.33595  -0.00252  -0.00044  -0.01262  -0.01313   2.32282
   A16        2.06735  -0.00060  -0.00054  -0.00282  -0.00334   2.06401
   A17        2.10585   0.00154   0.00013   0.00938   0.00950   2.11535
   A18        2.10999  -0.00095   0.00041  -0.00657  -0.00617   2.10382
   A19        1.90994   0.00373   0.00012   0.01546   0.01556   1.92550
   A20        2.21021  -0.00241   0.00094  -0.01063  -0.00968   2.20053
   A21        2.16304  -0.00132  -0.00106  -0.00483  -0.00588   2.15715
   A22        1.87590  -0.00485   0.00029  -0.02021  -0.01995   1.85595
   A23        2.22183   0.00418   0.00022   0.02175   0.02199   2.24382
   A24        2.18545   0.00066  -0.00051  -0.00154  -0.00203   2.18341
   A25        1.90649   0.00120  -0.00027   0.00502   0.00465   1.91114
   A26        2.10414   0.00212   0.00008   0.01510   0.01522   2.11936
   A27        2.27256  -0.00332   0.00019  -0.02012  -0.01988   2.25268
    D1        0.00002  -0.00000   0.00000  -0.00008  -0.00008  -0.00006
    D2       -3.14152  -0.00000   0.00000  -0.00011  -0.00011   3.14156
    D3        3.14157  -0.00000   0.00000  -0.00003  -0.00003   3.14154
    D4        0.00002  -0.00000   0.00000  -0.00006  -0.00005  -0.00003
    D5       -0.00028   0.00001  -0.00001   0.00035   0.00035   0.00007
    D6       -3.14152  -0.00000   0.00001  -0.00015  -0.00014   3.14152
    D7        3.14137   0.00001  -0.00001   0.00030   0.00029  -3.14152
    D8        0.00012  -0.00000   0.00001  -0.00020  -0.00019  -0.00007
    D9        0.00025  -0.00000   0.00001  -0.00018  -0.00017   0.00007
   D10        3.14153   0.00000  -0.00001   0.00002   0.00002   3.14154
   D11       -3.14139  -0.00000   0.00001  -0.00016  -0.00015  -3.14154
   D12       -0.00011   0.00000  -0.00001   0.00005   0.00004  -0.00007
   D13       -0.00026   0.00000  -0.00001   0.00017   0.00015  -0.00011
   D14       -3.14153   0.00000  -0.00000   0.00004   0.00003  -3.14150
   D15       -3.14154  -0.00000   0.00000  -0.00004  -0.00003  -3.14157
   D16        0.00037  -0.00000   0.00001  -0.00016  -0.00015   0.00022
   D17        0.00001   0.00000   0.00000   0.00011   0.00011   0.00012
   D18       -3.14150   0.00000   0.00000   0.00025   0.00026  -3.14124
   D19        3.14135   0.00000  -0.00000   0.00021   0.00021   3.14156
   D20       -0.00017   0.00001  -0.00001   0.00036   0.00036   0.00019
   D21        3.14118   0.00001  -0.00004   0.00044   0.00041   3.14159
   D22       -0.00085   0.00001   0.00001   0.00050   0.00051  -0.00034
   D23       -0.00013   0.00001  -0.00003   0.00032   0.00030   0.00017
   D24        3.14103   0.00001   0.00002   0.00038   0.00040   3.14143
   D25        0.00026  -0.00001   0.00001  -0.00037  -0.00036  -0.00010
   D26        3.14151   0.00000  -0.00001   0.00013   0.00012  -3.14156
   D27       -3.14143  -0.00001   0.00001  -0.00057  -0.00056   3.14120
   D28       -0.00019  -0.00000  -0.00001  -0.00006  -0.00007  -0.00026
   D29        0.00038  -0.00002   0.00004  -0.00087  -0.00083  -0.00045
   D30        3.14146  -0.00000   0.00000  -0.00002  -0.00001   3.14145
   D31       -3.14112  -0.00001   0.00004  -0.00070  -0.00066   3.14141
   D32       -0.00004   0.00000   0.00000   0.00015   0.00016   0.00012
   D33        0.00037  -0.00002   0.00005  -0.00088  -0.00084  -0.00046
   D34       -3.14154  -0.00000   0.00001  -0.00019  -0.00017   3.14147
   D35       -3.14080  -0.00002   0.00000  -0.00094  -0.00094   3.14145
   D36        0.00047  -0.00001  -0.00003  -0.00024  -0.00027   0.00020
   D37       -0.00048   0.00002  -0.00006   0.00111   0.00105   0.00057
   D38        3.14148   0.00001  -0.00001   0.00032   0.00031  -3.14140
   D39       -3.14157   0.00000  -0.00002   0.00028   0.00026  -3.14131
   D40        0.00039  -0.00001   0.00002  -0.00051  -0.00048  -0.00010
         Item               Value     Threshold  Converged?
 Maximum Force            0.010164     0.000450     NO 
 RMS     Force            0.002351     0.000300     NO 
 Maximum Displacement     0.040998     0.001800     NO 
 RMS     Displacement     0.009490     0.001200     NO 
 Predicted change in Energy=-8.466060D-04
 GradGradGradGradGradGradGradGradGradGradGradGradGradGradGradGradGradGrad

                          Input orientation:                          
 ---------------------------------------------------------------------
 Center     Atomic      Atomic             Coordinates (Angstroms)
 Number     Number       Type             X           Y           Z
 ---------------------------------------------------------------------
      1          6           0       -2.154786    0.703802    0.000033
      2          6           0       -2.108653   -0.694005    0.000007
      3          6           0       -0.901650   -1.412129    0.000005
      4          6           0        0.247081   -0.672156    0.000121
[...]
 ! D9    D(1,2,3,4)             -0.006          -DE/DX =    0.0                 !
 ! D10   D(1,2,3,14)           180.0053         -DE/DX =    0.0                 !
 ! D11   D(13,2,3,4)          -180.0046         -DE/DX =    0.0                 !
 ! D12   D(13,2,3,14)            0.0067         -DE/DX =    0.0                 !
 ! D13   D(2,3,4,5)              0.0057         -DE/DX =    0.0                 !
 ! D14   D(2,3,4,7)            180.0087         -DE/DX =    0.0                 !
 ! D15   D(14,3,4,5)          -180.0058         -DE/DX =    0.0                 !
 ! D16   D(14,3,4,7)            -0.0028         -DE/DX =    0.0                 !
 ! D17   D(3,4,5,6)             -0.0009         -DE/DX =    0.0                 !
 ! D18   D(3,4,5,8)           -180.013          -DE/DX =    0.0                 !
 ! D19   D(7,4,5,6)           -180.0032         -DE/DX =    0.0                 !
 ! D20   D(7,4,5,8)             -0.0153         -DE/DX =    0.0                 !
 ! D21   D(3,4,7,9)           -180.0072         -DE/DX =    0.0                 !
 ! D22   D(3,4,7,10)            -0.0061         -DE/DX =    0.0                 !
 ! D23   D(5,4,7,9)             -0.0046         -DE/DX =    0.0                 !
 ! D24   D(5,4,7,10)           179.9965         -DE/DX =    0.0                 !
 ! D25   D(4,5,6,1)             -0.004          -DE/DX =    0.0                 !
 ! D26   D(4,5,6,16)          -180.0033         -DE/DX =    0.0                 !
 ! D27   D(8,5,6,1)            180.0119         -DE/DX =    0.0                 !
 ! D28   D(8,5,6,16)             0.0126         -DE/DX =    0.0                 !
 ! D29   D(4,5,8,9)              0.0279         -DE/DX =    0.0                 !
 ! D30   D(4,5,8,11)           180.0083         -DE/DX =    0.0                 !
 ! D31   D(6,5,8,9)            180.0134         -DE/DX =    0.0                 !
 ! D32   D(6,5,8,11)            -0.0062         -DE/DX =    0.0                 !
 ! D33   D(4,7,9,8)              0.0224         -DE/DX =    0.0                 !
 ! D34   D(4,7,9,12)          -180.0003         -DE/DX =    0.0                 !
 ! D35   D(10,7,9,8)           180.0214         -DE/DX =    0.0                 !
 ! D36   D(10,7,9,12)           -0.0014         -DE/DX =    0.0                 !
 ! D37   D(5,8,9,7)             -0.0317         -DE/DX =    0.0                 !
 ! D38   D(5,8,9,12)          -180.0069         -DE/DX =    0.0                 !
 ! D39   D(11,8,9,7)          -180.0131         -DE/DX =    0.0                 !
 ! D40   D(11,8,9,12)            0.0117         -DE/DX =    0.0                 !
 --------------------------------------------------------------------------------
 GradGradGradGradGradGradGradGradGradGradGradGradGradGradGradGradGradGrad

                          Input orientation:                          
 ---------------------------------------------------------------------
 Center     Atomic      Atomic             Coordinates (Angstroms)
 Number     Number       Type             X           Y           Z
 ---------------------------------------------------------------------
      1          6           0       -2.154584    0.706500   -0.000093
      2          6           0       -2.106623   -0.695710    0.000041
      3          6           0       -0.902963   -1.411089    0.000214
      4          6           0        0.248699   -0.671768    0.000119
      5          6           0        0.238771    0.746109   -0.000022
      6          6           0       -0.993514    1.439735   -0.000086
      7          7           0        1.581261   -1.069494    0.000078
      8          6           0        1.568436    1.160901    0.000213
      9          6           0        2.362576   -0.023953   -0.000171
     10          1           0        1.915169   -2.019758    0.000202
     11          1           0        1.960131    2.157089    0.000318
     12          1           0        3.427063   -0.116866   -0.000238
     13          1           0       -3.028929   -1.246034    0.000034
     14          1           0       -0.897320   -2.481741    0.000229
     15          1           0       -3.107921    1.200372   -0.000163
     16          1           0       -1.013351    2.513152   -0.000140
 ---------------------------------------------------------------------
                    Distance matrix (angstroms):
                    1          2          3          4          5
     1  C    0.000000
     2  C    1.403029   0.000000
     3  C    2.459825   1.400202   0.000000
     4  C    2.770450   2.355444   1.368547   0.000000
     5  C    2.393683   2.753128   2.440709   1.417912   0.000000
     6  C    1.373215   2.408140   2.852262   2.449804   1.414087
     7  N    4.136507   3.706778   2.507600   1.390650   2.258029
     8  C    3.750648   4.117410   3.566924   2.258402   1.392861
     9  C    4.575839   4.519403   3.547942   2.210914   2.259103
    10  H    4.898507   4.234137   2.883113   2.143408   3.234244
    11  H    4.362923   4.967590   4.574845   3.306272   2.225746
    12  H    5.642048   5.563878   4.519307   3.226439   3.303018
    13  H    2.139361   1.074013   2.132364   3.327556   3.827074
    14  H    3.427184   2.156924   1.070667   2.142280   3.421947
    15  H    1.073667   2.144230   3.417831   3.843410   3.377380
    16  H    2.136916   3.389991   3.925794   3.425856   2.165698
                    6          7          8          9         10
     6  C    0.000000
     7  N    3.595233   0.000000
     8  C    2.577079   2.230431   0.000000
     9  C    3.661383   1.305223   1.426372   0.000000
    10  H    4.519793   1.007222   3.199502   2.045339   0.000000
    11  H    3.039510   3.248751   1.070428   2.217861   4.177090
    12  H    4.686631   2.077133   2.255478   1.068534   2.430395
    13  H    3.369906   4.613569   5.189325   5.528273   5.004273
    14  H    3.922656   2.852684   4.398726   4.082603   2.850179
    15  H    2.127912   5.209675   4.676523   5.605828   5.966629
    16  H    1.073600   4.423501   2.914482   4.223007   5.396620
                   11         12         13         14         15
    11  H    0.000000
    12  H    2.706060   0.000000
    13  H    6.039203   6.553994   0.000000
    14  H    5.448282   4.928785   2.463885   0.000000
    15  H    5.157563   6.666417   2.447680   4.294730   0.000000
    16  H    2.994725   5.160840   4.265447   4.996241   2.471966
                   16
    16  H    0.000000
 Stoichiometry    C8H7N
 Framework group  C1[X(C8H7N)]
 Deg. of freedom    42
 Full point group                 C1      NOp   1
 Largest Abelian subgroup         C1      NOp   1
 Largest concise Abelian subgroup C1      NOp   1
                         Standard orientation:                         
 ---------------------------------------------------------------------
 Center     Atomic      Atomic             Coordinates (Angstroms)
 Number     Number       Type             X           Y           Z
 ---------------------------------------------------------------------
      1          6           0       -2.172495    0.642915   -0.000127
      2          6           0       -2.083589   -0.757294    0.000008
      3          6           0       -0.859542   -1.437203    0.000181
      4          6           0        0.270029   -0.664551    0.000085
      5          6           0        0.218681    0.752431   -0.000056
      6          6           0       -1.033343    1.409759   -0.000120
      7          7           0        1.613641   -1.023176    0.000045
      8          6           0        1.535660    1.205891    0.000180
      9          6           0        2.364077    0.044744   -0.000204
     10          1           0        1.975168   -1.963280    0.000169
     11          1           0        1.898084    2.213098    0.000284
     12          1           0        3.430824   -0.017030   -0.000271
     13          1           0       -2.989423   -1.334329    0.000001
     14          1           0       -0.822623   -2.507233    0.000196
     15          1           0       -3.139853    1.108725   -0.000197
     16          1           0       -1.084531    2.482138   -0.000173
 ---------------------------------------------------------------------
 Rotational constants (GHZ):           3.9145213           1.6628741           1.1670961

 **********************************************************************

            Population analysis using the CI Density.

 **********************************************************************

 Orbital symmetries:
       Occupied  (A) (A) (A) (A) (A) (A) (A) (A) (A) (A) (A) (A)
                 (A) (A) (A) (A) (A) (A) (A) (A) (A) (A) (A) (A)
                 (A) (A) (A) (A) (A) (A) (A)
       Virtual   (A) (A) (A) (A) (A) (A) (A) (A) (A) (A) (A) (A)
                 (A) (A) (A) (A) (A) (A) (A) (A) (A) (A) (A) (A)
                 (A) (A) (A) (A) (A) (A) (A) (A) (A) (A) (A) (A)
                 (A) (A) (A) (A) (A) (A) (A) (A) (A) (A) (A) (A)
                 (A) (A) (A) (A) (A) (A) (A) (A) (A) (A) (A) (A)
                 (A) (A) (A) (A) (A) (A) (A) (A) (A) (A) (A) (A)
                 (A) (A) (A) (A) (A) (A) (A) (A) (A) (A) (A) (A)
                 (A) (A) (A) (A) (A) (A) (A) (A) (A) (A) (A) (A)
                 (A) (A) (A) (A) (A) (A) (A) (A) (A) (A) (A) (A)
                 (A) (A) (A) (A) (A) (A) (A) (A) (A) (A) (A) (A)
                 (A) (A) (A) (A) (A) (A) (A) (A) (A) (A) (A) (A)
                 (A) (A) (A) (A) (A) (A) (A) (A) (A) (A) (A) (A)
                 (A) (A) (A) (A) (A) (A) (A) (A) (A) (A)
 The electronic state is 1-A.
 Alpha  occ. eigenvalues --  -15.62237 -11.27777 -11.26543 -11.23672 -11.22974
 Alpha  occ. eigenvalues --  -11.22875 -11.22832 -11.22499 -11.21444  -1.32197
 Alpha  occ. eigenvalues --   -1.13949  -1.05770  -1.01412  -0.96766  -0.85214
 Alpha  occ. eigenvalues --   -0.81581  -0.79527  -0.73958  -0.66856  -0.65441
 Alpha  occ. eigenvalues --   -0.61555  -0.60483  -0.59408  -0.56719  -0.54927
 Alpha  occ. eigenvalues --   -0.51006  -0.48842  -0.46997  -0.38209  -0.31366
 Alpha  occ. eigenvalues --   -0.26385
 Alpha virt. eigenvalues --    0.05735   0.07630   0.08244   0.09256   0.09415
 Alpha virt. eigenvalues --    0.09842   0.12103   0.12136   0.13033   0.13384
 Alpha virt. eigenvalues --    0.13445   0.14309   0.15830   0.16085   0.16363
 Alpha virt. eigenvalues --    0.17465   0.18570   0.20121   0.21225   0.21802
 Alpha virt. eigenvalues --    0.22293   0.23390   0.24366   0.25001   0.25546
 Alpha virt. eigenvalues --    0.26354   0.27025   0.27850   0.28336   0.29233
 Alpha virt. eigenvalues --    0.29697   0.30307   0.31129   0.31419   0.32550
 Alpha virt. eigenvalues --    0.33506   0.34713   0.34855   0.35869   0.37941
 Alpha virt. eigenvalues --    0.40479   0.40550   0.42156   0.43283   0.44372
 Alpha virt. eigenvalues --    0.46414   0.47421   0.48959   0.50526   0.53219
 Alpha virt. eigenvalues --    0.54135   0.58754   0.62756   0.65829   0.72141
 Alpha virt. eigenvalues --    0.79852   0.85111   0.88147   0.90402   0.92946
 Alpha virt. eigenvalues --    0.94771   0.95384   0.96126   0.96981   0.99316
 Alpha virt. eigenvalues --    0.99583   1.01724   1.01927   1.03661   1.03702
 Alpha virt. eigenvalues --    1.05297   1.09958   1.13931   1.14422   1.15876
 Alpha virt. eigenvalues --    1.19493   1.20273   1.20992   1.21889   1.23620
 Alpha virt. eigenvalues --    1.26054   1.28077   1.28805   1.31140   1.31845
 Alpha virt. eigenvalues --    1.34375   1.35877   1.40756   1.41240   1.44003
 Alpha virt. eigenvalues --    1.46351   1.49375   1.49817   1.58130   1.58948
 Alpha virt. eigenvalues --    1.61574   1.61593   1.66708   1.69324   1.71454
 Alpha virt. eigenvalues --    1.74658   1.74875   1.78112   1.79220   1.80500
 Alpha virt. eigenvalues --    1.84980   1.93239   2.07037   2.14696   2.20212
 Alpha virt. eigenvalues --    2.20246   2.22809   2.26947   2.32401   2.32912
 Alpha virt. eigenvalues --    2.33964   2.38751   2.43597   2.48525   2.48646
 Alpha virt. eigenvalues --    2.52637   2.53402   2.56977   2.59885   2.61095
 Alpha virt. eigenvalues --    2.63423   2.66533   2.72283   2.76612   2.80391
 Alpha virt. eigenvalues --    2.88603   2.92458   2.98955   2.99591   3.02759
 Alpha virt. eigenvalues --    3.05890   3.10215   3.17522   3.20564   3.23056
 Alpha virt. eigenvalues --    3.32032   3.34913   3.51470   3.64791   3.85025
 Alpha virt. eigenvalues --    4.60253   4.68532   4.71923   4.73865   4.78787
 Alpha virt. eigenvalues --    4.83727   4.91124   4.95008   5.22689
          Condensed to atoms (all electrons):
               1          2          3          4          5          6
     1  C   19.601323   5.200710   5.261250 -13.426232  -5.171182 -18.593608
     2  C    5.200710  16.223447  11.744209 -19.255206   4.965346 -19.428542
     3  C    5.261250  11.744209  66.652617 -64.707807  14.747064 -37.420807
     4  C  -13.426232 -19.255206 -64.707807 103.748826 -30.550244  50.939368
     5  C   -5.171182   4.965346  14.747064 -30.550244  75.288588 -17.268101
     6  C  -18.593608 -19.428542 -37.420807  50.939368 -17.268101  65.887468
     7  N   -0.953791  -0.648459 -11.028633   4.951617   4.188343   3.012039
     8  C   23.992833  12.877231  50.401982 -47.966682 -86.632103 -35.760322
     9  C   -9.674958  -5.317137 -27.789579  21.671156  43.889855  13.866166
    10  H    0.011812  -0.015344   0.442440   0.094629   0.008147  -0.050990
    11  H   -0.020434  -0.006160  -0.014216  -0.024335   0.282444   0.035722
    12  H    0.001111  -0.001948   0.035278   0.060071  -0.094995  -0.009440
    13  H    0.098093   0.152408  -0.112429   0.169697  -0.052548   0.079456
    14  H    0.012443   0.054634   0.022738   0.299897  -0.136086   0.044240
    15  H    0.253966   0.071621  -0.001801  -0.016559   0.018865  -0.001333
    16  H   -0.073584  -0.077721  -0.050921   0.149175   0.182156   0.319343
               7          8          9         10         11         12
     1  C   -0.953791  23.992833  -9.674958   0.011812  -0.020434   0.001111
     2  C   -0.648459  12.877231  -5.317137  -0.015344  -0.006160  -0.001948
     3  C  -11.028633  50.401982 -27.789579   0.442440  -0.014216   0.035278
     4  C    4.951617 -47.966682  21.671156   0.094629  -0.024335   0.060071
     5  C    4.188343 -86.632103  43.889855   0.008147   0.282444  -0.094995
     6  C    3.012039 -35.760322  13.866166  -0.050990   0.035722  -0.009440
     7  N   16.296756 -28.022429  18.841660  -0.534155   0.015815  -0.020185
     8  C  -28.022429 257.793632-135.556188   1.224534  -0.157973   0.064010
     9  C   18.841660-135.556188  82.758659  -0.933237   0.219599   0.309493
    10  H   -0.534155   1.224534  -0.933237   0.273075  -0.000109  -0.001155
    11  H    0.015815  -0.157973   0.219599  -0.000109   0.357530   0.000376
    12  H   -0.020185   0.064010   0.309493  -0.001155   0.000376   0.312581
    13  H    0.003748  -0.022099   0.013430  -0.000014   0.000000  -0.000000
    14  H    0.039161  -0.060193   0.049928  -0.001141   0.000001   0.000002
    15  H    0.000070   0.013900  -0.001062   0.000000  -0.000001  -0.000000
    16  H    0.002720  -0.203162   0.073578  -0.000003   0.000761   0.000000
              13         14         15         16
     1  C    0.098093   0.012443   0.253966  -0.073584
     2  C    0.152408   0.054634   0.071621  -0.077721
     3  C   -0.112429   0.022738  -0.001801  -0.050921
     4  C    0.169697   0.299897  -0.016559   0.149175
     5  C   -0.052548  -0.136086   0.018865   0.182156
     6  C    0.079456   0.044240  -0.001333   0.319343
     7  N    0.003748   0.039161   0.000070   0.002720
     8  C   -0.022099  -0.060193   0.013900  -0.203162
     9  C    0.013430   0.049928  -0.001062   0.073578
    10  H   -0.000014  -0.001141   0.000000  -0.000003
    11  H    0.000000   0.000001  -0.000001   0.000761
    12  H   -0.000000   0.000002  -0.000000   0.000000
    13  H    0.403243  -0.000127  -0.000833  -0.000062
    14  H   -0.000127   0.369609  -0.000067   0.000010
    15  H   -0.000833  -0.000067   0.405953  -0.000613
    16  H   -0.000062   0.000010  -0.000613   0.400090
 Mulliken charges:
               1
     1  C   -0.519753
     2  C   -0.539089
     3  C   -2.181386
     4  C   -0.137369
     5  C    2.334451
     6  C    0.349342
     7  N    0.855725
     8  C   -5.986970
     9  C    3.578637
    10  H    0.481511
    11  H    0.310981
    12  H    0.344802
    13  H    0.268038
    14  H    0.304953
    15  H    0.257893
    16  H    0.278234
 Sum of Mulliken charges =  -0.00000
 Mulliken charges with hydrogens summed into heavy atoms:
               1
     1  C   -0.261860
     2  C   -0.271051
     3  C   -1.876433
     4  C   -0.137369
     5  C    2.334451
     6  C    0.627576
     7  N    1.337235
     8  C   -5.675989
     9  C    3.923439
 Electronic spatial extent (au):  <R**2>=           1035.9406
 Charge=             -0.0000 electrons
 Dipole moment (field-independent basis, Debye):
    X=             -6.7398    Y=              4.5333    Z=              0.0026  Tot=              8.1226
 Quadrupole moment (field-independent basis, Debye-Ang):
   XX=            -69.2985   YY=            -61.2453   ZZ=            -70.0846
   XY=             12.7281   XZ=              0.0094   YZ=             -0.0032
 Traceless Quadrupole moment (field-independent basis, Debye-Ang):
   XX=             -2.4224   YY=              5.6308   ZZ=             -3.2085
   XY=             12.7281   XZ=              0.0094   YZ=             -0.0032
 Octapole moment (field-independent basis, Debye-Ang**2):
  XXX=           -146.3120  YYY=             51.4104  ZZZ=              0.0166  XYY=            -45.1167
  XXY=             41.6862  XXZ=              0.0335  XZZ=            -26.2470  YZZ=             16.9132
  YYZ=              0.0120  XYZ=             -0.0073
 Hexadecapole moment (field-independent basis, Debye-Ang**3):
 XXXX=          -1496.0069 YYYY=           -635.1638 ZZZZ=           -172.6751 XXXY=            185.1975
 XXXZ=              0.1669 YYYX=            104.3058 YYYZ=             -0.0109 ZZZX=              0.0493
 ZZZY=             -0.0058 XXYY=           -352.8227 XXZZ=           -279.6545 YYZZ=           -154.2598
 XXYZ=             -0.0288 YYXZ=              0.0291 ZZXY=             36.0212
 N-N= 4.030380444691D+02 E-N=-1.643939346710D+03  KE= 3.609752438121D+02
 Unable to Open any file for archive entry.
 1\1\GINC-EXP-3-13\FOpt\RCIS(D,FC)\6-31+G(d)\C8H7N1\CWALDT\23-Jun-2021\
 0\\# td= (nstates=6, root=2) CIS/6-31+G* Opt density=current\\FuncsCIS
 -V-2nd\\0,1\C,-2.1545840509,0.7064995221,-0.0000932599\C,-2.1066231557
 ,-0.695709702,0.0000414917\C,-0.9029625863,-1.4110891526,0.0002144976\
 C,0.2486993884,-0.6717678541,0.0001188249\C,0.2387709848,0.7461094319,
 -0.0000222617\C,-0.9935140699,1.4397353025,-0.0000864341\N,1.581261328
 7,-1.0694935086,0.0000783068\C,1.5684361253,1.1609008127,0.0002130986\
 C,2.3625763384,-0.0239529893,-0.0001708651\H,1.9151685201,-2.019758235
 9,0.0002024449\H,1.960131317,2.1570894826,0.0003175291\H,3.4270626033,
 -0.1168662347,-0.000237899\H,-3.028928608,-1.2460338841,0.0000340944\H
 ,-0.8973199486,-2.4817410751,0.0002292797\H,-3.1079205263,1.2003716229
 ,-0.0001630839\H,-1.0133506602,2.5131524618,-0.000139764\\Version=AS64
 L-G16RevC.01\State=1-A\HF=-361.4675706\RMSD=9.765e-09\RMSF=1.150e-04\D
 ipole=-2.6516544,1.7835458,0.0010299\Quadrupole=-1.8009747,4.18638,-2.
 3854053,9.4629962,0.0070052,-0.002404\PG=C01 [X(C8H7N1)]\\@
 The archive entry for this job was punched.


 ... THE UNIVERSE IS NOT ONLY QUEERER THAN WE SUPPOSE,
 BUT QUEERER THAN WE CAN SUPPOSE ... 

                                   -- J. B. S. HALDANE
 Job cpu time:       0 days  0 hours 14 minutes  1.8 seconds.
 Elapsed time:       0 days  0 hours  3 minutes 53.0 seconds.
 File lengths (MBytes):  RWF=    192 Int=      0 D2E=      0 Chk=     11 Scr=      1
 Normal termination of Gaussian 16 at Wed Jun 23 07:32:36 2021.
