 Entering Gaussian System, Link 0=/cm/shared/apps/spack/cpu/opt/spack/linux-centos8-zen/gcc-8.3.1/gaussian-16.C.01-po5bqktfeugvmjyga3v7eigbecnokxng/g16/g16
 Initial command:
 /cm/shared/apps/spack/cpu/opt/spack/linux-centos8-zen/gcc-8.3.1/gaussian-16.C.01-po5bqktfeugvmjyga3v7eigbecnokxng/g16/l1.exe "/scratch/cwaldt/job_3581304/Gau-78988.inp" -scrdir="/scratch/cwaldt/job_3581304/"
 Entering Link 1 = /cm/shared/apps/spack/cpu/opt/spack/linux-centos8-zen/gcc-8.3.1/gaussian-16.C.01-po5bqktfeugvmjyga3v7eigbecnokxng/g16/l1.exe PID=     78989.
  
 Copyright (c) 1988-2019, Gaussian, Inc.  All Rights Reserved.
  
 This is part of the Gaussian(R) 16 program.  It is based on
 the Gaussian(R) 09 system (copyright 2009, Gaussian, Inc.),
 the Gaussian(R) 03 system (copyright 2003, Gaussian, Inc.),
 the Gaussian(R) 98 system (copyright 1998, Gaussian, Inc.),
 the Gaussian(R) 94 system (copyright 1995, Gaussian, Inc.),
 the Gaussian 92(TM) system (copyright 1992, Gaussian, Inc.),
 the Gaussian 90(TM) system (copyright 1990, Gaussian, Inc.),
 the Gaussian 88(TM) system (copyright 1988, Gaussian, Inc.),
 the Gaussian 86(TM) system (copyright 1986, Carnegie Mellon
 University), and the Gaussian 82(TM) system (copyright 1983,
 Carnegie Mellon University). Gaussian is a federally registered
 trademark of Gaussian, Inc.
  
 This software contains proprietary and confidential information,
 including trade secrets, belonging to Gaussian, Inc.
  
 This software is provided under written license and may be
 used, copied, transmitted, or stored only in accord with that
 written license.
  
 The following legend is applicable only to US Government
 contracts under FAR:
  
                    RESTRICTED RIGHTS LEGEND
  
 Use, reproduction and disclosure by the US Government is
 subject to restrictions as set forth in subparagraphs (a)
 and (c) of the Commercial Computer Software - Restricted
 Rights clause in FAR 52.227-19.
  
 Gaussian, Inc.
 340 Quinnipiac St., Bldg. 40, Wallingford CT 06492
  
  
 ---------------------------------------------------------------
 Warning -- This program may not be used in any manner that
 competes with the business of Gaussian, Inc. or will provide
 assistance to any competitor of Gaussian, Inc.  The licensee
 of this program is prohibited from giving any competitor of
 Gaussian, Inc. access to this program.  By using this program,
 the user acknowledges that Gaussian, Inc. is engaged in the
 business of creating and licensing software in the field of
 computational chemistry and represents and warrants to the
 licensee that it is not a competitor of Gaussian, Inc. and that
 it will not use this program in any manner prohibited above.
 ---------------------------------------------------------------
  

 Cite this work as:
 Gaussian 16, Revision C.01,
 M. J. Frisch, G. W. Trucks, H. B. Schlegel, G. E. Scuseria, 
 M. A. Robb, J. R. Cheeseman, G. Scalmani, V. Barone, 
 G. A. Petersson, H. Nakatsuji, X. Li, M. Caricato, A. V. Marenich, 
 J. Bloino, B. G. Janesko, R. Gomperts, B. Mennucci, H. P. Hratchian, 
 J. V. Ortiz, A. F. Izmaylov, J. L. Sonnenberg, D. Williams-Young, 
 F. Ding, F. Lipparini, F. Egidi, J. Goings, B. Peng, A. Petrone, 
 T. Henderson, D. Ranasinghe, V. G. Zakrzewski, J. Gao, N. Rega, 
 G. Zheng, W. Liang, M. Hada, M. Ehara, K. Toyota, R. Fukuda, 
 J. Hasegawa, M. Ishida, T. Nakajima, Y. Honda, O. Kitao, H. Nakai, 
 T. Vreven, K. Throssell, J. A. Montgomery, Jr., J. E. Peralta, 
 F. Ogliaro, M. J. Bearpark, J. J. Heyd, E. N. Brothers, K. N. Kudin, 
 V. N. Staroverov, T. A. Keith, R. Kobayashi, J. Normand, 
 K. Raghavachari, A. P. Rendell, J. C. Burant, S. S. Iyengar, 
 J. Tomasi, M. Cossi, J. M. Millam, M. Klene, C. Adamo, R. Cammi, 
 J. W. Ochterski, R. L. Martin, K. Morokuma, O. Farkas, 
 J. B. Foresman, and D. J. Fox, Gaussian, Inc., Wallingford CT, 2019.
 
 ******************************************
 Gaussian 16:  AS64L-G16RevC.01  3-Jul-2019
                23-Jun-2021 
 ******************************************
 %nprocshared=4
 Will use up to    4 processors via shared memory.
 %chk=FuncsM06-V-2nd.chk
 %Mem=3GB
 ---------------------------------------------------------
 # td= (nstates=6, root=2) M06/6-31+G* Opt density=current
 ---------------------------------------------------------
 1/18=20,19=15,26=3,38=1/1,3;
 2/9=110,12=2,17=6,18=5,40=1/2;
 3/5=1,6=6,7=11,11=9,25=1,30=1,71=1,74=-54/1,2,3,8;
 4//1;
 5/5=2,38=5/2;
 8/6=1,10=2,107=2,108=6/1;
 9/8=2,15=2,41=6,42=1,70=2/14;
 10/5=4,28=2/2;
 6/7=2,8=2,9=2,10=2,22=-1/1;
 7/12=6,13=5,14=2/1,2,3,16;
 1/18=20,19=15,26=3/3(2);
 2/9=110/2;
 99//99;
 2/9=110/2;
 3/5=1,6=6,7=11,11=9,25=1,30=1,71=1,74=-54/1,2,3,8;
 4/5=5,16=3,69=1/1;
 5/5=2,38=5/2;
 8/6=1,10=2,107=2,108=6/1;
 9/8=2,15=2,41=6,42=1,49=4,70=2/14;
 10/5=4,28=2/2;
 7/12=6,13=5,14=2/1,2,3,16;
 1/18=20,19=15,26=3/3(-8);
 2/9=110/2;
 6/7=2,8=2,9=2,10=2,22=-1/1;
 99/9=10/99;
 --------------
 FuncsM06-V-2nd
 --------------
 Symbolic Z-matrix:
 Charge =  0 Multiplicity = 1
 C                    -2.15106   0.68921   0.00009 
 C                    -2.12793  -0.71582   0.00008 
 C                    -0.9323   -1.4131   -0.00001 
 C                     0.24691  -0.6702   -0.00004 
 C                     0.24819   0.7483    0. 
 C                    -0.97947   1.42353   0.00003 
 N                     1.56177  -1.07759  -0.00029 
 C                     1.62013   1.1629   -0.00016 
 C                     2.38201   0.03081   0.00025 
 H                     1.87632  -2.03001   0.00044 
 H                     1.99217   2.17301  -0.00035 
 H                     3.45255  -0.08243   0.00041 
 H                    -3.06159  -1.26202   0.00009 
 H                    -0.91725  -2.49534  -0.00007 
 H                    -3.1042    1.20079   0.00009 
 H                    -1.00935   2.50542  -0.00002 
 

 GradGradGradGradGradGradGradGradGradGradGradGradGradGradGradGradGradGrad
 Berny optimization.
 Initialization pass.
                           ----------------------------
                           !    Initial Parameters    !
                           ! (Angstroms and Degrees)  !
 --------------------------                            --------------------------
 ! Name  Definition              Value          Derivative Info.                !
 --------------------------------------------------------------------------------
 ! R1    R(1,2)                  1.4052         estimate D2E/DX2                !
 ! R2    R(1,6)                  1.3827         estimate D2E/DX2                !
 ! R3    R(1,15)                 1.0818         estimate D2E/DX2                !
 ! R4    R(2,3)                  1.3841         estimate D2E/DX2                !
 ! R5    R(2,13)                 1.0817         estimate D2E/DX2                !
 ! R6    R(3,4)                  1.3937         estimate D2E/DX2                !
 ! R7    R(3,14)                 1.0823         estimate D2E/DX2                !
 ! R8    R(4,5)                  1.4185         estimate D2E/DX2                !
 ! R9    R(4,7)                  1.3765         estimate D2E/DX2                !
 ! R10   R(5,6)                  1.4011         estimate D2E/DX2                !
 ! R11   R(5,8)                  1.4332         estimate D2E/DX2                !
 ! R12   R(6,16)                 1.0823         estimate D2E/DX2                !
 ! R13   R(7,9)                  1.3789         estimate D2E/DX2                !
 ! R14   R(7,10)                 1.003          estimate D2E/DX2                !
 ! R15   R(8,9)                  1.3646         estimate D2E/DX2                !
 ! R16   R(8,11)                 1.0764         estimate D2E/DX2                !
 ! R17   R(9,12)                 1.0765         estimate D2E/DX2                !
 ! A1    A(2,1,6)              121.1349         estimate D2E/DX2                !
 ! A2    A(2,1,15)             119.1671         estimate D2E/DX2                !
 ! A3    A(6,1,15)             119.698          estimate D2E/DX2                !
 ! A4    A(1,2,3)              121.1938         estimate D2E/DX2                !
 ! A5    A(1,2,13)             119.3846         estimate D2E/DX2                !
 ! A6    A(3,2,13)             119.4217         estimate D2E/DX2                !
 ! A7    A(2,3,4)              117.5387         estimate D2E/DX2                !
 ! A8    A(2,3,14)             121.0469         estimate D2E/DX2                !
 ! A9    A(4,3,14)             121.4144         estimate D2E/DX2                !
 ! A10   A(3,4,5)              122.2626         estimate D2E/DX2                !
 ! A11   A(3,4,7)              130.5743         estimate D2E/DX2                !
 ! A12   A(5,4,7)              107.163          estimate D2E/DX2                !
 ! A13   A(4,5,6)              118.7594         estimate D2E/DX2                !
 ! A14   A(4,5,8)              106.8666         estimate D2E/DX2                !
 ! A15   A(6,5,8)              134.374          estimate D2E/DX2                !
 ! A16   A(1,6,5)              119.1105         estimate D2E/DX2                !
 ! A17   A(1,6,16)             120.4966         estimate D2E/DX2                !
 ! A18   A(5,6,16)             120.3928         estimate D2E/DX2                !
 ! A19   A(4,7,9)              109.2874         estimate D2E/DX2                !
 ! A20   A(4,7,10)             125.4909         estimate D2E/DX2                !
 ! A21   A(9,7,10)             125.2217         estimate D2E/DX2                !
 ! A22   A(5,8,9)              107.125          estimate D2E/DX2                !
 ! A23   A(5,8,11)             127.0344         estimate D2E/DX2                !
 ! A24   A(9,8,11)             125.8405         estimate D2E/DX2                !
 ! A25   A(7,9,8)              109.5578         estimate D2E/DX2                !
 ! A26   A(7,9,12)             120.4645         estimate D2E/DX2                !
 ! A27   A(8,9,12)             129.9776         estimate D2E/DX2                !
 ! D1    D(6,1,2,3)             -0.0008         estimate D2E/DX2                !
 ! D2    D(6,1,2,13)          -179.9981         estimate D2E/DX2                !
 ! D3    D(15,1,2,3)           179.996          estimate D2E/DX2                !
 ! D4    D(15,1,2,13)           -0.0013         estimate D2E/DX2                !
 ! D5    D(2,1,6,5)             -0.0018         estimate D2E/DX2                !
 ! D6    D(2,1,6,16)           179.9965         estimate D2E/DX2                !
 ! D7    D(15,1,6,5)          -179.9986         estimate D2E/DX2                !
 ! D8    D(15,1,6,16)           -0.0003         estimate D2E/DX2                !
 ! D9    D(1,2,3,4)              0.002          estimate D2E/DX2                !
 ! D10   D(1,2,3,14)          -179.9968         estimate D2E/DX2                !
 ! D11   D(13,2,3,4)           179.9992         estimate D2E/DX2                !
 ! D12   D(13,2,3,14)            0.0005         estimate D2E/DX2                !
 ! D13   D(2,3,4,5)             -0.0005         estimate D2E/DX2                !
 ! D14   D(2,3,4,7)           -179.9911         estimate D2E/DX2                !
 ! D15   D(14,3,4,5)           179.9982         estimate D2E/DX2                !
 ! D16   D(14,3,4,7)             0.0076         estimate D2E/DX2                !
 ! D17   D(3,4,5,6)             -0.002          estimate D2E/DX2                !
 ! D18   D(3,4,5,8)           -179.9955         estimate D2E/DX2                !
 ! D19   D(7,4,5,6)            179.9905         estimate D2E/DX2                !
 ! D20   D(7,4,5,8)             -0.003          estimate D2E/DX2                !
 ! D21   D(3,4,7,9)           -179.98           estimate D2E/DX2                !
 ! D22   D(3,4,7,10)            -0.0649         estimate D2E/DX2                !
 ! D23   D(5,4,7,9)              0.0284         estimate D2E/DX2                !
 ! D24   D(5,4,7,10)           179.9434         estimate D2E/DX2                !
 ! D25   D(4,5,6,1)              0.0031         estimate D2E/DX2                !
 ! D26   D(4,5,6,16)          -179.9951         estimate D2E/DX2                !
 ! D27   D(8,5,6,1)            179.9944         estimate D2E/DX2                !
 ! D28   D(8,5,6,16)            -0.0038         estimate D2E/DX2                !
 ! D29   D(4,5,8,9)             -0.0234         estimate D2E/DX2                !
 ! D30   D(4,5,8,11)           179.9883         estimate D2E/DX2                !
 ! D31   D(6,5,8,9)            179.9846         estimate D2E/DX2                !
 ! D32   D(6,5,8,11)            -0.0037         estimate D2E/DX2                !
 ! D33   D(4,7,9,8)             -0.0444         estimate D2E/DX2                !
 ! D34   D(4,7,9,12)           179.9847         estimate D2E/DX2                !
 ! D35   D(10,7,9,8)          -179.9597         estimate D2E/DX2                !
 ! D36   D(10,7,9,12)            0.0693         estimate D2E/DX2                !
 ! D37   D(5,8,9,7)              0.0414         estimate D2E/DX2                !
 ! D38   D(5,8,9,12)          -179.9913         estimate D2E/DX2                !
 ! D39   D(11,8,9,7)          -179.9702         estimate D2E/DX2                !
 ! D40   D(11,8,9,12)           -0.0029         estimate D2E/DX2                !
 --------------------------------------------------------------------------------
 Trust Radius=3.00D-01 FncErr=1.00D-07 GrdErr=1.00D-06 EigMax=2.50D+02 EigMin=1.00D-04
 Number of steps in this run=     94 maximum allowed number of steps=    100.
 GradGradGradGradGradGradGradGradGradGradGradGradGradGradGradGradGradGrad

                          Input orientation:                          
 ---------------------------------------------------------------------
 Center     Atomic      Atomic             Coordinates (Angstroms)
 Number     Number       Type             X           Y           Z
 ---------------------------------------------------------------------
      1          6           0       -2.151063    0.689208    0.000088
      2          6           0       -2.127927   -0.715818    0.000075
      3          6           0       -0.932297   -1.413100   -0.000011
      4          6           0        0.246911   -0.670201   -0.000042
      5          6           0        0.248193    0.748299    0.000000
      6          6           0       -0.979474    1.423526    0.000032
      7          7           0        1.561774   -1.077592   -0.000285
      8          6           0        1.620133    1.162900   -0.000157
      9          6           0        2.382013    0.030806    0.000248
     10          1           0        1.876315   -2.030011    0.000438
     11          1           0        1.992173    2.173010   -0.000348
     12          1           0        3.452549   -0.082425    0.000408
     13          1           0       -3.061594   -1.262020    0.000088
     14          1           0       -0.917252   -2.495342   -0.000073
     15          1           0       -3.104203    1.200785    0.000090
     16          1           0       -1.009348    2.505421   -0.000015
 ---------------------------------------------------------------------
                    Distance matrix (angstroms):
                    1          2          3          4          5
     1  C    0.000000
     2  C    1.405216   0.000000
     3  C    2.430039   1.384100   0.000000
     4  C    2.756496   2.375276   1.393711   0.000000
     5  C    2.399984   2.790983   2.462763   1.418501   0.000000
     6  C    1.382694   2.428114   2.837018   2.426461   1.401106
     7  N    4.111781   3.707395   2.516536   1.376529   2.249305
     8  C    3.800829   4.192557   3.626386   2.290414   1.433218
     9  C    4.580641   4.571324   3.615178   2.247236   2.251218
    10  H    4.859416   4.214387   2.875566   2.122273   3.220216
    11  H    4.400917   5.031953   4.627387   3.336134   2.251948
    12  H    5.656491   5.616307   4.582311   3.259079   3.310287
    13  H    2.153220   1.081698   2.134650   3.361020   3.872476
    14  H    3.415208   2.152310   1.082347   2.164813   3.446661
    15  H    1.081752   2.150926   3.398466   3.838040   3.382795
    16  H    2.145261   3.409927   3.919278   3.415079   2.160761
                    6          7          8          9         10
     6  C    0.000000
     7  N    3.565604   0.000000
     8  C    2.612639   2.241252   0.000000
     9  C    3.638580   1.378890   1.364587   0.000000
    10  H    4.481345   1.003015   3.203172   2.121956   0.000000
    11  H    3.064704   3.278972   1.076446   2.177387   4.204618
    12  H    4.680888   2.136677   2.215532   1.076508   2.505515
    13  H    3.398144   4.627045   5.272457   5.595021   4.997275
    14  H    3.919362   2.855798   4.452085   4.155307   2.832058
    15  H    2.136372   5.192528   4.724488   5.609583   5.936632
    16  H    1.082307   4.410062   2.952378   4.198220   5.375611
                   11         12         13         14         15
    11  H    0.000000
    12  H    2.686947   0.000000
    13  H    6.110646   6.620083   0.000000
    14  H    5.500751   4.991726   2.473719   0.000000
    15  H    5.188282   6.681139   2.463174   4.294661   0.000000
    16  H    3.019872   5.158049   4.290143   5.001611   2.467892
                   16
    16  H    0.000000
 Stoichiometry    C8H7N
 Framework group  C1[X(C8H7N)]
 Deg. of freedom    42
 Full point group                 C1      NOp   1
 Largest Abelian subgroup         C1      NOp   1
 Largest concise Abelian subgroup C1      NOp   1
                         Standard orientation:                         
 ---------------------------------------------------------------------
 Center     Atomic      Atomic             Coordinates (Angstroms)
 Number     Number       Type             X           Y           Z
 ---------------------------------------------------------------------
      1          6           0       -2.151063    0.689208    0.000088
      2          6           0       -2.127927   -0.715818    0.000075
      3          6           0       -0.932297   -1.413100   -0.000011
      4          6           0        0.246911   -0.670201   -0.000042
      5          6           0        0.248193    0.748299    0.000000
      6          6           0       -0.979474    1.423526    0.000032
      7          7           0        1.561774   -1.077592   -0.000285
      8          6           0        1.620133    1.162900   -0.000157
      9          6           0        2.382013    0.030806    0.000248
     10          1           0        1.876315   -2.030011    0.000438
     11          1           0        1.992173    2.173010   -0.000348
     12          1           0        3.452549   -0.082425    0.000408
     13          1           0       -3.061594   -1.262020    0.000088
     14          1           0       -0.917252   -2.495342   -0.000073
     15          1           0       -3.104203    1.200785    0.000090
     16          1           0       -1.009348    2.505421   -0.000015
 ---------------------------------------------------------------------
 Rotational constants (GHZ):           3.9080822           1.6429452           1.1566805
 Standard basis: 6-31+G(d) (6D, 7F)
 There are   185 symmetry adapted cartesian basis functions of A   symmetry.
 There are   185 symmetry adapted basis functions of A   symmetry.
   185 basis functions,   316 primitive gaussians,   185 cartesian basis functions
    31 alpha electrons       31 beta electrons
       nuclear repulsion energy       401.3368668897 Hartrees.
 NAtoms=   16 NActive=   16 NUniq=   16 SFac= 1.00D+00 NAtFMM=   60 NAOKFM=F Big=F
 Integral buffers will be    131072 words long.
 Regular integral format.
 Two-electron integral symmetry is turned on.
 One-electron integrals computed using PRISM.
 NBasis=   185 RedAO= T EigKep=  1.26D-06  NBF=   185
 NBsUse=   185 1.00D-06 EigRej= -1.00D+00 NBFU=   185
 ExpMin= 4.38D-02 ExpMax= 4.17D+03 ExpMxC= 6.27D+02 IAcc=3 IRadAn=         5 AccDes= 0.00D+00
 Harris functional with IExCor= 1009 and IRadAn=       5 diagonalized for initial guess.
 HarFok:  IExCor= 1009 AccDes= 0.00D+00 IRadAn=         5 IDoV= 1 UseB2=F ITyADJ=14
 ICtDFT=  3500011 ScaDFX=  1.000000  1.000000  1.000000  1.000000
 FoFCou: FMM=F IPFlag=           0 FMFlag=      100000 FMFlg1=           0
         NFxFlg=           0 DoJE=T BraDBF=F KetDBF=T FulRan=T
         wScrn=  0.000000 ICntrl=       500 IOpCl=  0 I1Cent=   200000004 NGrid=           0
         NMat0=    1 NMatS0=      1 NMatT0=    0 NMatD0=    1 NMtDS0=    0 NMtDT0=    0
 Petite list used in FoFCou.
 Keep R1 ints in memory in canonical form, NReq=152074523.
 Requested convergence on RMS density matrix=1.00D-08 within 128 cycles.
 Requested convergence on MAX density matrix=1.00D-06.
 Requested convergence on             energy=1.00D-06.
 No special actions if energy rises.
 SCF Done:  E(RM06) =  -363.551124218     A.U. after   15 cycles
            NFock= 15  Conv=0.67D-08     -V/T= 2.0110
 DoSCS=F DFT=T ScalE2(SS,OS)=  1.000000  1.000000
 ExpMin= 4.38D-02 ExpMax= 4.17D+03 ExpMxC= 6.27D+02 IAcc=3 IRadAn=         5 AccDes= 0.00D+00
 HarFok:  IExCor=  205 AccDes= 0.00D+00 IRadAn=         5 IDoV=-2 UseB2=F ITyADJ=14
 ICtDFT= 12500011 ScaDFX=  1.000000  1.000000  1.000000  1.000000
 Range of M.O.s used for correlation:    10   185
 NBasis=   185 NAE=    31 NBE=    31 NFC=     9 NFV=     0
 NROrb=    176 NOA=    22 NOB=    22 NVA=   154 NVB=   154

 **** Warning!!: The largest alpha MO coefficient is  0.17932577D+03

 Orbital symmetries:
       Occupied  (A) (A) (A) (A) (A) (A) (A) (A) (A) (A) (A) (A)
                 (A) (A) (A) (A) (A) (A) (A) (A) (A) (A) (A) (A)
                 (A) (A) (A) (A) (A) (A) (A)
       Virtual   (A) (A) (A) (A) (A) (A) (A) (A) (A) (A) (A) (A)
                 (A) (A) (A) (A) (A) (A) (A) (A) (A) (A) (A) (A)
                 (A) (A) (A) (A) (A) (A) (A) (A) (A) (A) (A) (A)
                 (A) (A) (A) (A) (A) (A) (A) (A) (A) (A) (A) (A)
                 (A) (A) (A) (A) (A) (A) (A) (A) (A) (A) (A) (A)
                 (A) (A) (A) (A) (A) (A) (A) (A) (A) (A) (A) (A)
                 (A) (A) (A) (A) (A) (A) (A) (A) (A) (A) (A) (A)
                 (A) (A) (A) (A) (A) (A) (A) (A) (A) (A) (A) (A)
                 (A) (A) (A) (A) (A) (A) (A) (A) (A) (A) (A) (A)
                 (A) (A) (A) (A) (A) (A) (A) (A) (A) (A) (A) (A)
                 (A) (A) (A) (A) (A) (A) (A) (A) (A) (A) (A) (A)
                 (A) (A) (A) (A) (A) (A) (A) (A) (A) (A) (A) (A)
                 (A) (A) (A) (A) (A) (A) (A) (A) (A) (A)
    24 initial guesses have been made.
 Convergence on wavefunction:    0.000001000000000
 Iteration     1 Dimension    24 NMult     0 NNew     24
 CISAX will form    24 AO SS matrices at one time.
 New state      3 was old state      4
 New state      4 was old state      5
 New state      5 was old state      6
 New state      6 was old state      3
 Iteration     2 Dimension    36 NMult    24 NNew     12
 New state      3 was old state      6
 New state      4 was old state      3
 New state      6 was old state      4
 Iteration     3 Dimension    48 NMult    36 NNew     12
 Iteration     4 Dimension    60 NMult    48 NNew     12
 Iteration     5 Dimension    72 NMult    60 NNew     12
 Iteration     6 Dimension    84 NMult    72 NNew     12
 Iteration     7 Dimension    96 NMult    84 NNew     12
 Iteration     8 Dimension   108 NMult    96 NNew     12
 Iteration     9 Dimension   120 NMult   108 NNew     12
 Iteration    10 Dimension   124 NMult   120 NNew      4
 Iteration    11 Dimension   128 NMult   124 NNew      4
 ***********************************************************************
 Excited states from <AA,BB:AA,BB> singles matrix:
 ***********************************************************************
 
 Ground to excited state transition densities written to RWF  633
 Ground to excited state transition electric dipole moments (Au):
       state          X           Y           Z        Dip. S.      Osc.
         1        -0.0002      0.0001     -0.0900      0.0081      0.0008
         2         0.0047     -0.0056     -0.0844      0.0072      0.0008
         3        -0.6283      0.6184     -0.0008      0.7772      0.0897
         4         0.0002      0.0004     -0.0293      0.0009      0.0001
         5        -0.5538     -0.1522      0.0001      0.3299      0.0391
         6         0.0005      0.0000      0.0473      0.0022      0.0003
 Ground to excited state transition velocity dipole moments (Au):
       state          X           Y           Z        Dip. S.      Osc.
         1         0.0000     -0.0000      0.0061      0.0000      0.0002
         2        -0.0008      0.0011      0.0181      0.0003      0.0013
         3         0.1040     -0.1180      0.0002      0.0247      0.0953
         4        -0.0000     -0.0001      0.0066      0.0000      0.0002
         5         0.0962      0.0290     -0.0000      0.0101      0.0378
         6        -0.0001      0.0000     -0.0068      0.0000      0.0002
 Ground to excited state transition magnetic dipole moments (Au):
       state          X           Y           Z
         1         0.1124     -0.0396      0.0002
         2         0.0042     -0.1665     -0.0016
         3         0.0001     -0.0014      0.1700
         4         0.1300     -0.1745      0.0001
         5         0.0001     -0.0000     -0.0702
         6         0.1435      0.1529      0.0002
 Ground to excited state transition velocity quadrupole moments (Au):
       state          XX          YY          ZZ          XY          XZ          YZ
         1         0.0001     -0.0000      0.0001      0.0000      0.0384      0.0424
         2        -0.0021      0.0011     -0.0002     -0.0004      0.1015     -0.0415
         3         0.2370     -0.1378      0.0222      0.0379      0.0009     -0.0004
         4        -0.0001      0.0000      0.0000      0.0001      0.1809      0.1372
         5         0.0649     -0.1042      0.0193     -0.0167      0.0000      0.0002
         6         0.0000     -0.0001      0.0000      0.0000     -0.1066      0.0699
 <0|del|b> * <b|rxdel|0> + <0|del|b> * <b|delr+rdel|0>
 Rotatory Strengths (R) in cgs (10**-40 erg-esu-cm/Gauss)
       state          XX          YY          ZZ    R(velocity)    E-M Angle
         1         0.0070      0.0171      0.0067      0.0103       90.00
         2        -0.6591      0.0131     -0.2146     -0.2869       93.98
         3         0.6200     -0.0139      0.2483      0.2848       89.55
         4         0.0578     -0.0185     -0.0005      0.0130       90.00
         5        -0.0010      0.0465     -0.0146      0.0103       90.00
         6         0.0030     -0.0377     -0.0115     -0.0154       90.00
 1/2[<0|r|b>*<b|rxdel|0> + (<0|rxdel|b>*<b|r|0>)*]
 Rotatory Strengths (R) in cgs (10**-40 erg-esu-cm/Gauss)
       state          XX          YY          ZZ     R(length)
         1         0.0162      0.0040      0.0140      0.0114
         2        -0.0140     -0.6626     -0.0949     -0.2572
         3         0.0630      0.6159      0.0928      0.2572
         4        -0.0182      0.0455      0.0023      0.0099
         5         0.0311     -0.0021      0.0026      0.0105
         6        -0.0540     -0.0023     -0.0053     -0.0205
  1/2[<0|del|b>*<b|r|0> + (<0|r|b>*<b|del|0>)*] (Au)
       state          X           Y           Z        Dip. S.   Osc.(frdel)
         1        -0.0000     -0.0000     -0.0006      0.0006      0.0004
         2        -0.0000     -0.0000     -0.0015      0.0015      0.0010
         3        -0.0654     -0.0729     -0.0000      0.1383      0.0922
         4        -0.0000     -0.0000     -0.0002      0.0002      0.0001
         5        -0.0533     -0.0044     -0.0000      0.0577      0.0384
         6        -0.0000      0.0000     -0.0003      0.0003      0.0002

 Excitation energies and oscillator strengths:
 
 Excited State   1:      Singlet-A      4.2195 eV  293.83 nm  f=0.0008  <S**2>=0.000
      31 -> 32         0.70412
 
 Excited State   2:      Singlet-A      4.7007 eV  263.76 nm  f=0.0008  <S**2>=0.000
      30 -> 32         0.69794
 This state for optimization and/or second-order correction.
 Total Energy, E(TD-HF/TD-DFT) =  -363.378377689    
 Copying the excited state density for this state as the 1-particle RhoCI density.
 
 Excited State   3:      Singlet-A      4.7090 eV  263.29 nm  f=0.0897  <S**2>=0.000
      30 -> 33        -0.10893
      30 -> 38         0.17539
      31 -> 33         0.66597
 
 Excited State   4:      Singlet-A      4.8216 eV  257.15 nm  f=0.0001  <S**2>=0.000
      31 -> 34         0.70024
 
 Excited State   5:      Singlet-A      4.8406 eV  256.14 nm  f=0.0391  <S**2>=0.000
      30 -> 33         0.57750
      31 -> 38        -0.37541
 
 Excited State   6:      Singlet-A      4.8937 eV  253.36 nm  f=0.0003  <S**2>=0.000
      31 -> 35         0.70124
 SavETr:  write IOETrn=   770 NScale= 10 NData=  16 NLR=1 NState=    6 LETran=     118.
          IDoAtm=1111111111111111
          Differentiating once with respect to electric field.
                with respect to dipole field.
          Differentiating once with respect to nuclear coordinates.
 Keep R1 ints in memory in canonical form, NReq=152086915.
          There are     1 degrees of freedom in the 1st order CPHF.  IDoFFX=0 NUNeed=     1.
 LinEq1:  Iter=  0 NonCon=     1 RMS=1.80D-02 Max=3.69D-01 NDo=     1
 AX will form     1 AO Fock derivatives at one time.
 LinEq1:  Iter=  1 NonCon=     1 RMS=9.75D-03 Max=1.76D-01 NDo=     1
 LinEq1:  Iter=  2 NonCon=     1 RMS=4.64D-03 Max=1.25D-01 NDo=     1
 LinEq1:  Iter=  3 NonCon=     1 RMS=2.50D-03 Max=6.85D-02 NDo=     1
 LinEq1:  Iter=  4 NonCon=     1 RMS=1.60D-03 Max=2.31D-02 NDo=     1
 LinEq1:  Iter=  5 NonCon=     1 RMS=8.02D-04 Max=2.21D-02 NDo=     1
 LinEq1:  Iter=  6 NonCon=     1 RMS=4.78D-04 Max=1.09D-02 NDo=     1
 LinEq1:  Iter=  7 NonCon=     1 RMS=2.59D-04 Max=8.78D-03 NDo=     1
 LinEq1:  Iter=  8 NonCon=     1 RMS=1.51D-04 Max=3.57D-03 NDo=     1
 LinEq1:  Iter=  9 NonCon=     1 RMS=6.24D-05 Max=1.52D-03 NDo=     1
 LinEq1:  Iter= 10 NonCon=     1 RMS=3.20D-05 Max=6.02D-04 NDo=     1
 LinEq1:  Iter= 11 NonCon=     1 RMS=1.80D-05 Max=3.60D-04 NDo=     1
 LinEq1:  Iter= 12 NonCon=     1 RMS=7.52D-06 Max=1.14D-04 NDo=     1
 LinEq1:  Iter= 13 NonCon=     1 RMS=3.90D-06 Max=5.34D-05 NDo=     1
 LinEq1:  Iter= 14 NonCon=     1 RMS=1.05D-06 Max=1.48D-05 NDo=     1
 LinEq1:  Iter= 15 NonCon=     1 RMS=5.56D-07 Max=5.90D-06 NDo=     1
 LinEq1:  Iter= 16 NonCon=     1 RMS=2.15D-07 Max=4.15D-06 NDo=     1
 LinEq1:  Iter= 17 NonCon=     1 RMS=4.67D-08 Max=1.01D-06 NDo=     1
 LinEq1:  Iter= 18 NonCon=     1 RMS=2.75D-08 Max=5.96D-07 NDo=     1
 LinEq1:  Iter= 19 NonCon=     1 RMS=1.14D-08 Max=2.48D-07 NDo=     1
 LinEq1:  Iter= 20 NonCon=     1 RMS=2.70D-09 Max=5.37D-08 NDo=     1
 LinEq1:  Iter= 21 NonCon=     1 RMS=5.79D-10 Max=5.93D-09 NDo=     1
 LinEq1:  Iter= 22 NonCon=     1 RMS=1.98D-10 Max=1.92D-09 NDo=     1
 LinEq1:  Iter= 23 NonCon=     0 RMS=5.77D-11 Max=6.01D-10 NDo=     1
 Linear equations converged to 1.000D-10 1.000D-09 after    23 iterations.
 End of Minotr F.D. properties file   721 does not exist.
 End of Minotr F.D. properties file   722 does not exist.
 End of Minotr F.D. properties file   788 does not exist.

 **********************************************************************

            Population analysis using the CI Density.

 **********************************************************************

 Orbital symmetries:
       Occupied  (A) (A) (A) (A) (A) (A) (A) (A) (A) (A) (A) (A)
                 (A) (A) (A) (A) (A) (A) (A) (A) (A) (A) (A) (A)
                 (A) (A) (A) (A) (A) (A) (A)
       Virtual   (A) (A) (A) (A) (A) (A) (A) (A) (A) (A) (A) (A)
                 (A) (A) (A) (A) (A) (A) (A) (A) (A) (A) (A) (A)
                 (A) (A) (A) (A) (A) (A) (A) (A) (A) (A) (A) (A)
                 (A) (A) (A) (A) (A) (A) (A) (A) (A) (A) (A) (A)
                 (A) (A) (A) (A) (A) (A) (A) (A) (A) (A) (A) (A)
                 (A) (A) (A) (A) (A) (A) (A) (A) (A) (A) (A) (A)
                 (A) (A) (A) (A) (A) (A) (A) (A) (A) (A) (A) (A)
                 (A) (A) (A) (A) (A) (A) (A) (A) (A) (A) (A) (A)
                 (A) (A) (A) (A) (A) (A) (A) (A) (A) (A) (A) (A)
                 (A) (A) (A) (A) (A) (A) (A) (A) (A) (A) (A) (A)
                 (A) (A) (A) (A) (A) (A) (A) (A) (A) (A) (A) (A)
                 (A) (A) (A) (A) (A) (A) (A) (A) (A) (A) (A) (A)
                 (A) (A) (A) (A) (A) (A) (A) (A) (A) (A)
 The electronic state is 1-A.
 Alpha  occ. eigenvalues --  -14.45906 -10.29373 -10.29219 -10.26133 -10.25746
 Alpha  occ. eigenvalues --  -10.25675 -10.25664 -10.25157 -10.24799  -0.99950
 Alpha  occ. eigenvalues --   -0.85476  -0.79774  -0.74949  -0.73032  -0.63748
 Alpha  occ. eigenvalues --   -0.60735  -0.59417  -0.55270  -0.49351  -0.48288
 Alpha  occ. eigenvalues --   -0.44936  -0.44125  -0.43987  -0.42343  -0.40309
 Alpha  occ. eigenvalues --   -0.36733  -0.34975  -0.34680  -0.29316  -0.23615
 Alpha  occ. eigenvalues --   -0.21996
 Alpha virt. eigenvalues --   -0.03171  -0.01443  -0.01289  -0.00875   0.00328
 Alpha virt. eigenvalues --    0.00585   0.02117   0.02842   0.03005   0.03318
 Alpha virt. eigenvalues --    0.03913   0.04137   0.06428   0.06816   0.06909
 Alpha virt. eigenvalues --    0.06987   0.09490   0.09937   0.10941   0.11751
 Alpha virt. eigenvalues --    0.12075   0.12175   0.13188   0.13475   0.15206
 Alpha virt. eigenvalues --    0.15603   0.16111   0.16669   0.17558   0.17612
 Alpha virt. eigenvalues --    0.18188   0.19042   0.19277   0.20078   0.20769
 Alpha virt. eigenvalues --    0.21432   0.21513   0.22201   0.23228   0.23843
 Alpha virt. eigenvalues --    0.24707   0.25011   0.25873   0.27050   0.28276
 Alpha virt. eigenvalues --    0.29362   0.29813   0.30947   0.32567   0.35378
 Alpha virt. eigenvalues --    0.35669   0.39103   0.43254   0.43786   0.50628
 Alpha virt. eigenvalues --    0.57436   0.62224   0.65247   0.66208   0.68063
 Alpha virt. eigenvalues --    0.69968   0.70072   0.71565   0.72187   0.72860
 Alpha virt. eigenvalues --    0.73333   0.74540   0.75912   0.77272   0.78578
 Alpha virt. eigenvalues --    0.80204   0.83621   0.86915   0.87538   0.88484
 Alpha virt. eigenvalues --    0.90491   0.90848   0.92517   0.95649   0.95750
 Alpha virt. eigenvalues --    0.98440   1.00794   1.02709   1.04558   1.08541
 Alpha virt. eigenvalues --    1.10189   1.10845   1.15760   1.16864   1.19227
 Alpha virt. eigenvalues --    1.21252   1.24034   1.24504   1.29442   1.32440
 Alpha virt. eigenvalues --    1.34409   1.34600   1.39449   1.41344   1.41693
 Alpha virt. eigenvalues --    1.46052   1.46380   1.49618   1.50479   1.51724
 Alpha virt. eigenvalues --    1.56400   1.62335   1.77618   1.82754   1.86093
 Alpha virt. eigenvalues --    1.88278   1.88340   1.89919   1.94182   1.95480
 Alpha virt. eigenvalues --    1.99354   2.05020   2.07832   2.11917   2.15343
 Alpha virt. eigenvalues --    2.15741   2.15999   2.23537   2.24310   2.25037
 Alpha virt. eigenvalues --    2.26165   2.29713   2.36450   2.39303   2.41502
 Alpha virt. eigenvalues --    2.51903   2.54624   2.61393   2.63857   2.65170
 Alpha virt. eigenvalues --    2.67330   2.71591   2.79011   2.81307   2.84005
 Alpha virt. eigenvalues --    2.93055   2.95357   3.07036   3.22945   3.41224
 Alpha virt. eigenvalues --    4.13744   4.22347   4.25233   4.28826   4.32581
 Alpha virt. eigenvalues --    4.36606   4.44446   4.48594   4.75289
          Condensed to atoms (all electrons):
               1          2          3          4          5          6
     1  C   46.434820   9.789853  -4.146208 -30.717227 -22.721022 -30.997237
     2  C    9.789853  63.148038   2.107700 -52.234200  27.489881 -75.710850
     3  C   -4.146208   2.107700  42.783472 -15.011317   2.489629  -8.836277
     4  C  -30.717227 -52.234200 -15.011317 132.704737 -12.709656  81.647269
     5  C  -22.721022  27.489881   2.489629 -12.709656 161.880633 -68.175850
     6  C  -30.997237 -75.710850  -8.836277  81.647269 -68.175850 139.950638
     7  N   -0.163077  -1.773592   7.329635   2.280910  -5.915223   4.132638
     8  C   58.962813  54.914462 -47.970047-174.763053-137.732043 -49.766069
     9  C  -20.965967 -20.828182  26.712618  76.010181  59.097467  13.549596
    10  H    0.001818  -0.031344  -0.487319   0.792931  -0.084006  -0.178637
    11  H   -0.066848  -0.005515  -0.041520  -0.091723   0.773097   0.195128
    12  H    0.003078  -0.012099   0.193220   0.324229  -0.489785  -0.094912
    13  H    0.166824  -0.071112   0.012604   0.165142  -0.132295   0.194961
    14  H    0.081220  -0.131121   0.148284   0.849283  -0.746796   0.061522
    15  H    0.209772   0.235260  -0.070942  -0.123201   0.018442   0.007677
    16  H   -0.110965  -0.121871   0.009722   0.232730   0.550703  -0.120184
               7          8          9         10         11         12
     1  C   -0.163077  58.962813 -20.965967   0.001818  -0.066848   0.003078
     2  C   -1.773592  54.914462 -20.828182  -0.031344  -0.005515  -0.012099
     3  C    7.329635 -47.970047  26.712618  -0.487319  -0.041520   0.193220
     4  C    2.280910-174.763053  76.010181   0.792931  -0.091723   0.324229
     5  C   -5.915223-137.732043  59.097467  -0.084006   0.773097  -0.489785
     6  C    4.132638 -49.766069  13.549596  -0.178637   0.195128  -0.094912
     7  N   15.438430 -39.772139  24.808432  -0.603682   0.000097  -0.020102
     8  C  -39.772139 693.084938-345.528471   2.494682  -1.243634   0.071625
     9  C   24.808432-345.528471 189.594128  -1.728685   0.778196   0.328161
    10  H   -0.603682   2.494682  -1.728685   0.523045  -0.000314  -0.004024
    11  H    0.000097  -1.243634   0.778196  -0.000314   0.475465  -0.000155
    12  H   -0.020102   0.071625   0.328161  -0.004024  -0.000155   0.434265
    13  H    0.005082  -0.058951   0.025020  -0.000018   0.000000  -0.000000
    14  H    0.067203  -0.195037   0.125084   0.002130   0.000001   0.000005
    15  H   -0.001253   0.037271  -0.005499  -0.000000  -0.000001  -0.000000
    16  H    0.006401  -0.203502   0.056868   0.000003   0.001085  -0.000000
              13         14         15         16
     1  C    0.166824   0.081220   0.209772  -0.110965
     2  C   -0.071112  -0.131121   0.235260  -0.121871
     3  C    0.012604   0.148284  -0.070942   0.009722
     4  C    0.165142   0.849283  -0.123201   0.232730
     5  C   -0.132295  -0.746796   0.018442   0.550703
     6  C    0.194961   0.061522   0.007677  -0.120184
     7  N    0.005082   0.067203  -0.001253   0.006401
     8  C   -0.058951  -0.195037   0.037271  -0.203502
     9  C    0.025020   0.125084  -0.005499   0.056868
    10  H   -0.000018   0.002130  -0.000000   0.000003
    11  H    0.000000   0.000001  -0.000001   0.001085
    12  H   -0.000000   0.000005  -0.000000  -0.000000
    13  H    0.463930  -0.002012  -0.003989  -0.000100
    14  H   -0.002012   0.501016  -0.000158   0.000016
    15  H   -0.003989  -0.000158   0.462816  -0.003316
    16  H   -0.000100   0.000016  -0.003316   0.468977
 Mulliken charges:
               1
     1  C    0.238353
     2  C   -0.765308
     3  C    0.776746
     4  C   -3.357034
     5  C    2.406824
     6  C    0.140588
     7  N    1.180241
     8  C   -6.332846
     9  C    3.971056
    10  H    0.303420
    11  H    0.226643
    12  H    0.266493
    13  H    0.234913
    14  H    0.239358
    15  H    0.237123
    16  H    0.233432
 Sum of Mulliken charges =  -0.00000
 Mulliken charges with hydrogens summed into heavy atoms:
               1
     1  C    0.475475
     2  C   -0.530396
     3  C    1.016103
     4  C   -3.357034
     5  C    2.406824
     6  C    0.374020
     7  N    1.483662
     8  C   -6.106204
     9  C    4.237549
 Electronic spatial extent (au):  <R**2>=           1044.9869
 Charge=             -0.0000 electrons
 Dipole moment (field-independent basis, Debye):
    X=             -7.4721    Y=              7.3677    Z=             -0.0073  Tot=             10.4936
 Quadrupole moment (field-independent basis, Debye-Ang):
   XX=            -64.1874   YY=            -72.6188   ZZ=            -65.3493
   XY=             15.2338   XZ=             -0.0175   YZ=              0.0186
 Traceless Quadrupole moment (field-independent basis, Debye-Ang):
   XX=              3.1978   YY=             -5.2337   ZZ=              2.0359
   XY=             15.2338   XZ=             -0.0175   YZ=              0.0186
 Octapole moment (field-independent basis, Debye-Ang**2):
  XXX=           -132.1010  YYY=            109.1489  ZZZ=             -0.0519  XYY=            -54.0133
  XXY=             61.8087  XXZ=             -0.0630  XZZ=            -21.1259  YZZ=             24.4822
  YYZ=             -0.0652  XYZ=              0.0265
 Hexadecapole moment (field-independent basis, Debye-Ang**3):
 XXXX=          -1381.6041 YYYY=           -861.1105 ZZZZ=           -143.8830 XXXY=            237.9895
 XXXZ=             -0.3360 YYYX=            173.8224 YYYZ=              0.1991 ZZZX=             -0.1009
 ZZZY=              0.1128 XXYY=           -390.4004 XXZZ=           -250.2339 YYZZ=           -174.3794
 XXYZ=              0.1314 YYXZ=             -0.0518 ZZXY=             43.8497
 N-N= 4.013368668897D+02 E-N=-1.640412411981D+03  KE= 3.595926601775D+02
 Calling FoFJK, ICntrl=  10005127 FMM=F ISym2X=0 I1Cent= 0 IOpClX= 0 NMat=1 NMatS=1 NMatT=0.
 ***** Axes restored to original set *****
 -------------------------------------------------------------------
 Center     Atomic                   Forces (Hartrees/Bohr)
 Number     Number              X              Y              Z
 -------------------------------------------------------------------
      1        6          -0.000140409    0.009991293   -0.000014824
      2        6           0.016379503   -0.029984218    0.000006625
      3        6          -0.033893723   -0.008305565    0.000021552
      4        6           0.056171514   -0.028950472   -0.000058713
      5        6          -0.009424842    0.032472655   -0.000016034
      6        6           0.022653080    0.005541959    0.000024256
      7        7          -0.051915567    0.019786629    0.000043260
      8        6           0.005112967   -0.001918926    0.000035068
      9        6          -0.012784311    0.016887147   -0.000060161
     10        1           0.007092822   -0.020784246    0.000017634
     11        1           0.000818755    0.004526273    0.000004860
     12        1           0.004922035   -0.002897117    0.000006840
     13        1          -0.002646931   -0.002216332    0.000000802
     14        1           0.001104514   -0.000044326   -0.000006207
     15        1          -0.003524010    0.002549720   -0.000001660
     16        1           0.000074602    0.003345525   -0.000003297
 -------------------------------------------------------------------
 Cartesian Forces:  Max     0.056171514 RMS     0.016014326

 GradGradGradGradGradGradGradGradGradGradGradGradGradGradGradGradGradGrad
 Berny optimization.
 FormGI is forming the generalized inverse of G from B-inverse, IUseBI=4.
 Internal  Forces:  Max     0.042621236 RMS     0.008366373
 Search for a local minimum.
 Step number   1 out of a maximum of   94
 All quantities printed in internal units (Hartrees-Bohrs-Radians)
 Mixed Optimization -- RFO/linear search
 Second derivative matrix not updated -- first step.
 ITU=  0
     Eigenvalues ---    0.01853   0.01931   0.01986   0.02012   0.02070
     Eigenvalues ---    0.02113   0.02148   0.02153   0.02172   0.02209
     Eigenvalues ---    0.02233   0.02248   0.02338   0.16000   0.16000
     Eigenvalues ---    0.16000   0.16000   0.16000   0.16000   0.16000
     Eigenvalues ---    0.22000   0.22188   0.22662   0.24011   0.24651
     Eigenvalues ---    0.35712   0.35717   0.35783   0.35790   0.36420
     Eigenvalues ---    0.36427   0.37009   0.38432   0.42633   0.43465
     Eigenvalues ---    0.45769   0.46692   0.47162   0.47468   0.47567
     Eigenvalues ---    0.48125   0.50955
 RFO step:  Lambda=-1.31000902D-02 EMin= 1.85287394D-02
 Linear search not attempted -- first point.
 Iteration  1 RMS(Cart)=  0.02709660 RMS(Int)=  0.00018480
 Iteration  2 RMS(Cart)=  0.00021748 RMS(Int)=  0.00003937
 Iteration  3 RMS(Cart)=  0.00000003 RMS(Int)=  0.00003937
 Variable       Old X    -DE/DX   Delta X   Delta X   Delta X     New X
                                 (Linear)    (Quad)   (Total)
    R1        2.65547   0.02604   0.00000   0.05542   0.05546   2.71094
    R2        2.61291   0.01328   0.00000   0.02599   0.02601   2.63893
    R3        2.04421   0.00431   0.00000   0.01163   0.01163   2.05584
    R4        2.61557  -0.01797   0.00000  -0.03661  -0.03659   2.57898
    R5        2.04411   0.00340   0.00000   0.00917   0.00917   2.05328
    R6        2.63373   0.02084   0.00000   0.04407   0.04405   2.67778
    R7        2.04534   0.00006   0.00000   0.00015   0.00015   2.04549
    R8        2.68058   0.03099   0.00000   0.07314   0.07300   2.75357
    R9        2.60126  -0.04262   0.00000  -0.08580  -0.08584   2.51543
   R10        2.64771  -0.01587   0.00000  -0.03350  -0.03352   2.61418
   R11        2.70839  -0.00480   0.00000  -0.00768  -0.00771   2.70068
   R12        2.04526   0.00335   0.00000   0.00904   0.00904   2.05430
   R13        2.60573   0.01318   0.00000   0.02324   0.02332   2.62905
   R14        1.89542   0.02197   0.00000   0.04532   0.04532   1.94074
   R15        2.57870  -0.00712   0.00000  -0.01290  -0.01281   2.56589
   R16        2.03419   0.00452   0.00000   0.01199   0.01199   2.04618
   R17        2.03430   0.00520   0.00000   0.01378   0.01378   2.04809
    A1        2.11420   0.00724   0.00000   0.02870   0.02873   2.14294
    A2        2.07986  -0.00301   0.00000  -0.01083  -0.01085   2.06901
    A3        2.08912  -0.00423   0.00000  -0.01787  -0.01789   2.07124
    A4        2.11523   0.00020   0.00000  -0.00112  -0.00108   2.11415
    A5        2.08365   0.00047   0.00000   0.00387   0.00385   2.08750
    A6        2.08430  -0.00067   0.00000  -0.00275  -0.00277   2.08154
    A7        2.05144  -0.00468   0.00000  -0.01866  -0.01868   2.03276
    A8        2.11267   0.00346   0.00000   0.01578   0.01579   2.12845
    A9        2.11908   0.00123   0.00000   0.00288   0.00289   2.12197
   A10        2.13389   0.00203   0.00000   0.01215   0.01214   2.14603
   A11        2.27895  -0.00234   0.00000  -0.01044  -0.01032   2.26863
   A12        1.87035   0.00031   0.00000  -0.00171  -0.00182   1.86853
   A13        2.07274   0.00076   0.00000   0.00211   0.00210   2.07484
   A14        1.86517  -0.00058   0.00000   0.00488   0.00478   1.86996
   A15        2.34527  -0.00018   0.00000  -0.00699  -0.00688   2.33839
   A16        2.07887  -0.00556   0.00000  -0.02318  -0.02321   2.05567
   A17        2.10306   0.00296   0.00000   0.01265   0.01266   2.11573
   A18        2.10125   0.00259   0.00000   0.01053   0.01054   2.11179
   A19        1.90743   0.00147   0.00000  -0.00279  -0.00277   1.90466
   A20        2.19023  -0.00054   0.00000   0.00251   0.00250   2.19273
   A21        2.18553  -0.00093   0.00000   0.00027   0.00027   2.18580
   A22        1.86968  -0.00937   0.00000  -0.03195  -0.03191   1.83778
   A23        2.21717   0.00389   0.00000   0.01138   0.01136   2.22852
   A24        2.19633   0.00548   0.00000   0.02057   0.02055   2.21688
   A25        1.91215   0.00817   0.00000   0.03157   0.03171   1.94386
   A26        2.10250  -0.00651   0.00000  -0.02978  -0.02985   2.07266
   A27        2.26854  -0.00166   0.00000  -0.00180  -0.00187   2.26667
    D1       -0.00001  -0.00001   0.00000  -0.00014  -0.00014  -0.00015
    D2       -3.14156  -0.00000   0.00000  -0.00012  -0.00012   3.14151
    D3        3.14152  -0.00000   0.00000  -0.00002  -0.00002   3.14151
    D4       -0.00002   0.00000   0.00000   0.00001   0.00001  -0.00002
    D5       -0.00003   0.00001   0.00000   0.00024   0.00024   0.00021
    D6        3.14153   0.00000   0.00000   0.00008   0.00008  -3.14158
    D7       -3.14157   0.00000   0.00000   0.00011   0.00011  -3.14145
    D8       -0.00001  -0.00000   0.00000  -0.00005  -0.00004  -0.00005
    D9        0.00003  -0.00000   0.00000  -0.00006  -0.00006  -0.00003
   D10       -3.14154   0.00000   0.00000   0.00004   0.00004  -3.14149
   D11        3.14158  -0.00000   0.00000  -0.00008  -0.00008   3.14149
   D12        0.00001   0.00000   0.00000   0.00002   0.00002   0.00003
   D13       -0.00001   0.00001   0.00000   0.00016   0.00016   0.00015
   D14       -3.14144  -0.00001   0.00000  -0.00020  -0.00019   3.14155
   D15        3.14156   0.00000   0.00000   0.00006   0.00006  -3.14157
   D16        0.00013  -0.00001   0.00000  -0.00030  -0.00030  -0.00017
   D17       -0.00004  -0.00000   0.00000  -0.00007  -0.00006  -0.00010
   D18       -3.14151  -0.00001   0.00000  -0.00018  -0.00018   3.14149
   D19        3.14143   0.00001   0.00000   0.00022   0.00022  -3.14154
   D20       -0.00005   0.00000   0.00000   0.00010   0.00010   0.00005
   D21       -3.14124  -0.00001   0.00000  -0.00012  -0.00012  -3.14136
   D22       -0.00113   0.00000   0.00000   0.00017   0.00017  -0.00096
   D23        0.00049  -0.00002   0.00000  -0.00044  -0.00043   0.00006
   D24        3.14060  -0.00001   0.00000  -0.00015  -0.00014   3.14047
   D25        0.00005  -0.00000   0.00000  -0.00014  -0.00014  -0.00008
   D26       -3.14151   0.00000   0.00000   0.00002   0.00002  -3.14148
   D27        3.14150   0.00000   0.00000   0.00002   0.00002   3.14152
   D28       -0.00007   0.00001   0.00000   0.00018   0.00018   0.00011
   D29       -0.00041   0.00001   0.00000   0.00027   0.00026  -0.00014
   D30        3.14139   0.00000   0.00000   0.00011   0.00011   3.14150
   D31        3.14132   0.00000   0.00000   0.00012   0.00012   3.14144
   D32       -0.00006  -0.00000   0.00000  -0.00004  -0.00003  -0.00010
   D33       -0.00077   0.00002   0.00000   0.00060   0.00061  -0.00016
   D34        3.14133  -0.00000   0.00000   0.00009   0.00010   3.14143
   D35       -3.14089   0.00001   0.00000   0.00031   0.00032  -3.14057
   D36        0.00121  -0.00001   0.00000  -0.00020  -0.00019   0.00102
   D37        0.00072  -0.00002   0.00000  -0.00054  -0.00053   0.00019
   D38       -3.14144  -0.00000   0.00000   0.00003   0.00004  -3.14141
   D39       -3.14107  -0.00001   0.00000  -0.00038  -0.00038  -3.14146
   D40       -0.00005   0.00000   0.00000   0.00018   0.00019   0.00014
         Item               Value     Threshold  Converged?
 Maximum Force            0.042621     0.000450     NO 
 RMS     Force            0.008366     0.000300     NO 
 Maximum Displacement     0.074643     0.001800     NO 
 RMS     Displacement     0.027150     0.001200     NO 
 Predicted change in Energy=-6.752742D-03
 GradGradGradGradGradGradGradGradGradGradGradGradGradGradGradGradGradGrad

                          Input orientation:                          
 ---------------------------------------------------------------------
 Center     Atomic      Atomic             Coordinates (Angstroms)
 Number     Number       Type             X           Y           Z
 ---------------------------------------------------------------------
      1          6           0       -2.122795    0.686054    0.000015
      2          6           0       -2.113263   -0.748480    0.000065
      3          6           0       -0.940409   -1.446281    0.000012
      4          6           0        0.250949   -0.679073   -0.000130
      5          6           0        0.255470    0.778049   -0.000032
      6          6           0       -0.953779    1.449925    0.000091
      7          7           0        1.522275   -1.073501   -0.000169
      8          6           0        1.622434    1.195005   -0.000087
      9          6           0        2.347179    0.046794   -0.000019
     10          1           0        1.846409   -2.048004    0.000703
     11          1           0        2.005564    2.207747   -0.000121
     12          1           0        3.421433   -0.096748    0.000128
     13          1           0       -3.054377   -1.291523    0.000080
     14          1           0       -0.917731   -2.528469   -0.000042
     15          1           0       -3.081882    1.199558   -0.000023
     16          1           0       -0.990574    2.536393    0.000066
 ---------------------------------------------------------------------
                    Distance matrix (angstroms):
                    1          2          3          4          5
     1  C    0.000000
     2  C    1.434565   0.000000
     3  C    2.438214   1.364739   0.000000
     4  C    2.738290   2.365231   1.417019   0.000000
     5  C    2.380044   2.818012   2.525425   1.457128   0.000000
     6  C    1.396459   2.485436   2.896237   2.446222   1.383366
     7  N    4.047538   3.650038   2.490738   1.331106   2.243441
     8  C    3.779652   4.211005   3.680293   2.322313   1.429140
     9  C    4.515453   4.530784   3.610749   2.218347   2.215847
    10  H    4.819714   4.167465   2.851039   2.102252   3.243094
    11  H    4.399875   5.069913   4.693685   3.378224   2.259837
    12  H    5.599218   5.572936   4.565842   3.223518   3.284599
    13  H    2.186013   1.086550   2.119625   3.361589   3.903616
    14  H    3.432977   2.144215   1.082425   2.187711   3.508484
    15  H    1.087904   2.175563   3.403876   3.825836   3.363866
    16  H    2.169258   3.471429   3.982990   3.446824   2.155087
                    6          7          8          9         10
     6  C    0.000000
     7  N    3.535325   0.000000
     8  C    2.588794   2.270715   0.000000
     9  C    3.586795   1.391232   1.357808   0.000000
    10  H    4.480687   1.026995   3.250734   2.153822   0.000000
    11  H    3.054833   3.316648   1.082790   2.187788   4.258725
    12  H    4.640547   2.135614   2.214729   1.083802   2.507609
    13  H    3.453701   4.581842   5.296733   5.564881   4.958827
    14  H    3.978558   2.840874   4.507405   4.158319   2.805587
    15  H    2.142781   5.134692   4.704319   5.550097   5.902094
    16  H    1.087090   4.398379   2.937198   4.163976   5.391211
                   11         12         13         14         15
    11  H    0.000000
    12  H    2.704696   0.000000
    13  H    6.152064   6.585105   0.000000
    14  H    5.565734   4.974095   2.468864   0.000000
    15  H    5.186382   6.631254   2.491233   4.310654   0.000000
    16  H    3.014109   5.138019   4.348819   5.065386   2.482076
                   16
    16  H    0.000000
 Stoichiometry    C8H7N
 Framework group  C1[X(C8H7N)]
 Deg. of freedom    42
 Full point group                 C1      NOp   1
 Largest Abelian subgroup         C1      NOp   1
 Largest concise Abelian subgroup C1      NOp   1
                         Standard orientation:                         
 ---------------------------------------------------------------------
 Center     Atomic      Atomic             Coordinates (Angstroms)
 Number     Number       Type             X           Y           Z
 ---------------------------------------------------------------------
      1          6           0       -2.106508    0.730288    0.000029
      2          6           0       -2.128699   -0.704106    0.000079
      3          6           0       -0.971561   -1.427670    0.000027
      4          6           0        0.236470   -0.686992   -0.000115
      5          6           0        0.273209    0.769673   -0.000017
      6          6           0       -0.920888    1.468124    0.000105
      7          7           0        1.498763   -1.109435   -0.000154
      8          6           0        1.649058    1.156301   -0.000072
      9          6           0        2.348237   -0.007654   -0.000004
     10          1           0        1.801270   -2.090867    0.000718
     11          1           0        2.054488    2.160324   -0.000107
     12          1           0        3.419055   -0.174915    0.000142
     13          1           0       -3.081591   -1.226206    0.000094
     14          1           0       -0.972818   -2.510095   -0.000028
     15          1           0       -3.054007    1.264874   -0.000008
     16          1           0       -0.933650    2.555139    0.000081
 ---------------------------------------------------------------------
 Rotational constants (GHZ):           3.7736450           1.6786844           1.1618445
 Standard basis: 6-31+G(d) (6D, 7F)
 There are   185 symmetry adapted cartesian basis functions of A   symmetry.
 There are   185 symmetry adapted basis functions of A   symmetry.
   185 basis functions,   316 primitive gaussians,   185 cartesian basis functions
    31 alpha electrons       31 beta electrons
       nuclear repulsion energy       400.9477252391 Hartrees.
 NAtoms=   16 NActive=   16 NUniq=   16 SFac= 1.00D+00 NAtFMM=   60 NAOKFM=F Big=F
 Integral buffers will be    131072 words long.
 Regular integral format.
 Two-electron integral symmetry is turned on.
 One-electron integrals computed using PRISM.
 NBasis=   185 RedAO= T EigKep=  1.42D-06  NBF=   185
 NBsUse=   185 1.00D-06 EigRej= -1.00D+00 NBFU=   185
 Initial guess from the checkpoint file:  "FuncsM06-V-2nd.chk"
 B after Tr=     0.000000   -0.000000   -0.000000
         Rot=    0.999947    0.000001   -0.000004    0.010338 Ang=   1.18 deg.
 ExpMin= 4.38D-02 ExpMax= 4.17D+03 ExpMxC= 6.27D+02 IAcc=3 IRadAn=         5 AccDes= 0.00D+00
 Harris functional with IExCor= 1009 and IRadAn=       5 diagonalized for initial guess.
 HarFok:  IExCor= 1009 AccDes= 0.00D+00 IRadAn=         5 IDoV= 1 UseB2=F ITyADJ=14
 ICtDFT=  3500011 ScaDFX=  1.000000  1.000000  1.000000  1.000000
 FoFCou: FMM=F IPFlag=           0 FMFlag=      100000 FMFlg1=           0
         NFxFlg=           0 DoJE=T BraDBF=F KetDBF=T FulRan=T
         wScrn=  0.000000 ICntrl=       500 IOpCl=  0 I1Cent=   200000004 NGrid=           0
         NMat0=    1 NMatS0=      1 NMatT0=    0 NMatD0=    1 NMtDS0=    0 NMtDT0=    0
 Petite list used in FoFCou.
 Keep R1 ints in memory in canonical form, NReq=152074523.
 Requested convergence on RMS density matrix=1.00D-08 within 128 cycles.
 Requested convergence on MAX density matrix=1.00D-06.
 Requested convergence on             energy=1.00D-06.
 No special actions if energy rises.
 SCF Done:  E(RM06) =  -363.545350092     A.U. after   13 cycles
            NFock= 13  Conv=0.70D-08     -V/T= 2.0112
 DoSCS=F DFT=T ScalE2(SS,OS)=  1.000000  1.000000
 ExpMin= 4.38D-02 ExpMax= 4.17D+03 ExpMxC= 6.27D+02 IAcc=3 IRadAn=         5 AccDes= 0.00D+00
 HarFok:  IExCor=  205 AccDes= 0.00D+00 IRadAn=         5 IDoV=-2 UseB2=F ITyADJ=14
 ICtDFT= 12500011 ScaDFX=  1.000000  1.000000  1.000000  1.000000
 Range of M.O.s used for correlation:    10   185
 NBasis=   185 NAE=    31 NBE=    31 NFC=     9 NFV=     0
 NROrb=    176 NOA=    22 NOB=    22 NVA=   154 NVB=   154

 **** Warning!!: The largest alpha MO coefficient is  0.18338896D+03

 Orbital symmetries:
       Occupied  (A) (A) (A) (A) (A) (A) (A) (A) (A) (A) (A) (A)
                 (A) (A) (A) (A) (A) (A) (A) (A) (A) (A) (A) (A)
                 (A) (A) (A) (A) (A) (A) (A)
       Virtual   (A) (A) (A) (A) (A) (A) (A) (A) (A) (A) (A) (A)
                 (A) (A) (A) (A) (A) (A) (A) (A) (A) (A) (A) (A)
                 (A) (A) (A) (A) (A) (A) (A) (A) (A) (A) (A) (A)
                 (A) (A) (A) (A) (A) (A) (A) (A) (A) (A) (A) (A)
                 (A) (A) (A) (A) (A) (A) (A) (A) (A) (A) (A) (A)
                 (A) (A) (A) (A) (A) (A) (A) (A) (A) (A) (A) (A)
                 (A) (A) (A) (A) (A) (A) (A) (A) (A) (A) (A) (A)
                 (A) (A) (A) (A) (A) (A) (A) (A) (A) (A) (A) (A)
                 (A) (A) (A) (A) (A) (A) (A) (A) (A) (A) (A) (A)
                 (A) (A) (A) (A) (A) (A) (A) (A) (A) (A) (A) (A)
                 (A) (A) (A) (A) (A) (A) (A) (A) (A) (A) (A) (A)
                 (A) (A) (A) (A) (A) (A) (A) (A) (A) (A) (A) (A)
                 (A) (A) (A) (A) (A) (A) (A) (A) (A) (A)
 Generating guess from densities on rwf.
 Convergence on wavefunction:    0.000001000000000
 Iteration     1 Dimension    12 NMult     0 NNew     12
 CISAX will form    12 AO SS matrices at one time.
 New state      1 was old state      5
 New state      2 was old state      1
 New state      4 was old state      2
 New state      5 was old state      6
 New state      6 was old state      4
 Iteration     2 Dimension    24 NMult    12 NNew     12
 New state      1 was old state      2
 New state      2 was old state      4
 New state      3 was old state      1
 New state      4 was old state      3
 New state      5 was old state      6
 New state      6 was old state      5
 Iteration     3 Dimension    36 NMult    24 NNew     12
 Iteration     4 Dimension    48 NMult    36 NNew     12
 Iteration     5 Dimension    60 NMult    48 NNew     12
 Iteration     6 Dimension    72 NMult    60 NNew     12
 Iteration     7 Dimension    84 NMult    72 NNew     12
 Iteration     8 Dimension    96 NMult    84 NNew     12
 Iteration     9 Dimension   108 NMult    96 NNew     12
 Iteration    10 Dimension   120 NMult   108 NNew     12
 Iteration    11 Dimension   128 NMult   120 NNew      8
 Iteration    12 Dimension   132 NMult   128 NNew      4
 ***********************************************************************
 Excited states from <AA,BB:AA,BB> singles matrix:
 ***********************************************************************
 
 Ground to excited state transition densities written to RWF  633
 Ground to excited state transition electric dipole moments (Au):
       state          X           Y           Z        Dip. S.      Osc.
         1        -0.0001      0.0002     -0.0941      0.0089      0.0009
         2        -0.0004     -0.0002     -0.0787      0.0062      0.0007
         3        -0.6089     -0.3805      0.0000      0.5155      0.0592
         4        -0.5771      0.4719      0.0000      0.5557      0.0661
         5        -0.0002      0.0000     -0.0027      0.0000      0.0000
         6        -0.0002      0.0001     -0.0489      0.0024      0.0003
 Ground to excited state transition velocity dipole moments (Au):
       state          X           Y           Z        Dip. S.      Osc.
         1         0.0000     -0.0000      0.0074      0.0001      0.0002
         2         0.0001      0.0000      0.0160      0.0003      0.0011
         3         0.1047      0.0713     -0.0000      0.0160      0.0621
         4         0.0973     -0.0921     -0.0000      0.0179      0.0670
         5         0.0000     -0.0000      0.0020      0.0000      0.0000
         6         0.0000     -0.0000      0.0089      0.0001      0.0003
 Ground to excited state transition magnetic dipole moments (Au):
       state          X           Y           Z
         1         0.1038     -0.0367      0.0002
         2        -0.0030     -0.1670     -0.0001
         3        -0.0001      0.0000     -0.2642
         4        -0.0001      0.0001      0.1266
         5         0.1634     -0.0129      0.0000
         6        -0.0237     -0.2869      0.0000
 Ground to excited state transition velocity quadrupole moments (Au):
       state          XX          YY          ZZ          XY          XZ          YZ
         1         0.0000     -0.0000      0.0001      0.0000      0.0395      0.0310
         2        -0.0001     -0.0001     -0.0000     -0.0000      0.0869     -0.0484
         3        -0.0136     -0.0652      0.0041     -0.0623     -0.0001      0.0000
         4         0.2888     -0.1734      0.0339     -0.0212     -0.0001     -0.0001
         5         0.0001     -0.0001     -0.0000     -0.0001      0.0161      0.1512
         6        -0.0000     -0.0001      0.0000     -0.0000      0.2707      0.0199
 <0|del|b> * <b|rxdel|0> + <0|del|b> * <b|delr+rdel|0>
 Rotatory Strengths (R) in cgs (10**-40 erg-esu-cm/Gauss)
       state          XX          YY          ZZ    R(velocity)    E-M Angle
         1         0.0080      0.0108      0.0040      0.0076       90.00
         2        -0.0238     -0.0113      0.0003     -0.0116       90.00
         3         0.0186     -0.0128     -0.0304     -0.0082       90.00
         4        -0.0252     -0.0380      0.0123     -0.0170       90.00
         5         0.0004      0.0155      0.0005      0.0055       90.00
         6         0.0319      0.0001     -0.0023      0.0099       90.00
 1/2[<0|r|b>*<b|rxdel|0> + (<0|rxdel|b>*<b|r|0>)*]
 Rotatory Strengths (R) in cgs (10**-40 erg-esu-cm/Gauss)
       state          XX          YY          ZZ     R(length)
         1         0.0090      0.0044      0.0137      0.0091
         2        -0.0008     -0.0219     -0.0068     -0.0098
         3        -0.0400      0.0071      0.0088     -0.0080
         4        -0.0252     -0.0222     -0.0034     -0.0169
         5         0.0183      0.0004      0.0000      0.0063
         6        -0.0034      0.0277      0.0000      0.0081
  1/2[<0|del|b>*<b|r|0> + (<0|r|b>*<b|del|0>)*] (Au)
       state          X           Y           Z        Dip. S.   Osc.(frdel)
         1        -0.0000     -0.0000     -0.0007      0.0007      0.0005
         2        -0.0000     -0.0000     -0.0013      0.0013      0.0008
         3        -0.0637     -0.0271     -0.0000      0.0909      0.0606
         4        -0.0561     -0.0434     -0.0000      0.0996      0.0664
         5        -0.0000     -0.0000     -0.0000      0.0000      0.0000
         6        -0.0000     -0.0000     -0.0004      0.0004      0.0003

 Excitation energies and oscillator strengths:
 
 Excited State   1:      Singlet-A      4.3158 eV  287.28 nm  f=0.0009  <S**2>=0.000
      30 -> 32         0.53942
      31 -> 32        -0.45246
 
 Excited State   2:      Singlet-A      4.3580 eV  284.50 nm  f=0.0007  <S**2>=0.000
      30 -> 32         0.45106
      31 -> 32         0.53671
 This state for optimization and/or second-order correction.
 Total Energy, E(TD-HF/TD-DFT) =  -363.385195812    
 Copying the excited state density for this state as the 1-particle RhoCI density.
 
 Excited State   3:      Singlet-A      4.6863 eV  264.57 nm  f=0.0592  <S**2>=0.000
      30 -> 34         0.31815
      30 -> 38        -0.25599
      31 -> 34         0.53979
      31 -> 38         0.16601
 
 Excited State   4:      Singlet-A      4.8559 eV  255.33 nm  f=0.0661  <S**2>=0.000
      30 -> 34         0.53478
      31 -> 34        -0.35561
      31 -> 38         0.26085
 
 Excited State   5:      Singlet-A      4.9302 eV  251.48 nm  f=0.0000  <S**2>=0.000
      31 -> 33        -0.68980
      31 -> 35        -0.10482
 
 Excited State   6:      Singlet-A      4.9517 eV  250.39 nm  f=0.0003  <S**2>=0.000
      30 -> 33         0.67198
      31 -> 35         0.19703
 SavETr:  write IOETrn=   770 NScale= 10 NData=  16 NLR=1 NState=    6 LETran=     118.
          IDoAtm=1111111111111111
          Differentiating once with respect to electric field.
                with respect to dipole field.
          Differentiating once with respect to nuclear coordinates.
 Keep R1 ints in memory in canonical form, NReq=152086915.
          There are     1 degrees of freedom in the 1st order CPHF.  IDoFFX=0 NUNeed=     1.
 LinEq1:  Iter=  0 NonCon=     1 RMS=1.86D-02 Max=3.19D-01 NDo=     1
 AX will form     1 AO Fock derivatives at one time.
 LinEq1:  Iter=  1 NonCon=     1 RMS=1.03D-02 Max=1.42D-01 NDo=     1
 LinEq1:  Iter=  2 NonCon=     1 RMS=4.74D-03 Max=1.01D-01 NDo=     1
 LinEq1:  Iter=  3 NonCon=     1 RMS=2.67D-03 Max=5.98D-02 NDo=     1
 LinEq1:  Iter=  4 NonCon=     1 RMS=1.66D-03 Max=2.50D-02 NDo=     1
 LinEq1:  Iter=  5 NonCon=     1 RMS=8.41D-04 Max=2.13D-02 NDo=     1
 LinEq1:  Iter=  6 NonCon=     1 RMS=4.37D-04 Max=8.45D-03 NDo=     1
 LinEq1:  Iter=  7 NonCon=     1 RMS=2.49D-04 Max=6.34D-03 NDo=     1
 LinEq1:  Iter=  8 NonCon=     1 RMS=1.06D-04 Max=2.26D-03 NDo=     1
 LinEq1:  Iter=  9 NonCon=     1 RMS=5.41D-05 Max=8.27D-04 NDo=     1
 LinEq1:  Iter= 10 NonCon=     1 RMS=1.83D-05 Max=2.96D-04 NDo=     1
 LinEq1:  Iter= 11 NonCon=     1 RMS=1.16D-05 Max=2.51D-04 NDo=     1
 LinEq1:  Iter= 12 NonCon=     1 RMS=5.15D-06 Max=9.59D-05 NDo=     1
 LinEq1:  Iter= 13 NonCon=     1 RMS=4.02D-06 Max=7.52D-05 NDo=     1
 LinEq1:  Iter= 14 NonCon=     1 RMS=1.13D-06 Max=1.53D-05 NDo=     1
 LinEq1:  Iter= 15 NonCon=     1 RMS=5.97D-07 Max=7.83D-06 NDo=     1
 LinEq1:  Iter= 16 NonCon=     1 RMS=2.39D-07 Max=4.26D-06 NDo=     1
 LinEq1:  Iter= 17 NonCon=     1 RMS=5.83D-08 Max=1.10D-06 NDo=     1
 LinEq1:  Iter= 18 NonCon=     1 RMS=3.62D-08 Max=6.31D-07 NDo=     1
 LinEq1:  Iter= 19 NonCon=     1 RMS=1.42D-08 Max=2.42D-07 NDo=     1
 LinEq1:  Iter= 20 NonCon=     1 RMS=3.22D-09 Max=4.94D-08 NDo=     1
 LinEq1:  Iter= 21 NonCon=     1 RMS=5.85D-10 Max=5.93D-09 NDo=     1
 LinEq1:  Iter= 22 NonCon=     1 RMS=1.50D-10 Max=1.35D-09 NDo=     1
 LinEq1:  Iter= 23 NonCon=     0 RMS=5.45D-11 Max=5.19D-10 NDo=     1
 Linear equations converged to 1.000D-10 1.000D-09 after    23 iterations.
 End of Minotr F.D. properties file   721 does not exist.
 End of Minotr F.D. properties file   722 does not exist.
 End of Minotr F.D. properties file   788 does not exist.
 Calling FoFJK, ICntrl=  10005127 FMM=F ISym2X=0 I1Cent= 0 IOpClX= 0 NMat=1 NMatS=1 NMatT=0.
 ***** Axes restored to original set *****
 -------------------------------------------------------------------
 Center     Atomic                   Forces (Hartrees/Bohr)
 Number     Number              X              Y              Z
 -------------------------------------------------------------------
      1        6          -0.000514956    0.003627047    0.000011210
      2        6           0.003552773   -0.002459107   -0.000006964
      3        6          -0.007222894    0.000022921   -0.000007806
      4        6           0.013856306   -0.005109250    0.000031103
      5        6          -0.006225758    0.006198712   -0.000032540
      6        6          -0.000777286   -0.001247505   -0.000010905
      7        7          -0.010797285    0.006722966    0.000028280
      8        6          -0.000551946   -0.006371152    0.000008934
      9        6           0.006639368    0.002721031   -0.000003798
     10        1           0.003013555   -0.003651168   -0.000025154
     11        1          -0.000373457   -0.000483624    0.000002008
     12        1           0.000294549   -0.001336133   -0.000001306
     13        1          -0.000991190    0.001597514    0.000000933
     14        1           0.001791436    0.000448841    0.000003022
     15        1          -0.000445086   -0.000422015   -0.000000292
     16        1          -0.001248128   -0.000259078    0.000003277
 -------------------------------------------------------------------
 Cartesian Forces:  Max     0.013856306 RMS     0.003734625

 GradGradGradGradGradGradGradGradGradGradGradGradGradGradGradGradGradGrad
 Berny optimization.
 Using GEDIIS/GDIIS optimizer.
 FormGI is forming the generalized inverse of G from B-inverse, IUseBI=4.
 Internal  Forces:  Max     0.004972535 RMS     0.001568690
 Search for a local minimum.
 Step number   2 out of a maximum of   94
 All quantities printed in internal units (Hartrees-Bohrs-Radians)
 Mixed Optimization -- RFO/linear search
 Update second derivatives using D2CorX and points    1    2
 DE= -6.82D-03 DEPred=-6.75D-03 R= 1.01D+00
 TightC=F SS=  1.41D+00  RLast= 1.76D-01 DXNew= 5.0454D-01 5.2673D-01
 Trust test= 1.01D+00 RLast= 1.76D-01 DXMaxT set to 5.05D-01
 ITU=  1  0
 Use linear search instead of GDIIS.
     Eigenvalues ---    0.01853   0.01932   0.01986   0.02012   0.02071
     Eigenvalues ---    0.02112   0.02148   0.02152   0.02171   0.02208
     Eigenvalues ---    0.02235   0.02248   0.02342   0.15694   0.16000
     Eigenvalues ---    0.16000   0.16000   0.16000   0.16000   0.16063
     Eigenvalues ---    0.21983   0.22198   0.23378   0.24622   0.24967
     Eigenvalues ---    0.35534   0.35724   0.35761   0.35790   0.35864
     Eigenvalues ---    0.36439   0.36498   0.38562   0.42329   0.43560
     Eigenvalues ---    0.44087   0.46341   0.46994   0.47429   0.47970
     Eigenvalues ---    0.49078   0.50818
 RFO step:  Lambda=-8.10474816D-04 EMin= 1.85287216D-02
 Quartic linear search produced a step of  0.03929.
 Iteration  1 RMS(Cart)=  0.00745810 RMS(Int)=  0.00003403
 Iteration  2 RMS(Cart)=  0.00004772 RMS(Int)=  0.00000819
 Iteration  3 RMS(Cart)=  0.00000000 RMS(Int)=  0.00000819
 Variable       Old X    -DE/DX   Delta X   Delta X   Delta X     New X
                                 (Linear)    (Quad)   (Total)
    R1        2.71094   0.00101   0.00218   0.00318   0.00536   2.71629
    R2        2.63893  -0.00195   0.00102  -0.00383  -0.00282   2.63611
    R3        2.05584   0.00019   0.00046   0.00081   0.00127   2.05711
    R4        2.57898  -0.00055  -0.00144  -0.00212  -0.00356   2.57542
    R5        2.05328   0.00006   0.00036   0.00038   0.00074   2.05402
    R6        2.67778   0.00364   0.00173   0.00934   0.01108   2.68886
    R7        2.04549  -0.00041   0.00001  -0.00119  -0.00118   2.04431
    R8        2.75357   0.00269   0.00287   0.00865   0.01152   2.76510
    R9        2.51543  -0.00497  -0.00337  -0.01267  -0.01606   2.49936
   R10        2.61418   0.00134  -0.00132   0.00242   0.00110   2.61529
   R11        2.70068   0.00153  -0.00030   0.00421   0.00393   2.70461
   R12        2.05430  -0.00022   0.00036  -0.00043  -0.00008   2.05423
   R13        2.62905   0.00083   0.00092   0.00200   0.00291   2.63195
   R14        1.94074   0.00441   0.00178   0.01073   0.01251   1.95325
   R15        2.56589  -0.00022  -0.00050  -0.00057  -0.00106   2.56482
   R16        2.04618  -0.00058   0.00047  -0.00140  -0.00093   2.04525
   R17        2.04809   0.00047   0.00054   0.00164   0.00218   2.05027
    A1        2.14294  -0.00084   0.00113  -0.00484  -0.00372   2.13922
    A2        2.06901  -0.00018  -0.00043  -0.00140  -0.00182   2.06719
    A3        2.07124   0.00102  -0.00070   0.00624   0.00554   2.07678
    A4        2.11415   0.00160  -0.00004   0.00636   0.00631   2.12046
    A5        2.08750  -0.00273   0.00015  -0.01556  -0.01541   2.07209
    A6        2.08154   0.00113  -0.00011   0.00920   0.00909   2.09063
    A7        2.03276   0.00072  -0.00073   0.00322   0.00249   2.03525
    A8        2.12845   0.00148   0.00062   0.01043   0.01105   2.13951
    A9        2.12197  -0.00221   0.00011  -0.01365  -0.01354   2.10843
   A10        2.14603  -0.00371   0.00048  -0.01368  -0.01318   2.13285
   A11        2.26863   0.00154  -0.00041   0.00597   0.00556   2.27419
   A12        1.86853   0.00216  -0.00007   0.00771   0.00762   1.87614
   A13        2.07484   0.00194   0.00008   0.00851   0.00859   2.08343
   A14        1.86996  -0.00460   0.00019  -0.01860  -0.01839   1.85157
   A15        2.33839   0.00266  -0.00027   0.01009   0.00980   2.34819
   A16        2.05567   0.00029  -0.00091   0.00043  -0.00049   2.05517
   A17        2.11573  -0.00144   0.00050  -0.00855  -0.00805   2.10768
   A18        2.11179   0.00115   0.00041   0.00812   0.00854   2.12033
   A19        1.90466   0.00210  -0.00011   0.00841   0.00827   1.91293
   A20        2.19273   0.00061   0.00010   0.00654   0.00665   2.19938
   A21        2.18580  -0.00271   0.00001  -0.01495  -0.01492   2.17087
   A22        1.83778   0.00376  -0.00125   0.01816   0.01694   1.85472
   A23        2.22852  -0.00206   0.00045  -0.01037  -0.00994   2.21859
   A24        2.21688  -0.00169   0.00081  -0.00780  -0.00700   2.20988
   A25        1.94386  -0.00342   0.00125  -0.01569  -0.01444   1.92942
   A26        2.07266   0.00040  -0.00117  -0.00092  -0.00209   2.07057
   A27        2.26667   0.00302  -0.00007   0.01660   0.01653   2.28320
    D1       -0.00015   0.00000  -0.00001   0.00016   0.00016   0.00000
    D2        3.14151   0.00000  -0.00000   0.00009   0.00008   3.14159
    D3        3.14151   0.00000  -0.00000   0.00006   0.00006   3.14157
    D4       -0.00002  -0.00000   0.00000  -0.00002  -0.00002  -0.00003
    D5        0.00021  -0.00000   0.00001  -0.00017  -0.00016   0.00005
    D6       -3.14158   0.00000   0.00000   0.00002   0.00002  -3.14155
    D7       -3.14145  -0.00000   0.00000  -0.00006  -0.00006  -3.14151
    D8       -0.00005   0.00000  -0.00000   0.00012   0.00012   0.00007
    D9       -0.00003   0.00000  -0.00000   0.00003   0.00003   0.00000
   D10       -3.14149  -0.00000   0.00000  -0.00005  -0.00005  -3.14154
   D11        3.14149   0.00000  -0.00000   0.00011   0.00011  -3.14159
   D12        0.00003   0.00000   0.00000   0.00003   0.00003   0.00006
   D13        0.00015  -0.00000   0.00001  -0.00022  -0.00021  -0.00006
   D14        3.14155   0.00001  -0.00001   0.00028   0.00027  -3.14136
   D15       -3.14157  -0.00000   0.00000  -0.00013  -0.00013   3.14149
   D16       -0.00017   0.00001  -0.00001   0.00036   0.00035   0.00018
   D17       -0.00010   0.00000  -0.00000   0.00021   0.00021   0.00011
   D18        3.14149   0.00000  -0.00001  -0.00000  -0.00001   3.14148
   D19       -3.14154  -0.00000   0.00001  -0.00018  -0.00017   3.14147
   D20        0.00005  -0.00001   0.00000  -0.00039  -0.00039  -0.00034
   D21       -3.14136  -0.00000  -0.00000  -0.00019  -0.00020  -3.14156
   D22       -0.00096   0.00001   0.00001   0.00039   0.00040  -0.00056
   D23        0.00006   0.00000  -0.00002   0.00024   0.00022   0.00029
   D24        3.14047   0.00002  -0.00001   0.00082   0.00082   3.14129
   D25       -0.00008  -0.00000  -0.00001  -0.00001  -0.00002  -0.00010
   D26       -3.14148  -0.00000   0.00000  -0.00020  -0.00020   3.14150
   D27        3.14152   0.00001   0.00000   0.00027   0.00027  -3.14140
   D28        0.00011   0.00000   0.00001   0.00008   0.00009   0.00020
   D29       -0.00014   0.00001   0.00001   0.00039   0.00040   0.00025
   D30        3.14150   0.00000   0.00000   0.00015   0.00015  -3.14153
   D31        3.14144   0.00000   0.00000   0.00013   0.00014   3.14158
   D32       -0.00010  -0.00000  -0.00000  -0.00011  -0.00011  -0.00021
   D33       -0.00016   0.00000   0.00002   0.00001   0.00004  -0.00013
   D34        3.14143   0.00000   0.00000   0.00007   0.00007   3.14150
   D35       -3.14057  -0.00001   0.00001  -0.00059  -0.00057  -3.14114
   D36        0.00102  -0.00001  -0.00001  -0.00053  -0.00054   0.00048
   D37        0.00019  -0.00001  -0.00002  -0.00026  -0.00028  -0.00009
   D38       -3.14141  -0.00001   0.00000  -0.00032  -0.00032   3.14146
   D39       -3.14146  -0.00000  -0.00002  -0.00002  -0.00003  -3.14149
   D40        0.00014  -0.00000   0.00001  -0.00008  -0.00007   0.00006
         Item               Value     Threshold  Converged?
 Maximum Force            0.004973     0.000450     NO 
 RMS     Force            0.001569     0.000300     NO 
 Maximum Displacement     0.030744     0.001800     NO 
 RMS     Displacement     0.007460     0.001200     NO 
 Predicted change in Energy=-4.166200D-04
 GradGradGradGradGradGradGradGradGradGradGradGradGradGradGradGradGradGrad

                          Input orientation:                          
 ---------------------------------------------------------------------
 Center     Atomic      Atomic             Coordinates (Angstroms)
 Number     Number       Type             X           Y           Z
 ---------------------------------------------------------------------
      1          6           0       -2.127314    0.690009   -0.000030
      2          6           0       -2.111048   -0.747299    0.000064
      3          6           0       -0.940959   -1.446060    0.000130
      4          6           0        0.258501   -0.680624    0.000102
      5          6           0        0.249796    0.782576   -0.000062
      6          6           0       -0.960274    1.454177   -0.000064
      7          7           0        1.522269   -1.070721   -0.000081
      8          6           0        1.622589    1.187334    0.000108
[...]
 ! A26   A(7,9,12)             120.9207         -DE/DX =    0.0024              !
 ! A27   A(8,9,12)             128.2631         -DE/DX =    0.0024              !
 ! D1    D(6,1,2,3)             -0.0105         -DE/DX =    0.0                 !
 ! D2    D(6,1,2,13)           179.9964         -DE/DX =    0.0                 !
 ! D3    D(15,1,2,3)           179.993          -DE/DX =    0.0                 !
 ! D4    D(15,1,2,13)           -0.0001         -DE/DX =    0.0                 !
 ! D5    D(2,1,6,5)              0.03           -DE/DX =    0.0                 !
 ! D6    D(2,1,6,16)          -179.9848         -DE/DX =    0.0                 !
 ! D7    D(15,1,6,5)          -179.9734         -DE/DX =    0.0                 !
 ! D8    D(15,1,6,16)            0.0117         -DE/DX =    0.0                 !
 ! D9    D(1,2,3,4)             -0.0002         -DE/DX =    0.0                 !
 ! D10   D(1,2,3,14)          -179.9747         -DE/DX =    0.0                 !
 ! D11   D(13,2,3,4)           179.9932         -DE/DX =    0.0                 !
 ! D12   D(13,2,3,14)            0.0187         -DE/DX =    0.0                 !
 ! D13   D(2,3,4,5)             -0.0096         -DE/DX =    0.0                 !
 ! D14   D(2,3,4,7)           -179.9446         -DE/DX =    0.0                 !
 ! D15   D(14,3,4,5)           179.9638         -DE/DX =    0.0                 !
 ! D16   D(14,3,4,7)             0.0288         -DE/DX =    0.0                 !
 ! D17   D(3,4,5,6)              0.0291         -DE/DX =    0.0                 !
 ! D18   D(3,4,5,8)            179.9691         -DE/DX =    0.0                 !
 ! D19   D(7,4,5,6)            179.977          -DE/DX =    0.0                 !
 ! D20   D(7,4,5,8)             -0.083          -DE/DX =    0.0                 !
 ! D21   D(3,4,7,9)           -179.9909         -DE/DX =    0.0                 !
 ! D22   D(3,4,7,10)            -0.0971         -DE/DX =    0.0                 !
 ! D23   D(5,4,7,9)              0.0644         -DE/DX =    0.0                 !
 ! D24   D(5,4,7,10)           179.9583         -DE/DX =    0.0                 !
 ! D25   D(4,5,6,1)             -0.0377         -DE/DX =    0.0                 !
 ! D26   D(4,5,6,16)           179.9767         -DE/DX =    0.0                 !
 ! D27   D(8,5,6,1)           -179.9605         -DE/DX =    0.0                 !
 ! D28   D(8,5,6,16)             0.0538         -DE/DX =    0.0                 !
 ! D29   D(4,5,8,9)              0.0699         -DE/DX =    0.0                 !
 ! D30   D(4,5,8,11)          -179.9648         -DE/DX =    0.0                 !
 ! D31   D(6,5,8,9)            179.9975         -DE/DX =    0.0                 !
 ! D32   D(6,5,8,11)            -0.0372         -DE/DX =    0.0                 !
 ! D33   D(4,7,9,8)             -0.0218         -DE/DX =    0.0                 !
 ! D34   D(4,7,9,12)           179.9693         -DE/DX =    0.0                 !
 ! D35   D(10,7,9,8)          -179.9133         -DE/DX =    0.0                 !
 ! D36   D(10,7,9,12)            0.0777         -DE/DX =    0.0                 !
 ! D37   D(5,8,9,7)             -0.0297         -DE/DX =    0.0                 !
 ! D38   D(5,8,9,12)           179.9801         -DE/DX =    0.0                 !
 ! D39   D(11,8,9,7)          -179.9962         -DE/DX =    0.0                 !
 ! D40   D(11,8,9,12)            0.0136         -DE/DX =    0.0                 !
 --------------------------------------------------------------------------------
 GradGradGradGradGradGradGradGradGradGradGradGradGradGradGradGradGradGrad

                          Input orientation:                          
 ---------------------------------------------------------------------
 Center     Atomic      Atomic             Coordinates (Angstroms)
 Number     Number       Type             X           Y           Z
 ---------------------------------------------------------------------
      1          6           0       -2.155096    0.676268   -0.000194
      2          6           0       -2.147834   -0.718898    0.000203
      3          6           0       -0.919851   -1.416497    0.000460
      4          6           0        0.228156   -0.654964    0.000294
      5          6           0        0.260686    0.751109   -0.000301
      6          6           0       -0.962360    1.432262   -0.000133
      7          7           0        1.565850   -1.064831   -0.000569
      8          6           0        1.610561    1.191515    0.000418
      9          6           0        2.364940    0.005011   -0.000207
     10          1           0        1.867317   -2.035296    0.000206
     11          1           0        1.998486    2.203346    0.000752
     12          1           0        3.444578   -0.105143   -0.000258
     13          1           0       -3.066843   -1.298613    0.000213
     14          1           0       -0.918874   -2.500765    0.000353
     15          1           0       -3.108316    1.201724   -0.000504
     16          1           0       -0.964497    2.521216   -0.000198
 ---------------------------------------------------------------------
                    Distance matrix (angstroms):
                    1          2          3          4          5
     1  C    0.000000
     2  C    1.395184   0.000000
     3  C    2.430123   1.412299   0.000000
     4  C    2.729848   2.376850   1.377626   0.000000
     5  C    2.416941   2.821681   2.468234   1.406449   0.000000
     6  C    1.412143   2.456184   2.849076   2.402882   1.399932
     7  N    4.108146   3.729761   2.510454   1.399077   2.236312
     8  C    3.800744   4.216066   3.633829   2.306627   1.419902
     9  C    4.569607   4.570467   3.579181   2.236383   2.232610
    10  H    4.851019   4.225440   2.855034   2.142934   3.216413
    11  H    4.425406   5.072621   4.649727   3.362143   2.264718
    12  H    5.653932   5.625990   4.557180   3.263077   3.297019
    13  H    2.175186   1.086576   2.150226   3.357277   3.908172
    14  H    3.409073   2.164577   1.084268   2.173168   3.459197
    15  H    1.088454   2.147397   3.412398   3.818290   3.399004
    16  H    2.195760   3.449438   3.937966   3.392719   2.152755
                    6          7          8          9         10
     6  C    0.000000
     7  N    3.553494   0.000000
     8  C    2.584160   2.256789   0.000000
     9  C    3.620493   1.335330   1.406015   0.000000
    10  H    4.475604   1.016211   3.237010   2.100114   0.000000
    11  H    3.059604   3.296689   1.083646   2.228670   4.240671
    12  H    4.667410   2.109650   2.246094   1.085243   2.492638
    13  H    3.447684   4.638588   5.298948   5.586027   4.988852
    14  H    3.933267   2.869802   4.475597   4.130659   2.824805
    15  H    2.158304   5.194718   4.718888   5.602557   5.935927
    16  H    1.088956   4.388894   2.898108   4.173301   5.364790
                   11         12         13         14         15
    11  H    0.000000
    12  H    2.724024   0.000000
    13  H    6.158025   6.619892   0.000000
    14  H    5.535310   4.977823   2.461491   0.000000
    15  H    5.204102   6.681940   2.500681   4.301404   0.000000
    16  H    2.979985   5.132027   4.360155   5.022188   2.517344
                   16
    16  H    0.000000
 Stoichiometry    C8H7N
 Framework group  C1[X(C8H7N)]
 Deg. of freedom    42
 Full point group                 C1      NOp   1
 Largest Abelian subgroup         C1      NOp   1
 Largest concise Abelian subgroup C1      NOp   1
                         Standard orientation:                         
 ---------------------------------------------------------------------
 Center     Atomic      Atomic             Coordinates (Angstroms)
 Number     Number       Type             X           Y           Z
 ---------------------------------------------------------------------
      1          6           0       -2.148936    0.687961   -0.000191
      2          6           0       -2.150592   -0.707222    0.000206
      3          6           0       -0.927093   -1.412656    0.000463
      4          6           0        0.225758   -0.658476    0.000297
      5          6           0        0.267274    0.747359   -0.000298
      6          6           0       -0.951392    1.436316   -0.000130
      7          7           0        1.560805   -1.076886   -0.000566
      8          6           0        1.619937    1.179128    0.000421
      9          6           0        2.366716   -0.012173   -0.000204
     10          1           0        1.856063   -2.049258    0.000208
     11          1           0        2.014322    2.188460    0.000754
     12          1           0        3.445629   -0.129225   -0.000256
     13          1           0       -3.073288   -1.281051    0.000216
     14          1           0       -0.933047   -2.496908    0.000356
     15          1           0       -3.098778    1.219500   -0.000502
     16          1           0       -0.946569    2.525262   -0.000195
 ---------------------------------------------------------------------
 Rotational constants (GHZ):           3.8829345           1.6468346           1.1563867

 **********************************************************************

            Population analysis using the CI Density.

 **********************************************************************

 Orbital symmetries:
       Occupied  (A) (A) (A) (A) (A) (A) (A) (A) (A) (A) (A) (A)
                 (A) (A) (A) (A) (A) (A) (A) (A) (A) (A) (A) (A)
                 (A) (A) (A) (A) (A) (A) (A)
       Virtual   (A) (A) (A) (A) (A) (A) (A) (A) (A) (A) (A) (A)
                 (A) (A) (A) (A) (A) (A) (A) (A) (A) (A) (A) (A)
                 (A) (A) (A) (A) (A) (A) (A) (A) (A) (A) (A) (A)
                 (A) (A) (A) (A) (A) (A) (A) (A) (A) (A) (A) (A)
                 (A) (A) (A) (A) (A) (A) (A) (A) (A) (A) (A) (A)
                 (A) (A) (A) (A) (A) (A) (A) (A) (A) (A) (A) (A)
                 (A) (A) (A) (A) (A) (A) (A) (A) (A) (A) (A) (A)
                 (A) (A) (A) (A) (A) (A) (A) (A) (A) (A) (A) (A)
                 (A) (A) (A) (A) (A) (A) (A) (A) (A) (A) (A) (A)
                 (A) (A) (A) (A) (A) (A) (A) (A) (A) (A) (A) (A)
                 (A) (A) (A) (A) (A) (A) (A) (A) (A) (A) (A) (A)
                 (A) (A) (A) (A) (A) (A) (A) (A) (A) (A) (A) (A)
                 (A) (A) (A) (A) (A) (A) (A) (A) (A) (A)
 The electronic state is 1-A.
 Alpha  occ. eigenvalues --  -14.46273 -10.29785 -10.29157 -10.26381 -10.25879
 Alpha  occ. eigenvalues --  -10.25850 -10.25692 -10.25547 -10.24842  -1.00546
 Alpha  occ. eigenvalues --   -0.85474  -0.79574  -0.74964  -0.72523  -0.63833
 Alpha  occ. eigenvalues --   -0.60950  -0.59243  -0.55297  -0.49085  -0.47923
 Alpha  occ. eigenvalues --   -0.45561  -0.44327  -0.43841  -0.42256  -0.39971
 Alpha  occ. eigenvalues --   -0.36134  -0.35236  -0.35018  -0.29119  -0.24133
 Alpha  occ. eigenvalues --   -0.21191
 Alpha virt. eigenvalues --   -0.03283  -0.01707  -0.01325  -0.00837   0.00330
 Alpha virt. eigenvalues --    0.00554   0.02046   0.02825   0.03001   0.03331
 Alpha virt. eigenvalues --    0.03845   0.04091   0.06415   0.06817   0.06857
 Alpha virt. eigenvalues --    0.06903   0.09488   0.10050   0.10893   0.11635
 Alpha virt. eigenvalues --    0.11880   0.12103   0.13175   0.13477   0.15066
 Alpha virt. eigenvalues --    0.15662   0.15904   0.16688   0.17418   0.17533
 Alpha virt. eigenvalues --    0.18170   0.18956   0.19263   0.19905   0.20755
 Alpha virt. eigenvalues --    0.21162   0.21568   0.22171   0.23094   0.23680
 Alpha virt. eigenvalues --    0.24243   0.25229   0.25708   0.26810   0.27985
 Alpha virt. eigenvalues --    0.28916   0.29895   0.31002   0.32639   0.34681
 Alpha virt. eigenvalues --    0.35867   0.39221   0.42799   0.43372   0.50704
 Alpha virt. eigenvalues --    0.57708   0.61445   0.65267   0.65926   0.67953
 Alpha virt. eigenvalues --    0.70125   0.70142   0.71413   0.71598   0.72680
 Alpha virt. eigenvalues --    0.73413   0.75087   0.75848   0.77286   0.77877
 Alpha virt. eigenvalues --    0.80477   0.83650   0.86105   0.86989   0.88243
 Alpha virt. eigenvalues --    0.90081   0.90622   0.92775   0.95339   0.95659
 Alpha virt. eigenvalues --    0.98371   1.00419   1.02408   1.03731   1.08204
 Alpha virt. eigenvalues --    1.10142   1.11325   1.15514   1.17064   1.19091
 Alpha virt. eigenvalues --    1.21794   1.23739   1.24520   1.29968   1.31895
 Alpha virt. eigenvalues --    1.34308   1.34872   1.39552   1.40899   1.42044
 Alpha virt. eigenvalues --    1.45730   1.46329   1.49542   1.50159   1.50705
 Alpha virt. eigenvalues --    1.55912   1.62482   1.76775   1.82367   1.85695
 Alpha virt. eigenvalues --    1.88139   1.88611   1.88838   1.93542   1.95174
 Alpha virt. eigenvalues --    1.99659   2.05087   2.07455   2.10875   2.12958
 Alpha virt. eigenvalues --    2.15364   2.15404   2.21873   2.22987   2.25815
 Alpha virt. eigenvalues --    2.27421   2.30475   2.36186   2.39248   2.41960
 Alpha virt. eigenvalues --    2.49763   2.54433   2.60800   2.62368   2.64608
 Alpha virt. eigenvalues --    2.66246   2.71644   2.78064   2.80966   2.83055
 Alpha virt. eigenvalues --    2.91312   2.95791   3.07259   3.22019   3.40302
 Alpha virt. eigenvalues --    4.13873   4.21553   4.24714   4.28177   4.32670
 Alpha virt. eigenvalues --    4.36424   4.44220   4.48657   4.74608
          Condensed to atoms (all electrons):
               1          2          3          4          5          6
     1  C  120.555307 -55.380138  76.371326-209.896937 155.479110 -94.031586
     2  C  -55.380138  46.015282 -60.042759 145.520284-118.348214  54.162193
     3  C   76.371326 -60.042759 127.356826-257.530237 186.295476 -82.724153
     4  C -209.896937 145.520284-257.530237 889.341215-688.134843 175.105832
     5  C  155.479110-118.348214 186.295476-688.134843 595.456783-142.577283
     6  C  -94.031586  54.162193 -82.724153 175.105832-142.577283 110.188191
     7  N   -0.151686  -0.442337   0.074371  -5.172531   6.211626   0.246172
     8  C  -21.976561  18.132403 -29.004369 222.524306-191.021884   2.373571
     9  C   39.839380 -25.087343  47.096101-271.533624 203.256923 -18.785051
    10  H   -0.036900   0.033735  -0.381156   0.803379  -0.499774   0.075900
    11  H   -0.151444   0.055389  -0.268020   0.126159   0.927771   0.608239
    12  H    0.002164  -0.000106   0.156449   0.441198  -0.633316  -0.114579
    13  H    0.077545   0.305839  -0.023476   0.082242  -0.111211  -0.032384
    14  H   -0.098669  -0.007737  -0.405082   0.534800   0.225930   0.087034
    15  H   -0.612474   0.243777  -0.296022   0.537263  -0.421122   0.839235
    16  H   -0.375737   0.040916  -0.087495   0.285474   0.219315   0.480066
               7          8          9         10         11         12
     1  C   -0.151686 -21.976561  39.839380  -0.036900  -0.151444   0.002164
     2  C   -0.442337  18.132403 -25.087343   0.033735   0.055389  -0.000106
     3  C    0.074371 -29.004369  47.096101  -0.381156  -0.268020   0.156449
     4  C   -5.172531 222.524306-271.533624   0.803379   0.126159   0.441198
     5  C    6.211626-191.021884 203.256923  -0.499774   0.927771  -0.633316
     6  C    0.246172   2.373571 -18.785051   0.075900   0.608239  -0.114579
     7  N    7.482395  -2.922032   1.808462   0.201412   0.016694  -0.070624
     8  C   -2.922032 144.225055-138.504307   0.428578  -0.373882   0.580209
     9  C    1.808462-138.504307 171.993136  -0.408897  -0.701716  -0.049598
    10  H    0.201412   0.428578  -0.408897   0.332863  -0.000038  -0.001172
    11  H    0.016694  -0.373882  -0.701716  -0.000038   0.467078  -0.000321
    12  H   -0.070624   0.580209  -0.049598  -0.001172  -0.000321   0.434832
    13  H   -0.000814   0.013365  -0.007521   0.000000   0.000000  -0.000000
    14  H   -0.011273  -0.073770   0.041124   0.001662   0.000002   0.000000
    15  H    0.000643   0.026857  -0.036898   0.000000   0.000005  -0.000000
    16  H    0.005969  -0.137434  -0.207423   0.000006   0.004230  -0.000001
              13         14         15         16
     1  C    0.077545  -0.098669  -0.612474  -0.375737
     2  C    0.305839  -0.007737   0.243777   0.040916
     3  C   -0.023476  -0.405082  -0.296022  -0.087495
     4  C    0.082242   0.534800   0.537263   0.285474
     5  C   -0.111211   0.225930  -0.421122   0.219315
     6  C   -0.032384   0.087034   0.839235   0.480066
     7  N   -0.000814  -0.011273   0.000643   0.005969
     8  C    0.013365  -0.073770   0.026857  -0.137434
     9  C   -0.007521   0.041124  -0.036898  -0.207423
    10  H    0.000000   0.001662   0.000000   0.000006
    11  H    0.000000   0.000002   0.000005   0.004230
    12  H   -0.000000   0.000000  -0.000000  -0.000001
    13  H    0.475457  -0.003544  -0.002901  -0.000099
    14  H   -0.003544   0.487303  -0.000121   0.000014
    15  H   -0.002901  -0.000121   0.485609   0.000053
    16  H   -0.000099   0.000014   0.000053   0.511571
 Mulliken charges:
               1
     1  C   -3.612701
     2  C    0.798817
     3  C   -0.587780
     4  C    2.966020
     5  C   -0.325287
     6  C    0.098605
     7  N   -0.276446
     8  C    1.709897
     9  C   -2.712748
    10  H    0.450401
    11  H    0.289853
    12  H    0.254865
    13  H    0.227502
    14  H    0.222328
    15  H    0.236098
    16  H    0.260575
 Sum of Mulliken charges =   0.00000
 Mulliken charges with hydrogens summed into heavy atoms:
               1
     1  C   -3.376603
     2  C    1.026319
     3  C   -0.365452
     4  C    2.966020
     5  C   -0.325287
     6  C    0.359180
     7  N    0.173955
     8  C    1.999750
     9  C   -2.457883
 Electronic spatial extent (au):  <R**2>=           1051.8310
 Charge=              0.0000 electrons
 Dipole moment (field-independent basis, Debye):
    X=              2.7790    Y=            -12.6752    Z=             -0.0018  Tot=             12.9762
 Quadrupole moment (field-independent basis, Debye-Ang):
   XX=            -56.9131   YY=            -92.3396   ZZ=            -61.2065
   XY=             -3.6484   XZ=              0.0032   YZ=             -0.0186
 Traceless Quadrupole moment (field-independent basis, Debye-Ang):
   XX=             13.2400   YY=            -22.1866   ZZ=              8.9466
   XY=             -3.6484   XZ=              0.0032   YZ=             -0.0186
 Octapole moment (field-independent basis, Debye-Ang**2):
  XXX=             45.7170  YYY=           -247.7278  ZZZ=             -0.0151  XYY=             -5.8246
  XXY=            -57.7014  XXZ=             -0.0151  XZZ=              4.0438  YZZ=            -22.6821
  YYZ=             -0.0465  XYZ=             -0.0286
 Hexadecapole moment (field-independent basis, Debye-Ang**3):
 XXXX=          -1180.3081 YYYY=          -1484.2778 ZZZZ=            -95.4820 XXXY=            -10.8643
 XXXZ=              0.1035 YYYX=            -76.0343 YYYZ=             -0.2578 ZZZX=              0.0174
 ZZZY=             -0.0803 XXYY=           -438.1709 XXZZ=           -219.3605 YYZZ=           -185.6483
 XXYZ=             -0.0578 YYXZ=             -0.0519 ZZXY=             -3.8651
 N-N= 4.008917070831D+02 E-N=-1.639287178363D+03  KE= 3.594541491820D+02


 IT WAS AN ACT OF DESPARATION. FOR SIX YEARS I HAD STRUGGLED WITH THE
 BLACKBODY THEORY. I KNEW THE PROBLEM WAS FUNDAMENTAL, AND I KNEW
 THE ANSWER. I HAD TO FIND A THEORETICAL EXPLANATION AT ANY COST,
 EXCEPT FOR THE INVIOLABLITY OF THE TWO LAWS OF THERMODYNAMICS.
   -- MAX PLANCK, 1931
 Error termination request processed by link 9999.
 Error termination via Lnk1e in /cm/shared/apps/spack/cpu/opt/spack/linux-centos8-zen/gcc-8.3.1/gaussian-16.C.01-po5bqktfeugvmjyga3v7eigbecnokxng/g16/l9999.exe at Thu Jun 24 00:34:30 2021.
 Job cpu time:       2 days  5 hours 26 minutes 49.0 seconds.
 Elapsed time:       0 days 13 hours 32 minutes 41.5 seconds.
 File lengths (MBytes):  RWF=    238 Int=      0 D2E=      0 Chk=     11 Scr=      1
