 Entering Gaussian System, Link 0=/cm/shared/apps/spack/cpu/opt/spack/linux-centos8-zen/gcc-8.3.1/gaussian-16.C.01-po5bqktfeugvmjyga3v7eigbecnokxng/g16/g16
 Initial command:
 /cm/shared/apps/spack/cpu/opt/spack/linux-centos8-zen/gcc-8.3.1/gaussian-16.C.01-po5bqktfeugvmjyga3v7eigbecnokxng/g16/l1.exe "/scratch/scaparas/job_3445967/Gau-91161.inp" -scrdir="/scratch/scaparas/job_3445967/"
 Entering Link 1 = /cm/shared/apps/spack/cpu/opt/spack/linux-centos8-zen/gcc-8.3.1/gaussian-16.C.01-po5bqktfeugvmjyga3v7eigbecnokxng/g16/l1.exe PID=     91162.
  
 Copyright (c) 1988-2019, Gaussian, Inc.  All Rights Reserved.
  
 This is part of the Gaussian(R) 16 program.  It is based on
 the Gaussian(R) 09 system (copyright 2009, Gaussian, Inc.),
 the Gaussian(R) 03 system (copyright 2003, Gaussian, Inc.),
 the Gaussian(R) 98 system (copyright 1998, Gaussian, Inc.),
 the Gaussian(R) 94 system (copyright 1995, Gaussian, Inc.),
 the Gaussian 92(TM) system (copyright 1992, Gaussian, Inc.),
 the Gaussian 90(TM) system (copyright 1990, Gaussian, Inc.),
 the Gaussian 88(TM) system (copyright 1988, Gaussian, Inc.),
 the Gaussian 86(TM) system (copyright 1986, Carnegie Mellon
 University), and the Gaussian 82(TM) system (copyright 1983,
 Carnegie Mellon University). Gaussian is a federally registered
 trademark of Gaussian, Inc.
  
 This software contains proprietary and confidential information,
 including trade secrets, belonging to Gaussian, Inc.
  
 This software is provided under written license and may be
 used, copied, transmitted, or stored only in accord with that
 written license.
  
 The following legend is applicable only to US Government
 contracts under FAR:
  
                    RESTRICTED RIGHTS LEGEND
  
 Use, reproduction and disclosure by the US Government is
 subject to restrictions as set forth in subparagraphs (a)
 and (c) of the Commercial Computer Software - Restricted
 Rights clause in FAR 52.227-19.
  
 Gaussian, Inc.
 340 Quinnipiac St., Bldg. 40, Wallingford CT 06492
  
  
 ---------------------------------------------------------------
 Warning -- This program may not be used in any manner that
 competes with the business of Gaussian, Inc. or will provide
 assistance to any competitor of Gaussian, Inc.  The licensee
 of this program is prohibited from giving any competitor of
 Gaussian, Inc. access to this program.  By using this program,
 the user acknowledges that Gaussian, Inc. is engaged in the
 business of creating and licensing software in the field of
 computational chemistry and represents and warrants to the
 licensee that it is not a competitor of Gaussian, Inc. and that
 it will not use this program in any manner prohibited above.
 ---------------------------------------------------------------
  

 Cite this work as:
 Gaussian 16, Revision C.01,
 M. J. Frisch, G. W. Trucks, H. B. Schlegel, G. E. Scuseria, 
 M. A. Robb, J. R. Cheeseman, G. Scalmani, V. Barone, 
 G. A. Petersson, H. Nakatsuji, X. Li, M. Caricato, A. V. Marenich, 
 J. Bloino, B. G. Janesko, R. Gomperts, B. Mennucci, H. P. Hratchian, 
 J. V. Ortiz, A. F. Izmaylov, J. L. Sonnenberg, D. Williams-Young, 
 F. Ding, F. Lipparini, F. Egidi, J. Goings, B. Peng, A. Petrone, 
 T. Henderson, D. Ranasinghe, V. G. Zakrzewski, J. Gao, N. Rega, 
 G. Zheng, W. Liang, M. Hada, M. Ehara, K. Toyota, R. Fukuda, 
 J. Hasegawa, M. Ishida, T. Nakajima, Y. Honda, O. Kitao, H. Nakai, 
 T. Vreven, K. Throssell, J. A. Montgomery, Jr., J. E. Peralta, 
 F. Ogliaro, M. J. Bearpark, J. J. Heyd, E. N. Brothers, K. N. Kudin, 
 V. N. Staroverov, T. A. Keith, R. Kobayashi, J. Normand, 
 K. Raghavachari, A. P. Rendell, J. C. Burant, S. S. Iyengar, 
 J. Tomasi, M. Cossi, J. M. Millam, M. Klene, C. Adamo, R. Cammi, 
 J. W. Ochterski, R. L. Martin, K. Morokuma, O. Farkas, 
 J. B. Foresman, and D. J. Fox, Gaussian, Inc., Wallingford CT, 2019.
 
 ******************************************
 Gaussian 16:  AS64L-G16RevC.01  3-Jul-2019
                16-Jun-2021 
 ******************************************
 %nprocshared=4
 Will use up to    4 processors via shared memory.
 %chk=FuncsWB97X-V-3rd.chk
 %Mem=3GB
 -----------------------------------------------------------
 # td= (nstates=6, root=3) WB97X/6-31+G* Opt density=current
 -----------------------------------------------------------
 1/18=20,19=15,26=3,38=1/1,3;
 2/9=110,12=2,17=6,18=5,40=1/2;
 3/5=1,6=6,7=11,11=9,25=1,30=1,71=1,74=-57/1,2,3,8;
 4//1;
 5/5=2,38=5/2;
 8/6=1,10=2,107=3,108=6/1;
 9/8=3,15=2,41=6,42=1,70=2/14;
 10/5=4,28=3/2;
 6/7=2,8=2,9=2,10=2,22=-1/1;
 7/12=6,13=5,14=3/1,2,3,16;
 1/18=20,19=15,26=3/3(2);
 2/9=110/2;
 99//99;
 2/9=110/2;
 3/5=1,6=6,7=11,11=9,25=1,30=1,71=1,74=-57/1,2,3,8;
 4/5=5,16=3,69=1/1;
 5/5=2,38=5/2;
 8/6=1,10=2,107=3,108=6/1;
 9/8=3,15=2,41=6,42=1,49=4,70=2/14;
 10/5=4,28=3/2;
 7/12=6,13=5,14=3/1,2,3,16;
 1/18=20,19=15,26=3/3(-8);
 2/9=110/2;
 6/7=2,8=2,9=2,10=2,22=-1/1;
 99/9=10/99;
 ----------------
 FuncsWB97X-V-3rd
 ----------------
 Symbolic Z-matrix:
 Charge =  0 Multiplicity = 1
 C                    -2.15106   0.68921   0.00009 
 C                    -2.12793  -0.71582   0.00008 
 C                    -0.9323   -1.4131   -0.00001 
 C                     0.24691  -0.6702   -0.00004 
 C                     0.24819   0.7483    0. 
 C                    -0.97947   1.42353   0.00003 
 N                     1.56177  -1.07759  -0.00029 
 C                     1.62013   1.1629   -0.00016 
 C                     2.38201   0.03081   0.00025 
 H                     1.87632  -2.03001   0.00044 
 H                     1.99217   2.17301  -0.00035 
 H                     3.45255  -0.08243   0.00041 
 H                    -3.06159  -1.26202   0.00009 
 H                    -0.91725  -2.49534  -0.00007 
 H                    -3.1042    1.20079   0.00009 
 H                    -1.00935   2.50542  -0.00002 
 

 GradGradGradGradGradGradGradGradGradGradGradGradGradGradGradGradGradGrad
 Berny optimization.
 Initialization pass.
                           ----------------------------
                           !    Initial Parameters    !
                           ! (Angstroms and Degrees)  !
 --------------------------                            --------------------------
 ! Name  Definition              Value          Derivative Info.                !
 --------------------------------------------------------------------------------
 ! R1    R(1,2)                  1.4052         estimate D2E/DX2                !
 ! R2    R(1,6)                  1.3827         estimate D2E/DX2                !
 ! R3    R(1,15)                 1.0818         estimate D2E/DX2                !
 ! R4    R(2,3)                  1.3841         estimate D2E/DX2                !
 ! R5    R(2,13)                 1.0817         estimate D2E/DX2                !
 ! R6    R(3,4)                  1.3937         estimate D2E/DX2                !
 ! R7    R(3,14)                 1.0823         estimate D2E/DX2                !
 ! R8    R(4,5)                  1.4185         estimate D2E/DX2                !
 ! R9    R(4,7)                  1.3765         estimate D2E/DX2                !
 ! R10   R(5,6)                  1.4011         estimate D2E/DX2                !
 ! R11   R(5,8)                  1.4332         estimate D2E/DX2                !
 ! R12   R(6,16)                 1.0823         estimate D2E/DX2                !
 ! R13   R(7,9)                  1.3789         estimate D2E/DX2                !
 ! R14   R(7,10)                 1.003          estimate D2E/DX2                !
 ! R15   R(8,9)                  1.3646         estimate D2E/DX2                !
 ! R16   R(8,11)                 1.0764         estimate D2E/DX2                !
 ! R17   R(9,12)                 1.0765         estimate D2E/DX2                !
 ! A1    A(2,1,6)              121.1349         estimate D2E/DX2                !
 ! A2    A(2,1,15)             119.1671         estimate D2E/DX2                !
 ! A3    A(6,1,15)             119.698          estimate D2E/DX2                !
 ! A4    A(1,2,3)              121.1938         estimate D2E/DX2                !
 ! A5    A(1,2,13)             119.3846         estimate D2E/DX2                !
 ! A6    A(3,2,13)             119.4217         estimate D2E/DX2                !
 ! A7    A(2,3,4)              117.5387         estimate D2E/DX2                !
 ! A8    A(2,3,14)             121.0469         estimate D2E/DX2                !
 ! A9    A(4,3,14)             121.4144         estimate D2E/DX2                !
 ! A10   A(3,4,5)              122.2626         estimate D2E/DX2                !
 ! A11   A(3,4,7)              130.5743         estimate D2E/DX2                !
 ! A12   A(5,4,7)              107.163          estimate D2E/DX2                !
 ! A13   A(4,5,6)              118.7594         estimate D2E/DX2                !
 ! A14   A(4,5,8)              106.8666         estimate D2E/DX2                !
 ! A15   A(6,5,8)              134.374          estimate D2E/DX2                !
 ! A16   A(1,6,5)              119.1105         estimate D2E/DX2                !
 ! A17   A(1,6,16)             120.4966         estimate D2E/DX2                !
 ! A18   A(5,6,16)             120.3928         estimate D2E/DX2                !
 ! A19   A(4,7,9)              109.2874         estimate D2E/DX2                !
 ! A20   A(4,7,10)             125.4909         estimate D2E/DX2                !
 ! A21   A(9,7,10)             125.2217         estimate D2E/DX2                !
 ! A22   A(5,8,9)              107.125          estimate D2E/DX2                !
 ! A23   A(5,8,11)             127.0344         estimate D2E/DX2                !
 ! A24   A(9,8,11)             125.8405         estimate D2E/DX2                !
 ! A25   A(7,9,8)              109.5578         estimate D2E/DX2                !
 ! A26   A(7,9,12)             120.4645         estimate D2E/DX2                !
 ! A27   A(8,9,12)             129.9776         estimate D2E/DX2                !
 ! D1    D(6,1,2,3)             -0.0008         estimate D2E/DX2                !
 ! D2    D(6,1,2,13)          -179.9981         estimate D2E/DX2                !
 ! D3    D(15,1,2,3)           179.996          estimate D2E/DX2                !
 ! D4    D(15,1,2,13)           -0.0013         estimate D2E/DX2                !
 ! D5    D(2,1,6,5)             -0.0018         estimate D2E/DX2                !
 ! D6    D(2,1,6,16)           179.9965         estimate D2E/DX2                !
 ! D7    D(15,1,6,5)          -179.9986         estimate D2E/DX2                !
 ! D8    D(15,1,6,16)           -0.0003         estimate D2E/DX2                !
 ! D9    D(1,2,3,4)              0.002          estimate D2E/DX2                !
 ! D10   D(1,2,3,14)          -179.9968         estimate D2E/DX2                !
 ! D11   D(13,2,3,4)           179.9992         estimate D2E/DX2                !
 ! D12   D(13,2,3,14)            0.0005         estimate D2E/DX2                !
 ! D13   D(2,3,4,5)             -0.0005         estimate D2E/DX2                !
 ! D14   D(2,3,4,7)           -179.9911         estimate D2E/DX2                !
 ! D15   D(14,3,4,5)           179.9982         estimate D2E/DX2                !
 ! D16   D(14,3,4,7)             0.0076         estimate D2E/DX2                !
 ! D17   D(3,4,5,6)             -0.002          estimate D2E/DX2                !
 ! D18   D(3,4,5,8)           -179.9955         estimate D2E/DX2                !
 ! D19   D(7,4,5,6)            179.9905         estimate D2E/DX2                !
 ! D20   D(7,4,5,8)             -0.003          estimate D2E/DX2                !
 ! D21   D(3,4,7,9)           -179.98           estimate D2E/DX2                !
 ! D22   D(3,4,7,10)            -0.0649         estimate D2E/DX2                !
 ! D23   D(5,4,7,9)              0.0284         estimate D2E/DX2                !
 ! D24   D(5,4,7,10)           179.9434         estimate D2E/DX2                !
 ! D25   D(4,5,6,1)              0.0031         estimate D2E/DX2                !
 ! D26   D(4,5,6,16)          -179.9951         estimate D2E/DX2                !
 ! D27   D(8,5,6,1)            179.9944         estimate D2E/DX2                !
 ! D28   D(8,5,6,16)            -0.0038         estimate D2E/DX2                !
 ! D29   D(4,5,8,9)             -0.0234         estimate D2E/DX2                !
 ! D30   D(4,5,8,11)           179.9883         estimate D2E/DX2                !
 ! D31   D(6,5,8,9)            179.9846         estimate D2E/DX2                !
 ! D32   D(6,5,8,11)            -0.0037         estimate D2E/DX2                !
 ! D33   D(4,7,9,8)             -0.0444         estimate D2E/DX2                !
 ! D34   D(4,7,9,12)           179.9847         estimate D2E/DX2                !
 ! D35   D(10,7,9,8)          -179.9597         estimate D2E/DX2                !
 ! D36   D(10,7,9,12)            0.0693         estimate D2E/DX2                !
 ! D37   D(5,8,9,7)              0.0414         estimate D2E/DX2                !
 ! D38   D(5,8,9,12)          -179.9913         estimate D2E/DX2                !
 ! D39   D(11,8,9,7)          -179.9702         estimate D2E/DX2                !
 ! D40   D(11,8,9,12)           -0.0029         estimate D2E/DX2                !
 --------------------------------------------------------------------------------
 Trust Radius=3.00D-01 FncErr=1.00D-07 GrdErr=1.00D-06 EigMax=2.50D+02 EigMin=1.00D-04
 Number of steps in this run=     94 maximum allowed number of steps=    100.
 GradGradGradGradGradGradGradGradGradGradGradGradGradGradGradGradGradGrad

                          Input orientation:                          
 ---------------------------------------------------------------------
 Center     Atomic      Atomic             Coordinates (Angstroms)
 Number     Number       Type             X           Y           Z
 ---------------------------------------------------------------------
      1          6           0       -2.151063    0.689208    0.000088
      2          6           0       -2.127927   -0.715818    0.000075
      3          6           0       -0.932297   -1.413100   -0.000011
      4          6           0        0.246911   -0.670201   -0.000042
      5          6           0        0.248193    0.748299    0.000000
      6          6           0       -0.979474    1.423526    0.000032
      7          7           0        1.561774   -1.077592   -0.000285
      8          6           0        1.620133    1.162900   -0.000157
      9          6           0        2.382013    0.030806    0.000248
     10          1           0        1.876315   -2.030011    0.000438
     11          1           0        1.992173    2.173010   -0.000348
     12          1           0        3.452549   -0.082425    0.000408
     13          1           0       -3.061594   -1.262020    0.000088
     14          1           0       -0.917252   -2.495342   -0.000073
     15          1           0       -3.104203    1.200785    0.000090
     16          1           0       -1.009348    2.505421   -0.000015
 ---------------------------------------------------------------------
                    Distance matrix (angstroms):
                    1          2          3          4          5
     1  C    0.000000
     2  C    1.405216   0.000000
     3  C    2.430039   1.384100   0.000000
     4  C    2.756496   2.375276   1.393711   0.000000
     5  C    2.399984   2.790983   2.462763   1.418501   0.000000
     6  C    1.382694   2.428114   2.837018   2.426461   1.401106
     7  N    4.111781   3.707395   2.516536   1.376529   2.249305
     8  C    3.800829   4.192557   3.626386   2.290414   1.433218
     9  C    4.580641   4.571324   3.615178   2.247236   2.251218
    10  H    4.859416   4.214387   2.875566   2.122273   3.220216
    11  H    4.400917   5.031953   4.627387   3.336134   2.251948
    12  H    5.656491   5.616307   4.582311   3.259079   3.310287
    13  H    2.153220   1.081698   2.134650   3.361020   3.872476
    14  H    3.415208   2.152310   1.082347   2.164813   3.446661
    15  H    1.081752   2.150926   3.398466   3.838040   3.382795
    16  H    2.145261   3.409927   3.919278   3.415079   2.160761
                    6          7          8          9         10
     6  C    0.000000
     7  N    3.565604   0.000000
     8  C    2.612639   2.241252   0.000000
     9  C    3.638580   1.378890   1.364587   0.000000
    10  H    4.481345   1.003015   3.203172   2.121956   0.000000
    11  H    3.064704   3.278972   1.076446   2.177387   4.204618
    12  H    4.680888   2.136677   2.215532   1.076508   2.505515
    13  H    3.398144   4.627045   5.272457   5.595021   4.997275
    14  H    3.919362   2.855798   4.452085   4.155307   2.832058
    15  H    2.136372   5.192528   4.724488   5.609583   5.936632
    16  H    1.082307   4.410062   2.952378   4.198220   5.375611
                   11         12         13         14         15
    11  H    0.000000
    12  H    2.686947   0.000000
    13  H    6.110646   6.620083   0.000000
    14  H    5.500751   4.991726   2.473719   0.000000
    15  H    5.188282   6.681139   2.463174   4.294661   0.000000
    16  H    3.019872   5.158049   4.290143   5.001611   2.467892
                   16
    16  H    0.000000
 Stoichiometry    C8H7N
 Framework group  C1[X(C8H7N)]
 Deg. of freedom    42
 Full point group                 C1      NOp   1
 Largest Abelian subgroup         C1      NOp   1
 Largest concise Abelian subgroup C1      NOp   1
                         Standard orientation:                         
 ---------------------------------------------------------------------
 Center     Atomic      Atomic             Coordinates (Angstroms)
 Number     Number       Type             X           Y           Z
 ---------------------------------------------------------------------
      1          6           0       -2.151063    0.689208    0.000088
      2          6           0       -2.127927   -0.715818    0.000075
      3          6           0       -0.932297   -1.413100   -0.000011
      4          6           0        0.246911   -0.670201   -0.000042
      5          6           0        0.248193    0.748299    0.000000
      6          6           0       -0.979474    1.423526    0.000032
      7          7           0        1.561774   -1.077592   -0.000285
      8          6           0        1.620133    1.162900   -0.000157
      9          6           0        2.382013    0.030806    0.000248
     10          1           0        1.876315   -2.030011    0.000438
     11          1           0        1.992173    2.173010   -0.000348
     12          1           0        3.452549   -0.082425    0.000408
     13          1           0       -3.061594   -1.262020    0.000088
     14          1           0       -0.917252   -2.495342   -0.000073
     15          1           0       -3.104203    1.200785    0.000090
     16          1           0       -1.009348    2.505421   -0.000015
 ---------------------------------------------------------------------
 Rotational constants (GHZ):           3.9080822           1.6429452           1.1566805
 Standard basis: 6-31+G(d) (6D, 7F)
 There are   185 symmetry adapted cartesian basis functions of A   symmetry.
 There are   185 symmetry adapted basis functions of A   symmetry.
   185 basis functions,   316 primitive gaussians,   185 cartesian basis functions
    31 alpha electrons       31 beta electrons
       nuclear repulsion energy       401.3368668897 Hartrees.
 NAtoms=   16 NActive=   16 NUniq=   16 SFac= 1.00D+00 NAtFMM=   60 NAOKFM=F Big=F
 Integral buffers will be    131072 words long.
 Raffenetti 1 integral format.
 Two-electron integral symmetry is turned on.
 One-electron integrals computed using PRISM.
 NBasis=   185 RedAO= T EigKep=  1.26D-06  NBF=   185
 NBsUse=   185 1.00D-06 EigRej= -1.00D+00 NBFU=   185
 ExpMin= 4.38D-02 ExpMax= 4.17D+03 ExpMxC= 6.27D+02 IAcc=3 IRadAn=         5 AccDes= 0.00D+00
 Harris functional with IExCor= 4538 and IRadAn=       5 diagonalized for initial guess.
 HarFok:  IExCor= 4538 AccDes= 0.00D+00 IRadAn=         5 IDoV= 1 UseB2=F ITyADJ=14
 ICtDFT=  3500011 ScaDFX=  1.000000  1.000000  1.000000  1.000000
 FoFCou: FMM=F IPFlag=           0 FMFlag=      100000 FMFlg1=           0
         NFxFlg=           0 DoJE=T BraDBF=F KetDBF=T FulRan=T
         wScrn=  0.000000 ICntrl=       500 IOpCl=  0 I1Cent=   200000004 NGrid=           0
         NMat0=    1 NMatS0=      1 NMatT0=    0 NMatD0=    1 NMtDS0=    0 NMtDT0=    0
 Petite list used in FoFCou.
 Keep R1 ints in memory in canonical form, NReq=303303409.
 Requested convergence on RMS density matrix=1.00D-08 within 128 cycles.
 Requested convergence on MAX density matrix=1.00D-06.
 Requested convergence on             energy=1.00D-06.
 No special actions if energy rises.
 SCF Done:  E(RwB97X) =  -363.729156871     A.U. after   16 cycles
            NFock= 16  Conv=0.90D-08     -V/T= 2.0094
 DoSCS=F DFT=T ScalE2(SS,OS)=  1.000000  1.000000
 ExpMin= 4.38D-02 ExpMax= 4.17D+03 ExpMxC= 6.27D+02 IAcc=3 IRadAn=         5 AccDes= 0.00D+00
 HarFok:  IExCor=  205 AccDes= 0.00D+00 IRadAn=         5 IDoV=-2 UseB2=F ITyADJ=14
 ICtDFT= 12500011 ScaDFX=  1.000000  1.000000  1.000000  1.000000
 Range of M.O.s used for correlation:    10   185
 NBasis=   185 NAE=    31 NBE=    31 NFC=     9 NFV=     0
 NROrb=    176 NOA=    22 NOB=    22 NVA=   154 NVB=   154

 **** Warning!!: The largest alpha MO coefficient is  0.18143527D+03

 Orbital symmetries:
       Occupied  (A) (A) (A) (A) (A) (A) (A) (A) (A) (A) (A) (A)
                 (A) (A) (A) (A) (A) (A) (A) (A) (A) (A) (A) (A)
                 (A) (A) (A) (A) (A) (A) (A)
       Virtual   (A) (A) (A) (A) (A) (A) (A) (A) (A) (A) (A) (A)
                 (A) (A) (A) (A) (A) (A) (A) (A) (A) (A) (A) (A)
                 (A) (A) (A) (A) (A) (A) (A) (A) (A) (A) (A) (A)
                 (A) (A) (A) (A) (A) (A) (A) (A) (A) (A) (A) (A)
                 (A) (A) (A) (A) (A) (A) (A) (A) (A) (A) (A) (A)
                 (A) (A) (A) (A) (A) (A) (A) (A) (A) (A) (A) (A)
                 (A) (A) (A) (A) (A) (A) (A) (A) (A) (A) (A) (A)
                 (A) (A) (A) (A) (A) (A) (A) (A) (A) (A) (A) (A)
                 (A) (A) (A) (A) (A) (A) (A) (A) (A) (A) (A) (A)
                 (A) (A) (A) (A) (A) (A) (A) (A) (A) (A) (A) (A)
                 (A) (A) (A) (A) (A) (A) (A) (A) (A) (A) (A) (A)
                 (A) (A) (A) (A) (A) (A) (A) (A) (A) (A) (A) (A)
                 (A) (A) (A) (A) (A) (A) (A) (A) (A) (A)
    24 initial guesses have been made.
 Convergence on wavefunction:    0.000001000000000
 Iteration     1 Dimension    24 NMult     0 NNew     24
 CISAX will form    24 AO SS matrices at one time.
 New state      1 was old state      3
 New state      2 was old state      1
 New state      3 was old state      2
 New state      4 was old state      5
 New state      5 was old state      6
 New state      6 was old state      4
 Iteration     2 Dimension    36 NMult    24 NNew     12
 New state      5 was old state      6
 New state      6 was old state      5
 Iteration     3 Dimension    48 NMult    36 NNew     12
 Iteration     4 Dimension    60 NMult    48 NNew     12
 Iteration     5 Dimension    72 NMult    60 NNew     12
 Iteration     6 Dimension    84 NMult    72 NNew     12
 No map to state      5
 New state      6 was old state      5
 Iteration     7 Dimension    96 NMult    84 NNew     12
 New state      4 was old state      5
 New state      5 was old state      4
 Iteration     8 Dimension   108 NMult    96 NNew     12
 Iteration     9 Dimension   120 NMult   108 NNew     12
 Iteration    10 Dimension   132 NMult   120 NNew     12
 Iteration    11 Dimension   140 NMult   132 NNew      8
 Iteration    12 Dimension   146 NMult   140 NNew      6
 Iteration    13 Dimension   152 NMult   146 NNew      6
 Iteration    14 Dimension   156 NMult   152 NNew      4
 Iteration    15 Dimension   158 NMult   156 NNew      2
 Iteration    16 Dimension   160 NMult   158 NNew      2
 ***********************************************************************
 Excited states from <AA,BB:AA,BB> singles matrix:
 ***********************************************************************
 
 Ground to excited state transition densities written to RWF  633
 Ground to excited state transition electric dipole moments (Au):
       state          X           Y           Z        Dip. S.      Osc.
         1        -0.3564     -0.3890     -0.0000      0.2783      0.0352
         2        -0.8211      0.6102     -0.0002      1.0466      0.1351
         3         0.0001     -0.0002     -0.1982      0.0393      0.0058
         4        -1.9354     -0.7138     -0.0087      4.2554      0.6765
         5         0.0796      0.0293     -0.2073      0.0502      0.0080
         6        -0.0028     -0.0012      0.0567      0.0032      0.0005
 Ground to excited state transition velocity dipole moments (Au):
       state          X           Y           Z        Dip. S.      Osc.
         1         0.0656      0.0783      0.0000      0.0104      0.0367
         2         0.1472     -0.1264      0.0000      0.0376      0.1296
         3        -0.0000      0.0000      0.0351      0.0012      0.0037
         4         0.4499      0.1699      0.0021      0.2313      0.6465
         5        -0.0185     -0.0070      0.0496      0.0029      0.0080
         6         0.0007      0.0003     -0.0146      0.0002      0.0006
 Ground to excited state transition magnetic dipole moments (Au):
       state          X           Y           Z
         1        -0.0002     -0.0002     -0.1384
         2         0.0002     -0.0002      0.0879
         3         0.1374     -0.1747     -0.0002
         4         0.0062     -0.0154     -0.8669
         5         0.1601     -0.3597      0.0358
         6         0.4838     -0.1026     -0.0006
 Ground to excited state transition velocity quadrupole moments (Au):
       state          XX          YY          ZZ          XY          XZ          YZ
         1        -0.0243     -0.0725      0.0161     -0.0154      0.0001     -0.0001
         2         0.2595     -0.1836      0.0164     -0.0195      0.0002      0.0001
         3        -0.0001      0.0000      0.0001     -0.0002      0.1441      0.0657
         4         0.0976     -0.1351     -0.0452     -0.5872      0.0115      0.0041
         5        -0.0039      0.0056      0.0019      0.0243      0.2721      0.1068
         6        -0.0005     -0.0001     -0.0000     -0.0004      0.1985      0.4163
 <0|del|b> * <b|rxdel|0> + <0|del|b> * <b|delr+rdel|0>
 Rotatory Strengths (R) in cgs (10**-40 erg-esu-cm/Gauss)
       state          XX          YY          ZZ    R(velocity)    E-M Angle
         1        -0.0344     -0.0302     -0.0263     -0.0303       90.00
         2         0.0904      0.0875      0.0476      0.0752       90.00
         3        -0.0468     -0.0085     -0.0038     -0.0197       90.00
         4       -11.3045      6.0043      0.4108     -1.6298       90.23
         5        10.9619     -6.4772     -0.5542      1.3102       86.40
         6        -0.1049      0.8704      0.1049      0.2901       87.61
 1/2[<0|r|b>*<b|rxdel|0> + (<0|rxdel|b>*<b|r|0>)*]
 Rotatory Strengths (R) in cgs (10**-40 erg-esu-cm/Gauss)
       state          XX          YY          ZZ     R(length)
         1        -0.0412     -0.0431     -0.0042     -0.0295
         2         0.1362      0.0836      0.0114      0.0771
         3        -0.0103     -0.0255     -0.0339     -0.0232
         4         8.4776     -7.7879     -5.3478     -1.5527
         5        -9.0068      7.4621      5.2432      1.2328
         6         0.9487     -0.0856      0.0248      0.2959
  1/2[<0|del|b>*<b|r|0> + (<0|r|b>*<b|del|0>)*] (Au)
       state          X           Y           Z        Dip. S.   Osc.(frdel)
         1        -0.0234     -0.0305     -0.0000      0.0539      0.0359
         2        -0.1209     -0.0771     -0.0000      0.1980      0.1320
         3        -0.0000     -0.0000     -0.0070      0.0070      0.0046
         4        -0.8707     -0.1213     -0.0000      0.9920      0.6613
         5        -0.0015     -0.0002     -0.0103      0.0120      0.0080
         6        -0.0000     -0.0000     -0.0008      0.0008      0.0006

 Excitation energies and oscillator strengths:
 
 Excited State   1:      Singlet-A      5.1575 eV  240.40 nm  f=0.0352  <S**2>=0.000
      30 -> 32         0.57865
      31 -> 32        -0.13099
      31 -> 36        -0.33958
 
 Excited State   2:      Singlet-A      5.2674 eV  235.38 nm  f=0.1351  <S**2>=0.000
      30 -> 36         0.21262
      31 -> 32         0.64967
 
 Excited State   3:      Singlet-A      6.0089 eV  206.34 nm  f=0.0058  <S**2>=0.000
      29 -> 33         0.10585
      31 -> 33         0.64813
      31 -> 40         0.15717
 This state for optimization and/or second-order correction.
 Total Energy, E(TD-HF/TD-DFT) =  -363.508334811    
 Copying the excited state density for this state as the 1-particle RhoCI density.
 
 Excited State   4:      Singlet-A      6.4886 eV  191.08 nm  f=0.6765  <S**2>=0.000
      30 -> 32         0.34596
      31 -> 36         0.58313
      31 -> 39         0.10506
 
 Excited State   5:      Singlet-A      6.4925 eV  190.96 nm  f=0.0080  <S**2>=0.000
      27 -> 33        -0.10368
      30 -> 33         0.57713
      30 -> 34        -0.12325
      30 -> 40         0.17624
      31 -> 34         0.23684
      31 -> 35        -0.11742
 
 Excited State   6:      Singlet-A      6.6842 eV  185.49 nm  f=0.0005  <S**2>=0.000
      29 -> 33         0.12359
      30 -> 33        -0.18693
      31 -> 34         0.57628
      31 -> 35         0.15122
      31 -> 40        -0.14116
      31 -> 43         0.12697
 SavETr:  write IOETrn=   770 NScale= 10 NData=  16 NLR=1 NState=    6 LETran=     118.
          IDoAtm=1111111111111111
          Differentiating once with respect to electric field.
                with respect to dipole field.
          Differentiating once with respect to nuclear coordinates.
 Keep R1 ints in memory in canonical form, NReq=303315801.
          There are     1 degrees of freedom in the 1st order CPHF.  IDoFFX=0 NUNeed=     1.
 LinEq1:  Iter=  0 NonCon=     1 RMS=7.37D-03 Max=8.83D-02 NDo=     1
 AX will form     1 AO Fock derivatives at one time.
 LinEq1:  Iter=  1 NonCon=     1 RMS=2.34D-03 Max=5.09D-02 NDo=     1
 LinEq1:  Iter=  2 NonCon=     1 RMS=1.29D-03 Max=4.54D-02 NDo=     1
 LinEq1:  Iter=  3 NonCon=     1 RMS=4.73D-04 Max=1.07D-02 NDo=     1
 LinEq1:  Iter=  4 NonCon=     1 RMS=2.03D-04 Max=4.16D-03 NDo=     1
 LinEq1:  Iter=  5 NonCon=     1 RMS=1.04D-04 Max=2.64D-03 NDo=     1
 LinEq1:  Iter=  6 NonCon=     1 RMS=3.88D-05 Max=1.02D-03 NDo=     1
 LinEq1:  Iter=  7 NonCon=     1 RMS=2.47D-05 Max=5.10D-04 NDo=     1
 LinEq1:  Iter=  8 NonCon=     1 RMS=6.34D-06 Max=9.56D-05 NDo=     1
 LinEq1:  Iter=  9 NonCon=     1 RMS=1.97D-06 Max=6.01D-05 NDo=     1
 LinEq1:  Iter= 10 NonCon=     1 RMS=8.51D-07 Max=1.22D-05 NDo=     1
 LinEq1:  Iter= 11 NonCon=     1 RMS=2.73D-07 Max=7.16D-06 NDo=     1
 LinEq1:  Iter= 12 NonCon=     1 RMS=1.52D-07 Max=4.38D-06 NDo=     1
 LinEq1:  Iter= 13 NonCon=     1 RMS=5.41D-08 Max=1.06D-06 NDo=     1
 LinEq1:  Iter= 14 NonCon=     1 RMS=1.62D-08 Max=4.43D-07 NDo=     1
 LinEq1:  Iter= 15 NonCon=     1 RMS=6.52D-09 Max=1.46D-07 NDo=     1
 LinEq1:  Iter= 16 NonCon=     1 RMS=2.19D-09 Max=2.46D-08 NDo=     1
 LinEq1:  Iter= 17 NonCon=     1 RMS=5.43D-10 Max=7.24D-09 NDo=     1
 LinEq1:  Iter= 18 NonCon=     1 RMS=2.57D-10 Max=4.89D-09 NDo=     1
 LinEq1:  Iter= 19 NonCon=     0 RMS=6.93D-11 Max=7.97D-10 NDo=     1
 Linear equations converged to 1.000D-10 1.000D-09 after    19 iterations.
 End of Minotr F.D. properties file   721 does not exist.
 End of Minotr F.D. properties file   722 does not exist.
 End of Minotr F.D. properties file   788 does not exist.

 **********************************************************************

            Population analysis using the CI Density.

 **********************************************************************

 Orbital symmetries:
       Occupied  (A) (A) (A) (A) (A) (A) (A) (A) (A) (A) (A) (A)
                 (A) (A) (A) (A) (A) (A) (A) (A) (A) (A) (A) (A)
                 (A) (A) (A) (A) (A) (A) (A)
       Virtual   (A) (A) (A) (A) (A) (A) (A) (A) (A) (A) (A) (A)
                 (A) (A) (A) (A) (A) (A) (A) (A) (A) (A) (A) (A)
                 (A) (A) (A) (A) (A) (A) (A) (A) (A) (A) (A) (A)
                 (A) (A) (A) (A) (A) (A) (A) (A) (A) (A) (A) (A)
                 (A) (A) (A) (A) (A) (A) (A) (A) (A) (A) (A) (A)
                 (A) (A) (A) (A) (A) (A) (A) (A) (A) (A) (A) (A)
                 (A) (A) (A) (A) (A) (A) (A) (A) (A) (A) (A) (A)
                 (A) (A) (A) (A) (A) (A) (A) (A) (A) (A) (A) (A)
                 (A) (A) (A) (A) (A) (A) (A) (A) (A) (A) (A) (A)
                 (A) (A) (A) (A) (A) (A) (A) (A) (A) (A) (A) (A)
                 (A) (A) (A) (A) (A) (A) (A) (A) (A) (A) (A) (A)
                 (A) (A) (A) (A) (A) (A) (A) (A) (A) (A) (A) (A)
                 (A) (A) (A) (A) (A) (A) (A) (A) (A) (A)
 The electronic state is 1-A.
 Alpha  occ. eigenvalues --  -14.46203 -10.30836 -10.30537 -10.27575 -10.27117
 Alpha  occ. eigenvalues --  -10.27089 -10.27026 -10.26495 -10.26126  -1.11690
 Alpha  occ. eigenvalues --   -0.97537  -0.91571  -0.86669  -0.84791  -0.74845
 Alpha  occ. eigenvalues --   -0.71687  -0.70340  -0.65877  -0.59685  -0.58562
 Alpha  occ. eigenvalues --   -0.54689  -0.54153  -0.54010  -0.51948  -0.49831
 Alpha  occ. eigenvalues --   -0.45878  -0.44709  -0.43672  -0.38173  -0.31213
 Alpha  occ. eigenvalues --   -0.29423
 Alpha virt. eigenvalues --    0.05903   0.06649   0.08403   0.08840   0.09873
 Alpha virt. eigenvalues --    0.10132   0.10498   0.12002   0.12447   0.12966
 Alpha virt. eigenvalues --    0.13057   0.13439   0.15289   0.16042   0.16816
 Alpha virt. eigenvalues --    0.16962   0.17917   0.19498   0.20770   0.20831
 Alpha virt. eigenvalues --    0.22249   0.22582   0.23471   0.23951   0.24009
 Alpha virt. eigenvalues --    0.25454   0.25600   0.25907   0.26590   0.27282
 Alpha virt. eigenvalues --    0.27857   0.28958   0.29099   0.29952   0.30377
 Alpha virt. eigenvalues --    0.30832   0.31585   0.31663   0.32771   0.33400
 Alpha virt. eigenvalues --    0.34535   0.34735   0.36436   0.37715   0.39144
 Alpha virt. eigenvalues --    0.40143   0.40206   0.41730   0.43861   0.46121
 Alpha virt. eigenvalues --    0.47130   0.49622   0.54204   0.55023   0.61823
 Alpha virt. eigenvalues --    0.68906   0.73549   0.77687   0.77952   0.80317
 Alpha virt. eigenvalues --    0.82271   0.82475   0.84062   0.84121   0.85096
 Alpha virt. eigenvalues --    0.85748   0.86681   0.88283   0.89778   0.90888
 Alpha virt. eigenvalues --    0.92448   0.95974   1.00315   1.01241   1.02379
 Alpha virt. eigenvalues --    1.04611   1.05310   1.06204   1.07066   1.09332
 Alpha virt. eigenvalues --    1.11288   1.13938   1.15595   1.17641   1.20119
 Alpha virt. eigenvalues --    1.22191   1.22749   1.27912   1.28882   1.31404
 Alpha virt. eigenvalues --    1.33188   1.34153   1.36352   1.42866   1.42901
 Alpha virt. eigenvalues --    1.44811   1.47707   1.52360   1.52674   1.56208
 Alpha virt. eigenvalues --    1.57012   1.57441   1.60650   1.61290   1.65064
 Alpha virt. eigenvalues --    1.70008   1.76152   1.89907   1.95600   1.99655
 Alpha virt. eigenvalues --    2.00165   2.03535   2.05555   2.10818   2.11097
 Alpha virt. eigenvalues --    2.11637   2.17658   2.21324   2.25487   2.28561
 Alpha virt. eigenvalues --    2.28579   2.31120   2.36199   2.37264   2.37773
 Alpha virt. eigenvalues --    2.39697   2.42583   2.49406   2.52205   2.55849
 Alpha virt. eigenvalues --    2.66140   2.67367   2.74885   2.77026   2.78398
 Alpha virt. eigenvalues --    2.81481   2.85141   2.92468   2.96038   2.97410
 Alpha virt. eigenvalues --    3.06987   3.09232   3.23025   3.36063   3.56469
 Alpha virt. eigenvalues --    4.27133   4.38406   4.41340   4.44812   4.48459
 Alpha virt. eigenvalues --    4.52064   4.60359   4.64335   4.91218
          Condensed to atoms (all electrons):
               1          2          3          4          5          6
     1  C   16.981319   5.044785   1.431729 -13.115372  -2.856787 -12.892621
     2  C    5.044785  14.891714   5.802430 -15.921331   6.951931 -16.460073
     3  C    1.431729   5.802430  25.658593 -25.277144  10.666807 -17.187089
     4  C  -13.115372 -15.921331 -25.277144  75.533480 -23.167876  34.796652
     5  C   -2.856787   6.951931  10.666807 -23.167876  58.532441 -21.412701
     6  C  -12.892621 -16.460073 -17.187089  34.796652 -21.412701  51.051094
     7  N   -0.681033  -0.552657  -3.070169   4.788357  -1.520719   1.738188
     8  C   18.940910  10.445852  15.417210 -54.814409 -40.579402 -20.655376
     9  C   -6.700379  -3.689007  -6.858772  22.454848  17.962835   6.319160
    10  H    0.009797  -0.010389   0.044858  -0.052489   0.377849  -0.009295
    11  H   -0.007414  -0.004282   0.008280   0.079886   0.048674  -0.064731
    12  H   -0.000540   0.001182  -0.003794   0.007880   0.053224  -0.007257
    13  H    0.042117   0.219030  -0.097255   0.136742  -0.080004   0.102807
    14  H    0.043343   0.041362   0.234450   0.020892  -0.072839   0.035567
    15  H    0.310943   0.046507   0.024905  -0.033924   0.043256  -0.082644
    16  H   -0.119757  -0.060308  -0.040262   0.190511   0.143645   0.357345
               7          8          9         10         11         12
     1  C   -0.681033  18.940910  -6.700379   0.009797  -0.007414  -0.000540
     2  C   -0.552657  10.445852  -3.689007  -0.010389  -0.004282   0.001182
     3  C   -3.070169  15.417210  -6.858772   0.044858   0.008280  -0.003794
     4  C    4.788357 -54.814409  22.454848  -0.052489   0.079886   0.007880
     5  C   -1.520719 -40.579402  17.962835   0.377849   0.048674   0.053224
     6  C    1.738188 -20.655376   6.319160  -0.009295  -0.064731  -0.007257
     7  N   14.127783 -19.486276  11.482669  -0.528458   0.010811  -0.032576
     8  C  -19.486276 186.755485 -86.292070   1.132875   0.222397  -0.127811
     9  C   11.482669 -86.292070  49.194759  -0.731050   0.020723   0.441485
    10  H   -0.528458   1.132875  -0.731050   0.357859  -0.000082  -0.001768
    11  H    0.010811   0.222397   0.020723  -0.000082   0.408853  -0.000369
    12  H   -0.032576  -0.127811   0.441485  -0.001768  -0.000369   0.380464
    13  H    0.002842  -0.020720   0.008868  -0.000016   0.000000  -0.000000
    14  H    0.029992  -0.058269   0.038580  -0.000684   0.000001   0.000002
    15  H    0.000029   0.014901  -0.002980   0.000000  -0.000001  -0.000000
    16  H    0.001605  -0.232286   0.060170  -0.000003   0.001063  -0.000001
              13         14         15         16
     1  C    0.042117   0.043343   0.310943  -0.119757
     2  C    0.219030   0.041362   0.046507  -0.060308
     3  C   -0.097255   0.234450   0.024905  -0.040262
     4  C    0.136742   0.020892  -0.033924   0.190511
     5  C   -0.080004  -0.072839   0.043256   0.143645
     6  C    0.102807   0.035567  -0.082644   0.357345
     7  N    0.002842   0.029992   0.000029   0.001605
     8  C   -0.020720  -0.058269   0.014901  -0.232286
     9  C    0.008868   0.038580  -0.002980   0.060170
    10  H   -0.000016  -0.000684   0.000000  -0.000003
    11  H    0.000000   0.000001  -0.000001   0.001063
    12  H   -0.000000   0.000002  -0.000000  -0.000001
    13  H    0.451634  -0.002149  -0.002874  -0.000086
    14  H   -0.002149   0.413136  -0.000094   0.000012
    15  H   -0.002874  -0.000094   0.459168  -0.002807
    16  H   -0.000086   0.000012  -0.002807   0.457719
 Mulliken charges:
               1
     1  C   -0.431042
     2  C   -0.746748
     3  C   -0.754778
     4  C    0.373293
     5  C    0.909664
     6  C    0.370974
     7  N    0.689611
     8  C   -4.663011
     9  C    2.290160
    10  H    0.410995
    11  H    0.276191
    12  H    0.289877
    13  H    0.239064
    14  H    0.276696
    15  H    0.225614
    16  H    0.243439
 Sum of Mulliken charges =  -0.00000
 Mulliken charges with hydrogens summed into heavy atoms:
               1
     1  C   -0.205427
     2  C   -0.507683
     3  C   -0.478082
     4  C    0.373293
     5  C    0.909664
     6  C    0.614413
     7  N    1.100606
     8  C   -4.386820
     9  C    2.580037
 Electronic spatial extent (au):  <R**2>=           1034.4257
 Charge=             -0.0000 electrons
 Dipole moment (field-independent basis, Debye):
    X=             -4.5863    Y=              4.6314    Z=             -0.0007  Tot=              6.5180
 Quadrupole moment (field-independent basis, Debye-Ang):
   XX=            -58.2399   YY=            -60.9700   ZZ=            -68.7404
   XY=             10.4368   XZ=             -0.0041   YZ=              0.0021
 Traceless Quadrupole moment (field-independent basis, Debye-Ang):
   XX=              4.4102   YY=              1.6801   ZZ=             -6.0903
   XY=             10.4368   XZ=             -0.0041   YZ=              0.0021
 Octapole moment (field-independent basis, Debye-Ang**2):
  XXX=            -84.8344  YYY=             55.1698  ZZZ=             -0.0101  XYY=            -35.3359
  XXY=             32.0131  XXZ=             -0.0160  XZZ=            -19.5632  YZZ=             16.1453
  YYZ=             -0.0000  XYZ=              0.0071
 Hexadecapole moment (field-independent basis, Debye-Ang**3):
 XXXX=          -1186.0021 YYYY=           -643.6462 ZZZZ=           -164.2991 XXXY=            129.8824
 XXXZ=             -0.0671 YYYX=             90.6269 YYYZ=              0.0179 ZZZX=             -0.0285
 ZZZY=              0.0213 XXYY=           -312.2027 XXZZ=           -251.0922 YYZZ=           -150.7410
 XXYZ=              0.0285 YYXZ=             -0.0205 ZZXY=             27.9077
 N-N= 4.013368668897D+02 E-N=-1.641334086176D+03  KE= 3.602857489240D+02
 Calling FoFJK, ICntrl=  10005127 FMM=F ISym2X=0 I1Cent= 0 IOpClX= 0 NMat=1 NMatS=1 NMatT=0.
 ***** Axes restored to original set *****
 -------------------------------------------------------------------
 Center     Atomic                   Forces (Hartrees/Bohr)
 Number     Number              X              Y              Z
 -------------------------------------------------------------------
      1        6          -0.010655460   -0.015468611    0.000001428
      2        6          -0.013167203    0.025418665    0.000003424
      3        6           0.030017393   -0.006571928   -0.000014270
      4        6          -0.021221864    0.007116809   -0.000003483
      5        6          -0.002865785   -0.006911809   -0.000021947
      6        6           0.010730219    0.006198767   -0.000014089
      7        7           0.029819706    0.054186895    0.000078541
      8        6          -0.031195524    0.018208742    0.000037698
      9        6          -0.003502355   -0.063877796   -0.000086039
     10        1           0.009987918   -0.023443565    0.000000917
     11        1           0.002465335    0.005183053    0.000003753
     12        1           0.003813674   -0.001793485    0.000004866
     13        1          -0.002636914   -0.001570493    0.000000859
     14        1           0.001328028   -0.001287770    0.000001994
     15        1          -0.002655406    0.001606032    0.000002493
     16        1          -0.000261762    0.003006495    0.000003855
 -------------------------------------------------------------------
 Cartesian Forces:  Max     0.063877796 RMS     0.016318158

 GradGradGradGradGradGradGradGradGradGradGradGradGradGradGradGradGradGrad
 Berny optimization.
 FormGI is forming the generalized inverse of G from B-inverse, IUseBI=4.
 Internal  Forces:  Max     0.043533332 RMS     0.008146792
 Search for a local minimum.
 Step number   1 out of a maximum of   94
 All quantities printed in internal units (Hartrees-Bohrs-Radians)
 Mixed Optimization -- RFO/linear search
 Second derivative matrix not updated -- first step.
 ITU=  0
     Eigenvalues ---    0.01853   0.01931   0.01986   0.02012   0.02070
     Eigenvalues ---    0.02113   0.02148   0.02153   0.02172   0.02209
     Eigenvalues ---    0.02233   0.02248   0.02338   0.16000   0.16000
     Eigenvalues ---    0.16000   0.16000   0.16000   0.16000   0.16000
     Eigenvalues ---    0.22000   0.22188   0.22662   0.24011   0.24651
     Eigenvalues ---    0.35712   0.35717   0.35783   0.35790   0.36420
     Eigenvalues ---    0.36427   0.37009   0.38432   0.42633   0.43465
     Eigenvalues ---    0.45769   0.46692   0.47162   0.47468   0.47567
     Eigenvalues ---    0.48125   0.50955
 RFO step:  Lambda=-1.15854600D-02 EMin= 1.85287394D-02
 Linear search not attempted -- first point.
 Iteration  1 RMS(Cart)=  0.02272669 RMS(Int)=  0.00009948
 Iteration  2 RMS(Cart)=  0.00011715 RMS(Int)=  0.00003930
 Iteration  3 RMS(Cart)=  0.00000001 RMS(Int)=  0.00003930
 Variable       Old X    -DE/DX   Delta X   Delta X   Delta X     New X
                                 (Linear)    (Quad)   (Total)
    R1        2.65547  -0.00952   0.00000  -0.01918  -0.01920   2.63627
    R2        2.61291   0.01025   0.00000   0.02165   0.02165   2.63456
    R3        2.04421   0.00310   0.00000   0.00839   0.00839   2.05260
    R4        2.61557   0.02421   0.00000   0.04929   0.04928   2.66485
    R5        2.04411   0.00307   0.00000   0.00831   0.00831   2.05242
    R6        2.63373  -0.01326   0.00000  -0.02884  -0.02883   2.60490
    R7        2.04534   0.00131   0.00000   0.00354   0.00354   2.04888
    R8        2.68058  -0.00673   0.00000  -0.01717  -0.01711   2.66347
    R9        2.60126   0.01859   0.00000   0.03424   0.03435   2.63561
   R10        2.64771   0.00145   0.00000   0.00271   0.00272   2.65043
   R11        2.70839  -0.00708   0.00000  -0.01432  -0.01441   2.69398
   R12        2.04526   0.00301   0.00000   0.00817   0.00817   2.05343
   R13        2.60573  -0.04353   0.00000  -0.08752  -0.08750   2.51823
   R14        1.89542   0.02539   0.00000   0.05255   0.05255   1.94797
   R15        2.57870   0.03604   0.00000   0.06915   0.06906   2.64775
   R16        2.03419   0.00572   0.00000   0.01521   0.01521   2.04940
   R17        2.03430   0.00398   0.00000   0.01059   0.01059   2.04490
    A1        2.11420  -0.00495   0.00000  -0.01592  -0.01593   2.09827
    A2        2.07986   0.00263   0.00000   0.00890   0.00890   2.08876
    A3        2.08912   0.00231   0.00000   0.00703   0.00703   2.09616
    A4        2.11523   0.00215   0.00000   0.01326   0.01324   2.12847
    A5        2.08365  -0.00105   0.00000  -0.00647  -0.00646   2.07719
    A6        2.08430  -0.00110   0.00000  -0.00679  -0.00678   2.07753
    A7        2.05144  -0.00111   0.00000  -0.00612  -0.00612   2.04532
    A8        2.11267   0.00190   0.00000   0.01088   0.01088   2.12354
    A9        2.11908  -0.00079   0.00000  -0.00476  -0.00476   2.11432
   A10        2.13389  -0.00139   0.00000  -0.00714  -0.00719   2.12670
   A11        2.27895  -0.00315   0.00000  -0.00703  -0.00712   2.27183
   A12        1.87035   0.00454   0.00000   0.01417   0.01430   1.88465
   A13        2.07274   0.00787   0.00000   0.02543   0.02549   2.09823
   A14        1.86517  -0.00704   0.00000  -0.02258  -0.02263   1.84255
   A15        2.34527  -0.00084   0.00000  -0.00285  -0.00286   2.34241
   A16        2.07887  -0.00258   0.00000  -0.00950  -0.00949   2.06939
   A17        2.10306   0.00110   0.00000   0.00368   0.00367   2.10673
   A18        2.10125   0.00147   0.00000   0.00583   0.00582   2.10707
   A19        1.90743   0.00413   0.00000   0.00966   0.00979   1.91721
   A20        2.19023  -0.00004   0.00000   0.00696   0.00689   2.19712
   A21        2.18553  -0.00409   0.00000  -0.01662  -0.01668   2.16885
   A22        1.86968   0.00128   0.00000   0.01187   0.01172   1.88140
   A23        2.21717  -0.00011   0.00000  -0.00285  -0.00278   2.21439
   A24        2.19633  -0.00117   0.00000  -0.00902  -0.00894   2.18739
   A25        1.91215  -0.00291   0.00000  -0.01312  -0.01318   1.89896
   A26        2.10250   0.00005   0.00000  -0.00162  -0.00159   2.10091
   A27        2.26854   0.00286   0.00000   0.01474   0.01477   2.28331
    D1       -0.00001   0.00000   0.00000   0.00002   0.00002   0.00001
    D2       -3.14156   0.00000   0.00000  -0.00001  -0.00001  -3.14157
    D3        3.14152   0.00000   0.00000   0.00006   0.00006   3.14158
    D4       -0.00002   0.00000   0.00000   0.00003   0.00003   0.00000
    D5       -0.00003  -0.00000   0.00000  -0.00005  -0.00005  -0.00009
    D6        3.14153   0.00000   0.00000   0.00007   0.00007  -3.14158
    D7       -3.14157  -0.00000   0.00000  -0.00009  -0.00009   3.14153
    D8       -0.00001   0.00000   0.00000   0.00004   0.00004   0.00003
    D9        0.00003   0.00000   0.00000   0.00005   0.00005   0.00009
   D10       -3.14154  -0.00000   0.00000  -0.00005  -0.00005  -3.14159
   D11        3.14158   0.00000   0.00000   0.00008   0.00008  -3.14152
   D12        0.00001  -0.00000   0.00000  -0.00002  -0.00002  -0.00001
   D13       -0.00001  -0.00001   0.00000  -0.00010  -0.00010  -0.00010
   D14       -3.14144  -0.00001   0.00000  -0.00008  -0.00008  -3.14151
   D15        3.14156  -0.00000   0.00000   0.00001   0.00001   3.14157
   D16        0.00013  -0.00000   0.00000   0.00003   0.00003   0.00016
   D17       -0.00004   0.00000   0.00000   0.00007   0.00006   0.00003
   D18       -3.14151   0.00000   0.00000  -0.00002  -0.00003  -3.14154
   D19        3.14143   0.00000   0.00000   0.00005   0.00005   3.14147
   D20       -0.00005   0.00000   0.00000  -0.00004  -0.00005  -0.00010
   D21       -3.14124  -0.00001   0.00000  -0.00048  -0.00049   3.14145
   D22       -0.00113   0.00001   0.00000   0.00025   0.00025  -0.00088
   D23        0.00049  -0.00001   0.00000  -0.00046  -0.00047   0.00003
   D24        3.14060   0.00001   0.00000   0.00027   0.00027   3.14087
   D25        0.00005  -0.00000   0.00000   0.00001   0.00001   0.00007
   D26       -3.14151  -0.00000   0.00000  -0.00011  -0.00011   3.14157
   D27        3.14150   0.00000   0.00000   0.00013   0.00014  -3.14155
   D28       -0.00007  -0.00000   0.00000   0.00001   0.00001  -0.00005
   D29       -0.00041   0.00002   0.00000   0.00055   0.00054   0.00014
   D30        3.14139   0.00001   0.00000   0.00009   0.00009   3.14148
   D31        3.14132   0.00002   0.00000   0.00044   0.00043  -3.14143
   D32       -0.00006   0.00000   0.00000  -0.00002  -0.00003  -0.00009
   D33       -0.00077   0.00003   0.00000   0.00085   0.00084   0.00006
   D34        3.14133   0.00001   0.00000   0.00028   0.00028  -3.14158
   D35       -3.14089   0.00001   0.00000   0.00009   0.00009  -3.14080
   D36        0.00121  -0.00001   0.00000  -0.00047  -0.00047   0.00074
   D37        0.00072  -0.00003   0.00000  -0.00084  -0.00085  -0.00012
   D38       -3.14144  -0.00001   0.00000  -0.00021  -0.00022   3.14153
   D39       -3.14107  -0.00001   0.00000  -0.00039  -0.00040  -3.14147
   D40       -0.00005   0.00001   0.00000   0.00024   0.00023   0.00018
         Item               Value     Threshold  Converged?
 Maximum Force            0.043533     0.000450     NO 
 RMS     Force            0.008147     0.000300     NO 
 Maximum Displacement     0.086919     0.001800     NO 
 RMS     Displacement     0.022735     0.001200     NO 
 Predicted change in Energy=-5.939033D-03
 GradGradGradGradGradGradGradGradGradGradGradGradGradGradGradGradGradGrad

                          Input orientation:                          
 ---------------------------------------------------------------------
 Center     Atomic      Atomic             Coordinates (Angstroms)
 Number     Number       Type             X           Y           Z
 ---------------------------------------------------------------------
      1          6           0       -2.174380    0.697142    0.000003
      2          6           0       -2.128971   -0.697174    0.000014
      3          6           0       -0.908793   -1.404115   -0.000004
      4          6           0        0.250868   -0.658914    0.000074
      5          6           0        0.229370    0.750370    0.000043
      6          6           0       -0.993199    1.437728   -0.000035
      7          7           0        1.583857   -1.069216   -0.000007
      8          6           0        1.596651    1.153931    0.000078
      9          6           0        2.385025   -0.004359   -0.000053
     10          1           0        1.915668   -2.045175    0.000593
     11          1           0        1.975228    2.170202   -0.000033
     12          1           0        3.460003   -0.128421   -0.000125
     13          1           0       -3.061109   -1.254597    0.000020
     14          1           0       -0.878839   -2.487923   -0.000001
     15          1           0       -3.135099    1.203925    0.000004
     16          1           0       -1.019378    2.524042   -0.000035
 ---------------------------------------------------------------------
                    Distance matrix (angstroms):
                    1          2          3          4          5
     1  C    0.000000
     2  C    1.395055   0.000000
     3  C    2.452955   1.410177   0.000000
     4  C    2.778618   2.380147   1.378455   0.000000
     5  C    2.404339   2.767157   2.436641   1.409449   0.000000
     6  C    1.394151   2.418219   2.843096   2.437952   1.402546
     7  N    4.152633   3.731422   2.515047   1.394707   2.268376
     8  C    3.798596   4.160151   3.580621   2.257773   1.425594
     9  C    4.613055   4.566854   3.578904   2.232279   2.283958
    10  H    4.924307   4.263357   2.896298   2.166398   3.264763
    11  H    4.403312   5.006626   4.592747   3.313204   2.250321
    12  H    5.694544   5.617839   4.551239   3.252687   3.348024
    13  H    2.143728   1.086094   2.157502   3.365119   3.853199
    14  H    3.438468   2.183944   1.084222   2.149770   3.422670
    15  H    1.086191   2.150924   3.429039   3.864575   3.394902
    16  H    2.161387   3.406968   3.929713   3.427059   2.169166
                    6          7          8          9         10
     6  C    0.000000
     7  N    3.595273   0.000000
     8  C    2.605353   2.223184   0.000000
     9  C    3.673148   1.332588   1.401131   0.000000
    10  H    4.537855   1.030823   3.214973   2.094094   0.000000
    11  H    3.057463   3.262975   1.084494   2.212837   4.215799
    12  H    4.720576   2.098814   2.261970   1.082114   2.461487
    13  H    3.394829   4.648663   5.243638   5.587796   5.039179
    14  H    3.927316   2.842111   4.403538   4.101329   2.829363
    15  H    2.154622   5.237911   4.732014   5.650816   6.005573
    16  H    1.086630   4.437154   2.953102   4.240610   5.430676
                   11         12         13         14         15
    11  H    0.000000
    12  H    2.736462   0.000000
    13  H    6.090480   6.617641   0.000000
    14  H    5.462950   4.938907   2.506670   0.000000
    15  H    5.200878   6.728337   2.459636   4.326714   0.000000
    16  H    3.015438   5.205806   4.294971   5.013935   2.493789
                   16
    16  H    0.000000
 Stoichiometry    C8H7N
 Framework group  C1[X(C8H7N)]
 Deg. of freedom    42
 Full point group                 C1      NOp   1
 Largest Abelian subgroup         C1      NOp   1
 Largest concise Abelian subgroup C1      NOp   1
                         Standard orientation:                         
 ---------------------------------------------------------------------
 Center     Atomic      Atomic             Coordinates (Angstroms)
 Number     Number       Type             X           Y           Z
 ---------------------------------------------------------------------
      1          6           0       -2.188284    0.643335   -0.000015
      2          6           0       -2.109981   -0.749521   -0.000003
      3          6           0       -0.873459   -1.427468   -0.000022
      4          6           0        0.268292   -0.655107    0.000056
      5          6           0        0.213541    0.753278    0.000026
      6          6           0       -1.024910    1.411591   -0.000053
      7          7           0        1.610593   -1.033836   -0.000025
      8          6           0        1.570917    1.188994    0.000061
      9          6           0        2.386407    0.049633   -0.000070
     10          1           0        1.965345   -2.001692    0.000575
     11          1           0        1.925404    2.213917   -0.000051
     12          1           0        3.464014   -0.049025   -0.000143
     13          1           0       -3.028704   -1.328787    0.000002
     14          1           0       -0.817935   -2.510267   -0.000019
     15          1           0       -3.160695    1.127305   -0.000014
     16          1           0       -1.076718    2.496985   -0.000053
 ---------------------------------------------------------------------
 Rotational constants (GHZ):           3.9278399           1.6344262           1.1541635
 Standard basis: 6-31+G(d) (6D, 7F)
 There are   185 symmetry adapted cartesian basis functions of A   symmetry.
 There are   185 symmetry adapted basis functions of A   symmetry.
   185 basis functions,   316 primitive gaussians,   185 cartesian basis functions
    31 alpha electrons       31 beta electrons
       nuclear repulsion energy       401.0034711214 Hartrees.
 NAtoms=   16 NActive=   16 NUniq=   16 SFac= 1.00D+00 NAtFMM=   60 NAOKFM=F Big=F
 Integral buffers will be    131072 words long.
 Raffenetti 1 integral format.
 Two-electron integral symmetry is turned on.
 One-electron integrals computed using PRISM.
 NBasis=   185 RedAO= T EigKep=  1.18D-06  NBF=   185
 NBsUse=   185 1.00D-06 EigRej= -1.00D+00 NBFU=   185
 Initial guess from the checkpoint file:  "FuncsWB97X-V-3rd.chk"
 B after Tr=     0.000000   -0.000000    0.000000
         Rot=    0.999932    0.000008    0.000009   -0.011624 Ang=   1.33 deg.
 ExpMin= 4.38D-02 ExpMax= 4.17D+03 ExpMxC= 6.27D+02 IAcc=3 IRadAn=         5 AccDes= 0.00D+00
 Harris functional with IExCor= 4538 and IRadAn=       5 diagonalized for initial guess.
 HarFok:  IExCor= 4538 AccDes= 0.00D+00 IRadAn=         5 IDoV= 1 UseB2=F ITyADJ=14
 ICtDFT=  3500011 ScaDFX=  1.000000  1.000000  1.000000  1.000000
 FoFCou: FMM=F IPFlag=           0 FMFlag=      100000 FMFlg1=           0
         NFxFlg=           0 DoJE=T BraDBF=F KetDBF=T FulRan=T
         wScrn=  0.000000 ICntrl=       500 IOpCl=  0 I1Cent=   200000004 NGrid=           0
         NMat0=    1 NMatS0=      1 NMatT0=    0 NMatD0=    1 NMtDS0=    0 NMtDT0=    0
 Petite list used in FoFCou.
 Keep R1 ints in memory in canonical form, NReq=303303409.
 Requested convergence on RMS density matrix=1.00D-08 within 128 cycles.
 Requested convergence on MAX density matrix=1.00D-06.
 Requested convergence on             energy=1.00D-06.
 No special actions if energy rises.
 SCF Done:  E(RwB97X) =  -363.724062521     A.U. after   15 cycles
            NFock= 15  Conv=0.45D-08     -V/T= 2.0096
 DoSCS=F DFT=T ScalE2(SS,OS)=  1.000000  1.000000
 ExpMin= 4.38D-02 ExpMax= 4.17D+03 ExpMxC= 6.27D+02 IAcc=3 IRadAn=         5 AccDes= 0.00D+00
 HarFok:  IExCor=  205 AccDes= 0.00D+00 IRadAn=         5 IDoV=-2 UseB2=F ITyADJ=14
 ICtDFT= 12500011 ScaDFX=  1.000000  1.000000  1.000000  1.000000
 Range of M.O.s used for correlation:    10   185
 NBasis=   185 NAE=    31 NBE=    31 NFC=     9 NFV=     0
 NROrb=    176 NOA=    22 NOB=    22 NVA=   154 NVB=   154

 **** Warning!!: The largest alpha MO coefficient is  0.18064594D+03

 Orbital symmetries:
       Occupied  (A) (A) (A) (A) (A) (A) (A) (A) (A) (A) (A) (A)
                 (A) (A) (A) (A) (A) (A) (A) (A) (A) (A) (A) (A)
                 (A) (A) (A) (A) (A) (A) (A)
       Virtual   (A) (A) (A) (A) (A) (A) (A) (A) (A) (A) (A) (A)
                 (A) (A) (A) (A) (A) (A) (A) (A) (A) (A) (A) (A)
                 (A) (A) (A) (A) (A) (A) (A) (A) (A) (A) (A) (A)
                 (A) (A) (A) (A) (A) (A) (A) (A) (A) (A) (A) (A)
                 (A) (A) (A) (A) (A) (A) (A) (A) (A) (A) (A) (A)
                 (A) (A) (A) (A) (A) (A) (A) (A) (A) (A) (A) (A)
                 (A) (A) (A) (A) (A) (A) (A) (A) (A) (A) (A) (A)
                 (A) (A) (A) (A) (A) (A) (A) (A) (A) (A) (A) (A)
                 (A) (A) (A) (A) (A) (A) (A) (A) (A) (A) (A) (A)
                 (A) (A) (A) (A) (A) (A) (A) (A) (A) (A) (A) (A)
                 (A) (A) (A) (A) (A) (A) (A) (A) (A) (A) (A) (A)
                 (A) (A) (A) (A) (A) (A) (A) (A) (A) (A) (A) (A)
                 (A) (A) (A) (A) (A) (A) (A) (A) (A) (A)
 Generating guess from densities on rwf.
 Convergence on wavefunction:    0.000001000000000
 Iteration     1 Dimension    12 NMult     0 NNew     12
 CISAX will form    12 AO SS matrices at one time.
 New state      1 was old state      2
 New state      2 was old state      1
 New state      5 was old state      6
 New state      6 was old state      5
 Iteration     2 Dimension    24 NMult    12 NNew     12
 Iteration     3 Dimension    36 NMult    24 NNew     12
 Iteration     4 Dimension    48 NMult    36 NNew     12
 Iteration     5 Dimension    60 NMult    48 NNew     12
 Iteration     6 Dimension    72 NMult    60 NNew     12
 Iteration     7 Dimension    84 NMult    72 NNew     12
 Iteration     8 Dimension    96 NMult    84 NNew     12
 Iteration     9 Dimension   108 NMult    96 NNew     12
 Iteration    10 Dimension   120 NMult   108 NNew     12
 Iteration    11 Dimension   128 NMult   120 NNew      8
 Iteration    12 Dimension   136 NMult   128 NNew      8
 Iteration    13 Dimension   142 NMult   136 NNew      6
 Iteration    14 Dimension   146 NMult   142 NNew      4
 Iteration    15 Dimension   150 NMult   146 NNew      4
 Iteration    16 Dimension   154 NMult   150 NNew      4
 ***********************************************************************
 Excited states from <AA,BB:AA,BB> singles matrix:
 ***********************************************************************
 
 Ground to excited state transition densities written to RWF  633
 Ground to excited state transition electric dipole moments (Au):
       state          X           Y           Z        Dip. S.      Osc.
         1        -0.9369      0.6872      0.0000      1.3500      0.1640
         2        -0.0909     -0.2604     -0.0000      0.0761      0.0096
         3         0.0000     -0.0000     -0.2048      0.0419      0.0058
         4        -1.9136     -0.7325     -0.0003      4.1983      0.6529
         5        -0.0008     -0.0003     -0.2000      0.0400      0.0063
         6        -0.0034     -0.0013      0.1873      0.0351      0.0055
 Ground to excited state transition velocity dipole moments (Au):
       state          X           Y           Z        Dip. S.      Osc.
         1         0.1582     -0.1354     -0.0000      0.0434      0.1586
         2         0.0165      0.0527      0.0000      0.0030      0.0107
         3         0.0000      0.0000      0.0346      0.0012      0.0038
         4         0.4345      0.1714      0.0001      0.2182      0.6236
         5         0.0002      0.0001      0.0469      0.0022      0.0062
         6         0.0008      0.0003     -0.0429      0.0018      0.0052
 Ground to excited state transition magnetic dipole moments (Au):
       state          X           Y           Z
         1         0.0000      0.0001      0.0907
         2        -0.0001     -0.0001      0.0519
         3         0.1924     -0.1958      0.0002
         4        -0.0006     -0.0003     -0.9178
         5         0.2430     -0.5614     -0.0004
         6         0.3590      0.2476     -0.0015
 Ground to excited state transition velocity quadrupole moments (Au):
       state          XX          YY          ZZ          XY          XZ          YZ
         1         0.2307     -0.1792      0.0147      0.0063     -0.0000      0.0000
         2        -0.0463     -0.0586      0.0191      0.0284      0.0000     -0.0000
         3        -0.0000      0.0001      0.0001      0.0001      0.1487      0.0936
         4         0.1994     -0.1815     -0.0323     -0.6005      0.0001     -0.0005
         5         0.0002     -0.0001     -0.0000     -0.0003      0.5448      0.2650
         6         0.0004     -0.0003     -0.0000     -0.0010     -0.1503      0.2301
 <0|del|b> * <b|rxdel|0> + <0|del|b> * <b|delr+rdel|0>
 Rotatory Strengths (R) in cgs (10**-40 erg-esu-cm/Gauss)
       state          XX          YY          ZZ    R(velocity)    E-M Angle
         1        -0.0362      0.0061     -0.0122     -0.0141       90.00
         2        -0.0092     -0.0024     -0.0061     -0.0059       90.00
         3         0.0149      0.0017     -0.0002      0.0055       90.00
         4        -0.2386     -0.7273     -0.1283     -0.3648       90.05
         5        -0.1621      0.1281     -0.0076     -0.0139       90.00
         6         0.3467      0.7140      0.1946      0.4184       88.72
 1/2[<0|r|b>*<b|rxdel|0> + (<0|rxdel|b>*<b|r|0>)*]
 Rotatory Strengths (R) in cgs (10**-40 erg-esu-cm/Gauss)
       state          XX          YY          ZZ     R(length)
         1         0.0134     -0.0481     -0.0026     -0.0124
         2        -0.0048     -0.0129      0.0004     -0.0058
         3        -0.0008     -0.0042      0.0230      0.0060
         4        -0.8007     -0.1568     -0.1625     -0.3734
         5         0.1348     -0.1221     -0.0534     -0.0136
         6         0.8538      0.2295      0.1985      0.4273
  1/2[<0|del|b>*<b|r|0> + (<0|r|b>*<b|del|0>)*] (Au)
       state          X           Y           Z        Dip. S.   Osc.(frdel)
         1        -0.1483     -0.0930     -0.0000      0.2413      0.1609
         2        -0.0015     -0.0137     -0.0000      0.0152      0.0101
         3         0.0000     -0.0000     -0.0071      0.0071      0.0047
         4        -0.8315     -0.1256     -0.0000      0.9571      0.6381
         5        -0.0000     -0.0000     -0.0094      0.0094      0.0062
         6        -0.0000     -0.0000     -0.0080      0.0080      0.0054

 Excitation energies and oscillator strengths:
 
 Excited State   1:      Singlet-A      4.9587 eV  250.03 nm  f=0.1640  <S**2>=0.000
      30 -> 36         0.16086
      31 -> 32         0.67488
 
 Excited State   2:      Singlet-A      5.1751 eV  239.58 nm  f=0.0096  <S**2>=0.000
      29 -> 36         0.10413
      30 -> 32         0.53777
      31 -> 36        -0.41321
 
 Excited State   3:      Singlet-A      5.6827 eV  218.18 nm  f=0.0058  <S**2>=0.000
      29 -> 33         0.10492
      31 -> 33         0.65815
      31 -> 40         0.14299
 This state for optimization and/or second-order correction.
 Total Energy, E(TD-HF/TD-DFT) =  -363.515227276    
 Copying the excited state density for this state as the 1-particle RhoCI density.
 
 Excited State   4:      Singlet-A      6.3478 eV  195.32 nm  f=0.6529  <S**2>=0.000
      30 -> 32         0.40066
      31 -> 36         0.53335
      31 -> 39         0.15251
 
 Excited State   5:      Singlet-A      6.3966 eV  193.83 nm  f=0.0063  <S**2>=0.000
      30 -> 33         0.11899
      31 -> 34         0.50701
      31 -> 35        -0.38694
      31 -> 38        -0.12459
 
 Excited State   6:      Singlet-A      6.4103 eV  193.42 nm  f=0.0055  <S**2>=0.000
      31 -> 33         0.11347
      31 -> 34         0.36805
      31 -> 35         0.44521
      31 -> 37         0.16533
      31 -> 40        -0.22162
      31 -> 43         0.18461
 SavETr:  write IOETrn=   770 NScale= 10 NData=  16 NLR=1 NState=    6 LETran=     118.
          IDoAtm=1111111111111111
          Differentiating once with respect to electric field.
                with respect to dipole field.
          Differentiating once with respect to nuclear coordinates.
 Keep R1 ints in memory in canonical form, NReq=303315801.
          There are     1 degrees of freedom in the 1st order CPHF.  IDoFFX=0 NUNeed=     1.
 LinEq1:  Iter=  0 NonCon=     1 RMS=8.12D-03 Max=1.18D-01 NDo=     1
 AX will form     1 AO Fock derivatives at one time.
 LinEq1:  Iter=  1 NonCon=     1 RMS=2.67D-03 Max=4.76D-02 NDo=     1
 LinEq1:  Iter=  2 NonCon=     1 RMS=1.48D-03 Max=5.08D-02 NDo=     1
 LinEq1:  Iter=  3 NonCon=     1 RMS=5.49D-04 Max=1.37D-02 NDo=     1
 LinEq1:  Iter=  4 NonCon=     1 RMS=2.45D-04 Max=5.25D-03 NDo=     1
 LinEq1:  Iter=  5 NonCon=     1 RMS=1.08D-04 Max=2.25D-03 NDo=     1
 LinEq1:  Iter=  6 NonCon=     1 RMS=4.53D-05 Max=1.42D-03 NDo=     1
 LinEq1:  Iter=  7 NonCon=     1 RMS=2.70D-05 Max=6.53D-04 NDo=     1
 LinEq1:  Iter=  8 NonCon=     1 RMS=7.02D-06 Max=1.31D-04 NDo=     1
 LinEq1:  Iter=  9 NonCon=     1 RMS=2.46D-06 Max=7.28D-05 NDo=     1
 LinEq1:  Iter= 10 NonCon=     1 RMS=9.98D-07 Max=1.99D-05 NDo=     1
 LinEq1:  Iter= 11 NonCon=     1 RMS=3.03D-07 Max=7.66D-06 NDo=     1
 LinEq1:  Iter= 12 NonCon=     1 RMS=1.75D-07 Max=5.00D-06 NDo=     1
 LinEq1:  Iter= 13 NonCon=     1 RMS=6.23D-08 Max=1.16D-06 NDo=     1
 LinEq1:  Iter= 14 NonCon=     1 RMS=1.93D-08 Max=5.55D-07 NDo=     1
 LinEq1:  Iter= 15 NonCon=     1 RMS=8.57D-09 Max=1.43D-07 NDo=     1
 LinEq1:  Iter= 16 NonCon=     1 RMS=2.64D-09 Max=2.95D-08 NDo=     1
 LinEq1:  Iter= 17 NonCon=     1 RMS=5.35D-10 Max=8.89D-09 NDo=     1
 LinEq1:  Iter= 18 NonCon=     1 RMS=1.25D-10 Max=1.62D-09 NDo=     1
 LinEq1:  Iter= 19 NonCon=     0 RMS=5.88D-11 Max=9.14D-10 NDo=     1
 Linear equations converged to 1.000D-10 1.000D-09 after    19 iterations.
 End of Minotr F.D. properties file   721 does not exist.
 End of Minotr F.D. properties file   722 does not exist.
 End of Minotr F.D. properties file   788 does not exist.
 Calling FoFJK, ICntrl=  10005127 FMM=F ISym2X=0 I1Cent= 0 IOpClX= 0 NMat=1 NMatS=1 NMatT=0.
 ***** Axes restored to original set *****
 -------------------------------------------------------------------
 Center     Atomic                   Forces (Hartrees/Bohr)
 Number     Number              X              Y              Z
 -------------------------------------------------------------------
      1        6           0.002400119    0.001068098   -0.000006116
      2        6           0.001078296   -0.000126806   -0.000000735
      3        6           0.003186301   -0.001404238    0.000009103
      4        6          -0.012610790   -0.004722605   -0.000005656
      5        6           0.009188318    0.000915390    0.000000213
      6        6          -0.002023363    0.002075942    0.000014158
      7        7           0.009389188    0.016851021    0.000012315
      8        6          -0.010345084    0.013526300   -0.000027667
      9        6          -0.005380539   -0.020851807    0.000008685
     10        1           0.002614044   -0.007148152   -0.000011850
     11        1           0.000952678   -0.000039606    0.000005226
     12        1           0.001479250    0.000900659    0.000006073
     13        1           0.000404922   -0.000910158    0.000000152
     14        1          -0.001109914    0.000087244   -0.000001827
     15        1           0.000489875    0.000139653   -0.000000585
     16        1           0.000286699   -0.000360936   -0.000001489
 -------------------------------------------------------------------
 Cartesian Forces:  Max     0.020851807 RMS     0.005563259

 GradGradGradGradGradGradGradGradGradGradGradGradGradGradGradGradGradGrad
 Berny optimization.
 Using GEDIIS/GDIIS optimizer.
 FormGI is forming the generalized inverse of G from B-inverse, IUseBI=4.
 Internal  Forces:  Max     0.011342806 RMS     0.002394216
 Search for a local minimum.
 Step number   2 out of a maximum of   94
 All quantities printed in internal units (Hartrees-Bohrs-Radians)
 Mixed Optimization -- RFO/linear search
 Update second derivatives using D2CorX and points    1    2
 DE= -6.89D-03 DEPred=-5.94D-03 R= 1.16D+00
 TightC=F SS=  1.41D+00  RLast= 1.58D-01 DXNew= 5.0454D-01 4.7448D-01
 Trust test= 1.16D+00 RLast= 1.58D-01 DXMaxT set to 4.74D-01
 ITU=  1  0
 Use linear search instead of GDIIS.
     Eigenvalues ---    0.01854   0.01932   0.01986   0.02011   0.02069
     Eigenvalues ---    0.02113   0.02148   0.02156   0.02172   0.02210
     Eigenvalues ---    0.02233   0.02248   0.02341   0.15894   0.16000
     Eigenvalues ---    0.16000   0.16000   0.16000   0.16000   0.16134
     Eigenvalues ---    0.21767   0.22134   0.22563   0.24442   0.24907
     Eigenvalues ---    0.34711   0.35713   0.35734   0.35798   0.35847
     Eigenvalues ---    0.36446   0.36814   0.37374   0.39900   0.42661
     Eigenvalues ---    0.44202   0.45852   0.46849   0.47464   0.47683
     Eigenvalues ---    0.49066   0.52125
 RFO step:  Lambda=-1.22497408D-03 EMin= 1.85428274D-02
 Quartic linear search produced a step of  0.19887.
 Iteration  1 RMS(Cart)=  0.00804439 RMS(Int)=  0.00003743
 Iteration  2 RMS(Cart)=  0.00004375 RMS(Int)=  0.00001614
 Iteration  3 RMS(Cart)=  0.00000000 RMS(Int)=  0.00001614
 Variable       Old X    -DE/DX   Delta X   Delta X   Delta X     New X
                                 (Linear)    (Quad)   (Total)
    R1        2.63627   0.00198  -0.00382   0.00693   0.00310   2.63937
    R2        2.63456  -0.00164   0.00431  -0.00639  -0.00209   2.63247
    R3        2.05260  -0.00037   0.00167  -0.00216  -0.00050   2.05211
    R4        2.66485  -0.00120   0.00980  -0.00853   0.00126   2.66611
    R5        2.05242   0.00012   0.00165  -0.00052   0.00113   2.05355
    R6        2.60490  -0.00318  -0.00573  -0.00501  -0.01074   2.59416
    R7        2.04888  -0.00012   0.00070  -0.00078  -0.00008   2.04880
    R8        2.66347   0.00430  -0.00340   0.01507   0.01173   2.67520
    R9        2.63561   0.00463   0.00683   0.00688   0.01371   2.64933
   R10        2.65043  -0.00015   0.00054  -0.00035   0.00021   2.65064
   R11        2.69398  -0.00538  -0.00286  -0.01308  -0.01593   2.67805
   R12        2.05343  -0.00037   0.00162  -0.00214  -0.00052   2.05291
   R13        2.51823  -0.01134  -0.01740  -0.01928  -0.03672   2.48150
   R14        1.94797   0.00761   0.01045   0.01369   0.02414   1.97211
   R15        2.64775   0.01078   0.01373   0.01746   0.03116   2.67892
   R16        2.04940   0.00030   0.00302  -0.00071   0.00231   2.05171
   R17        2.04490   0.00137   0.00211   0.00331   0.00541   2.05031
    A1        2.09827   0.00143  -0.00317   0.00926   0.00608   2.10435
    A2        2.08876  -0.00036   0.00177  -0.00211  -0.00034   2.08842
    A3        2.09616  -0.00107   0.00140  -0.00715  -0.00574   2.09041
    A4        2.12847   0.00096   0.00263   0.00257   0.00519   2.13365
    A5        2.07719   0.00054  -0.00129   0.00628   0.00500   2.08220
    A6        2.07753  -0.00150  -0.00135  -0.00885  -0.01019   2.06734
    A7        2.04532  -0.00230  -0.00122  -0.01172  -0.01293   2.03239
    A8        2.12354   0.00002   0.00216  -0.00360  -0.00144   2.12210
    A9        2.11432   0.00228  -0.00095   0.01532   0.01437   2.12870
   A10        2.12670   0.00252  -0.00143   0.01401   0.01258   2.13928
   A11        2.27183   0.00062  -0.00142   0.00296   0.00151   2.27334
   A12        1.88465  -0.00314   0.00284  -0.01698  -0.01409   1.87056
   A13        2.09823  -0.00100   0.00507  -0.00772  -0.00265   2.09558
   A14        1.84255   0.00289  -0.00450   0.01903   0.01458   1.85713
   A15        2.34241  -0.00189  -0.00057  -0.01131  -0.01193   2.33048
   A16        2.06939  -0.00160  -0.00189  -0.00640  -0.00827   2.06112
   A17        2.10673   0.00108   0.00073   0.00544   0.00616   2.11289
   A18        2.10707   0.00052   0.00116   0.00097   0.00211   2.10918
   A19        1.91721   0.00147   0.00195   0.00373   0.00565   1.92286
   A20        2.19712  -0.00056   0.00137  -0.00217  -0.00079   2.19633
   A21        2.16885  -0.00091  -0.00332  -0.00155  -0.00486   2.16399
   A22        1.88140  -0.00378   0.00233  -0.01951  -0.01719   1.86422
   A23        2.21439   0.00282  -0.00055   0.01621   0.01566   2.23005
   A24        2.18739   0.00097  -0.00178   0.00330   0.00153   2.18892
   A25        1.89896   0.00256  -0.00262   0.01373   0.01105   1.91001
   A26        2.10091  -0.00019  -0.00032   0.00238   0.00210   2.10301
   A27        2.28331  -0.00238   0.00294  -0.01611  -0.01314   2.27016
    D1        0.00001  -0.00000   0.00000  -0.00004  -0.00003  -0.00003
    D2       -3.14157  -0.00000  -0.00000  -0.00005  -0.00005   3.14157
    D3        3.14158   0.00000   0.00001  -0.00001   0.00000   3.14158
    D4        0.00000  -0.00000   0.00001  -0.00002  -0.00002  -0.00001
    D5       -0.00009   0.00000  -0.00001   0.00019   0.00018   0.00010
    D6       -3.14158  -0.00000   0.00001  -0.00007  -0.00005   3.14155
    D7        3.14153   0.00000  -0.00002   0.00017   0.00015  -3.14151
    D8        0.00003  -0.00000   0.00001  -0.00009  -0.00009  -0.00005
    D9        0.00009  -0.00000   0.00001  -0.00011  -0.00010  -0.00001
   D10       -3.14159   0.00000  -0.00001   0.00002   0.00001  -3.14157
   D11       -3.14152  -0.00000   0.00002  -0.00010  -0.00008   3.14158
   D12       -0.00001   0.00000  -0.00000   0.00004   0.00003   0.00002
   D13       -0.00010   0.00000  -0.00002   0.00009   0.00007  -0.00003
   D14       -3.14151   0.00000  -0.00001   0.00003   0.00001  -3.14150
   D15        3.14157  -0.00000   0.00000  -0.00004  -0.00004   3.14153
   D16        0.00016  -0.00000   0.00001  -0.00010  -0.00010   0.00006
   D17        0.00003   0.00000   0.00001   0.00007   0.00008   0.00011
   D18       -3.14154   0.00000  -0.00001   0.00010   0.00010  -3.14144
   D19        3.14147   0.00000   0.00001   0.00012   0.00013  -3.14158
   D20       -0.00010   0.00000  -0.00001   0.00016   0.00015   0.00005
   D21        3.14145   0.00000  -0.00010   0.00036   0.00026  -3.14147
   D22       -0.00088   0.00001   0.00005   0.00023   0.00028  -0.00060
   D23        0.00003   0.00000  -0.00009   0.00030   0.00021   0.00023
   D24        3.14087   0.00000   0.00005   0.00017   0.00023   3.14110
   D25        0.00007  -0.00000   0.00000  -0.00021  -0.00021  -0.00014
   D26        3.14157   0.00000  -0.00002   0.00005   0.00003  -3.14159
   D27       -3.14155  -0.00000   0.00003  -0.00026  -0.00023   3.14140
   D28       -0.00005   0.00000   0.00000  -0.00000   0.00000  -0.00005
   D29        0.00014  -0.00001   0.00011  -0.00054  -0.00043  -0.00029
   D30        3.14148   0.00000   0.00002   0.00009   0.00011   3.14158
   D31       -3.14143  -0.00001   0.00009  -0.00049  -0.00040   3.14135
   D32       -0.00009   0.00000  -0.00001   0.00013   0.00013   0.00004
   D33        0.00006  -0.00001   0.00017  -0.00065  -0.00048  -0.00042
   D34       -3.14158  -0.00000   0.00005  -0.00029  -0.00023   3.14137
   D35       -3.14080  -0.00001   0.00002  -0.00052  -0.00051  -3.14131
   D36        0.00074  -0.00001  -0.00009  -0.00016  -0.00025   0.00048
   D37       -0.00012   0.00001  -0.00017   0.00074   0.00057   0.00045
   D38        3.14153   0.00000  -0.00004   0.00033   0.00029  -3.14137
   D39       -3.14147  -0.00000  -0.00008   0.00013   0.00005  -3.14142
   D40        0.00018  -0.00000   0.00005  -0.00028  -0.00023  -0.00005
         Item               Value     Threshold  Converged?
 Maximum Force            0.011343     0.000450     NO 
 RMS     Force            0.002394     0.000300     NO 
 Maximum Displacement     0.024422     0.001800     NO 
 RMS     Displacement     0.008050     0.001200     NO 
 Predicted change in Energy=-8.362474D-04
 GradGradGradGradGradGradGradGradGradGradGradGradGradGradGradGradGradGrad

                          Input orientation:                          
 ---------------------------------------------------------------------
 Center     Atomic      Atomic             Coordinates (Angstroms)
 Number     Number       Type             X           Y           Z
 ---------------------------------------------------------------------
[...]
 ! D11   D(13,2,3,4)           180.0032         -DE/DX =    0.0                 !
 ! D12   D(13,2,3,14)           -0.0006         -DE/DX =    0.0                 !
 ! D13   D(2,3,4,5)             -0.0027         -DE/DX =    0.0                 !
 ! D14   D(2,3,4,7)            180.0006         -DE/DX =    0.0                 !
 ! D15   D(14,3,4,5)           180.0011         -DE/DX =    0.0                 !
 ! D16   D(14,3,4,7)             0.0044         -DE/DX =    0.0                 !
 ! D17   D(3,4,5,6)             -0.0036         -DE/DX =    0.0                 !
 ! D18   D(3,4,5,8)           -180.0053         -DE/DX =    0.0                 !
 ! D19   D(7,4,5,6)           -180.0063         -DE/DX =    0.0                 !
 ! D20   D(7,4,5,8)             -0.008          -DE/DX =    0.0                 !
 ! D21   D(3,4,7,9)           -180.0145         -DE/DX =    0.0                 !
 ! D22   D(3,4,7,10)            -0.0027         -DE/DX =    0.0                 !
 ! D23   D(5,4,7,9)             -0.0115         -DE/DX =    0.0                 !
 ! D24   D(5,4,7,10)           180.0003         -DE/DX =    0.0                 !
 ! D25   D(4,5,6,1)              0.0089         -DE/DX =    0.0                 !
 ! D26   D(4,5,6,16)          -180.0032         -DE/DX =    0.0                 !
 ! D27   D(8,5,6,1)            180.0111         -DE/DX =    0.0                 !
 ! D28   D(8,5,6,16)            -0.0009         -DE/DX =    0.0                 !
 ! D29   D(4,5,8,9)              0.023          -DE/DX =    0.0                 !
 ! D30   D(4,5,8,11)           179.999          -DE/DX =    0.0                 !
 ! D31   D(6,5,8,9)            180.021          -DE/DX =    0.0                 !
 ! D32   D(6,5,8,11)            -0.003          -DE/DX =    0.0                 !
 ! D33   D(4,7,9,8)              0.0264         -DE/DX =    0.0                 !
 ! D34   D(4,7,9,12)           180.0077         -DE/DX =    0.0                 !
 ! D35   D(10,7,9,8)           180.0148         -DE/DX =    0.0                 !
 ! D36   D(10,7,9,12)           -0.0038         -DE/DX =    0.0                 !
 ! D37   D(5,8,9,7)             -0.0309         -DE/DX =    0.0                 !
 ! D38   D(5,8,9,12)          -180.0101         -DE/DX =    0.0                 !
 ! D39   D(11,8,9,7)          -180.0079         -DE/DX =    0.0                 !
 ! D40   D(11,8,9,12)            0.0129         -DE/DX =    0.0                 !
 --------------------------------------------------------------------------------
 GradGradGradGradGradGradGradGradGradGradGradGradGradGradGradGradGradGrad

                          Input orientation:                          
 ---------------------------------------------------------------------
 Center     Atomic      Atomic             Coordinates (Angstroms)
 Number     Number       Type             X           Y           Z
 ---------------------------------------------------------------------
      1          6           0       -2.165697    0.701751   -0.000070
      2          6           0       -2.122084   -0.698557    0.000035
      3          6           0       -0.910365   -1.412564    0.000093
      4          6           0        0.243052   -0.664129    0.000125
      5          6           0        0.233171    0.753291    0.000045
      6          6           0       -0.993806    1.444611   -0.000151
      7          7           0        1.587180   -1.067111    0.000172
      8          6           0        1.583204    1.166165    0.000235
      9          6           0        2.375370   -0.015327   -0.000121
     10          1           0        1.930938   -2.055884    0.000230
     11          1           0        1.973517    2.177883    0.000225
     12          1           0        3.454560   -0.126259   -0.000262
     13          1           0       -3.054113   -1.256652    0.000061
     14          1           0       -0.892041   -2.495958    0.000172
     15          1           0       -3.127359    1.205937   -0.000089
     16          1           0       -1.018623    2.530248   -0.000163
 ---------------------------------------------------------------------
                    Distance matrix (angstroms):
                    1          2          3          4          5
     1  C    0.000000
     2  C    1.400987   0.000000
     3  C    2.458900   1.406439   0.000000
     4  C    2.769062   2.365387   1.374964   0.000000
     5  C    2.399422   2.766783   2.449205   1.417454   0.000000
     6  C    1.387504   2.422019   2.858393   2.444709   1.408331
     7  N    4.148851   3.727529   2.521323   1.403237   2.268745
     8  C    3.777557   4.148053   3.587161   2.268475   1.411755
     9  C    4.597336   4.549055   3.570480   2.228839   2.275916
    10  H    4.938316   4.274263   2.913222   2.187679   3.282358
    11  H    4.394548   5.004783   4.605223   3.327392   2.249058
    12  H    5.680923   5.605933   4.550511   3.256238   3.339304
    13  H    2.150495   1.086347   2.149411   3.349983   3.853066
    14  H    3.442026   2.177994   1.083549   2.155002   3.438564
    15  H    1.085816   2.153526   3.430978   3.854454   3.390877
    16  H    2.158513   3.412155   3.944298   3.434511   2.173606
                    6          7          8          9         10
     6  C    0.000000
     7  N    3.601422   0.000000
     8  C    2.592009   2.233279   0.000000
     9  C    3.671889   1.314341   1.422481   0.000000
    10  H    4.561534   1.046824   3.240758   2.088394   0.000000
    11  H    3.056582   3.267911   1.084398   2.229722   4.233981
    12  H    4.717583   2.091007   2.274276   1.084876   2.458633
    13  H    3.397306   4.645162   5.232089   5.569576   5.048713
    14  H    3.941883   2.861493   4.420178   4.102378   2.857074
    15  H    2.146861   5.233892   4.710730   5.636623   6.018790
    16  H    1.085921   4.441982   2.937724   4.242539   5.452752
                   11         12         13         14         15
    11  H    0.000000
    12  H    2.739080   0.000000
    13  H    6.088768   6.606104   0.000000
    14  H    5.482355   4.950597   2.492075   0.000000
    15  H    5.192650   6.715385   2.463679   4.324428   0.000000
    16  H    3.012816   5.202537   4.299283   5.027799   2.490094
                   16
    16  H    0.000000
 Stoichiometry    C8H7N
 Framework group  C1[X(C8H7N)]
 Deg. of freedom    42
 Full point group                 C1      NOp   1
 Largest Abelian subgroup         C1      NOp   1
 Largest concise Abelian subgroup C1      NOp   1
                         Standard orientation:                         
 ---------------------------------------------------------------------
 Center     Atomic      Atomic             Coordinates (Angstroms)
 Number     Number       Type             X           Y           Z
 ---------------------------------------------------------------------
      1          6           0       -2.179889    0.644647   -0.000111
      2          6           0       -2.101145   -0.754125   -0.000006
      3          6           0       -0.871887   -1.437496    0.000052
      4          6           0        0.262382   -0.660348    0.000085
      5          6           0        0.216930    0.756378    0.000004
      6          6           0       -1.027012    1.416684   -0.000191
      7          7           0        1.616201   -1.029468    0.000132
      8          6           0        1.556175    1.203004    0.000194
      9          6           0        2.377745    0.041766   -0.000162
     10          1           0        1.984666   -2.009302    0.000189
     11          1           0        1.920973    2.224200    0.000184
     12          1           0        3.459379   -0.042045   -0.000302
     13          1           0       -3.018873   -1.335437    0.000020
     14          1           0       -0.826378   -2.520089    0.000132
     15          1           0       -3.153902    1.124538   -0.000130
     16          1           0       -1.079068    2.501357   -0.000204
 ---------------------------------------------------------------------
 Rotational constants (GHZ):           3.8919439           1.6436719           1.1556219

 **********************************************************************

            Population analysis using the CI Density.

 **********************************************************************

 Orbital symmetries:
       Occupied  (A) (A) (A) (A) (A) (A) (A) (A) (A) (A) (A) (A)
                 (A) (A) (A) (A) (A) (A) (A) (A) (A) (A) (A) (A)
                 (A) (A) (A) (A) (A) (A) (A)
       Virtual   (A) (A) (A) (A) (A) (A) (A) (A) (A) (A) (A) (A)
                 (A) (A) (A) (A) (A) (A) (A) (A) (A) (A) (A) (A)
                 (A) (A) (A) (A) (A) (A) (A) (A) (A) (A) (A) (A)
                 (A) (A) (A) (A) (A) (A) (A) (A) (A) (A) (A) (A)
                 (A) (A) (A) (A) (A) (A) (A) (A) (A) (A) (A) (A)
                 (A) (A) (A) (A) (A) (A) (A) (A) (A) (A) (A) (A)
                 (A) (A) (A) (A) (A) (A) (A) (A) (A) (A) (A) (A)
                 (A) (A) (A) (A) (A) (A) (A) (A) (A) (A) (A) (A)
                 (A) (A) (A) (A) (A) (A) (A) (A) (A) (A) (A) (A)
                 (A) (A) (A) (A) (A) (A) (A) (A) (A) (A) (A) (A)
                 (A) (A) (A) (A) (A) (A) (A) (A) (A) (A) (A) (A)
                 (A) (A) (A) (A) (A) (A) (A) (A) (A) (A) (A) (A)
                 (A) (A) (A) (A) (A) (A) (A) (A) (A) (A)
 The electronic state is 1-A.
 Alpha  occ. eigenvalues --  -14.47130 -10.31127 -10.30504 -10.27864 -10.27159
 Alpha  occ. eigenvalues --  -10.27122 -10.27092 -10.26788 -10.25923  -1.12558
 Alpha  occ. eigenvalues --   -0.97744  -0.90913  -0.87340  -0.83779  -0.74998
 Alpha  occ. eigenvalues --   -0.71536  -0.70158  -0.65903  -0.59446  -0.58550
 Alpha  occ. eigenvalues --   -0.55084  -0.54595  -0.54252  -0.50949  -0.49422
 Alpha  occ. eigenvalues --   -0.45700  -0.45042  -0.43912  -0.37795  -0.32145
 Alpha  occ. eigenvalues --   -0.28012
 Alpha virt. eigenvalues --    0.05632   0.06300   0.08359   0.08926   0.09852
 Alpha virt. eigenvalues --    0.10116   0.10525   0.12020   0.12395   0.12936
 Alpha virt. eigenvalues --    0.13010   0.13320   0.15334   0.15899   0.16806
 Alpha virt. eigenvalues --    0.16936   0.17824   0.19517   0.20452   0.20704
 Alpha virt. eigenvalues --    0.21897   0.22544   0.23188   0.23915   0.24158
 Alpha virt. eigenvalues --    0.25099   0.25679   0.25994   0.26463   0.27246
 Alpha virt. eigenvalues --    0.27850   0.28901   0.29092   0.29738   0.30555
 Alpha virt. eigenvalues --    0.30752   0.31247   0.31537   0.32398   0.33297
 Alpha virt. eigenvalues --    0.34571   0.34670   0.36472   0.37772   0.38385
 Alpha virt. eigenvalues --    0.39755   0.40628   0.42131   0.43927   0.45622
 Alpha virt. eigenvalues --    0.46761   0.49351   0.53664   0.54886   0.62135
 Alpha virt. eigenvalues --    0.68821   0.73099   0.77701   0.77927   0.80135
 Alpha virt. eigenvalues --    0.82673   0.82743   0.83847   0.83897   0.85310
 Alpha virt. eigenvalues --    0.86024   0.87509   0.88170   0.89811   0.90541
 Alpha virt. eigenvalues --    0.92518   0.96013   0.99622   1.00602   1.01880
 Alpha virt. eigenvalues --    1.04876   1.05356   1.06308   1.06761   1.09506
 Alpha virt. eigenvalues --    1.11296   1.13356   1.15182   1.15398   1.19804
 Alpha virt. eigenvalues --    1.22147   1.22873   1.28358   1.28836   1.31413
 Alpha virt. eigenvalues --    1.32960   1.34173   1.35949   1.42282   1.43779
 Alpha virt. eigenvalues --    1.45316   1.47394   1.52250   1.52442   1.55730
 Alpha virt. eigenvalues --    1.57440   1.57607   1.60319   1.61116   1.65401
 Alpha virt. eigenvalues --    1.69206   1.76154   1.88148   1.94725   1.99434
 Alpha virt. eigenvalues --    2.00459   2.02640   2.04998   2.09761   2.10733
 Alpha virt. eigenvalues --    2.11856   2.16974   2.20595   2.25986   2.27457
 Alpha virt. eigenvalues --    2.28577   2.29840   2.35261   2.36994   2.38690
 Alpha virt. eigenvalues --    2.41102   2.43215   2.49085   2.52831   2.56883
 Alpha virt. eigenvalues --    2.64087   2.67567   2.74944   2.75879   2.78055
 Alpha virt. eigenvalues --    2.80515   2.84852   2.92089   2.95385   2.96756
 Alpha virt. eigenvalues --    3.06429   3.09359   3.21364   3.35938   3.55704
 Alpha virt. eigenvalues --    4.27379   4.37891   4.41308   4.43690   4.48154
 Alpha virt. eigenvalues --    4.52185   4.60181   4.64344   4.90940
          Condensed to atoms (all electrons):
               1          2          3          4          5          6
     1  C   14.913070   3.721172  -0.284817  -9.181096  -3.863095  -8.160758
     2  C    3.721172  16.437962   6.584134 -18.352874   7.837931 -15.890127
     3  C   -0.284817   6.584134  21.272335 -20.222165   8.967460 -15.017956
     4  C   -9.181096 -18.352874 -20.222165  73.765784 -23.764680  28.478413
     5  C   -3.863095   7.837931   8.967460 -23.764680  52.971563 -18.449333
     6  C   -8.160758 -15.890127 -15.017956  28.478413 -18.449333  43.880747
     7  N   -0.309171  -0.671223  -2.139405   4.588600  -2.283011   1.027419
     8  C   14.384925  11.029495  12.413506 -53.074469 -29.797646 -14.258457
     9  C   -5.223146  -4.265705  -5.174546  23.314217  13.146687   3.938659
    10  H   -0.003850  -0.003535  -0.033979  -0.035348   0.508588   0.016868
    11  H    0.001630  -0.002024   0.008886   0.050215  -0.019194  -0.047620
    12  H    0.000996   0.002286  -0.014129  -0.007207   0.050340   0.005156
    13  H    0.053600   0.211592  -0.080339   0.120391  -0.070945   0.087366
    14  H    0.039737   0.030689   0.244953   0.022784  -0.065661   0.032522
    15  H    0.306208   0.054734   0.023884  -0.036639   0.044017  -0.083110
    16  H   -0.103934  -0.065253  -0.036883   0.187242   0.126216   0.350853
               7          8          9         10         11         12
     1  C   -0.309171  14.384925  -5.223146  -0.003850   0.001630   0.000996
     2  C   -0.671223  11.029495  -4.265705  -0.003535  -0.002024   0.002286
     3  C   -2.139405  12.413506  -5.174546  -0.033979   0.008886  -0.014129
     4  C    4.588600 -53.074469  23.314217  -0.035348   0.050215  -0.007207
     5  C   -2.283011 -29.797646  13.146687   0.508588  -0.019194   0.050340
     6  C    1.027419 -14.258457   3.938659   0.016868  -0.047620   0.005156
     7  N   13.978825 -17.915035  10.760384  -0.705179   0.008326  -0.059567
     8  C  -17.915035 164.903650 -78.955097   1.256924   0.354658   0.020112
     9  C   10.760384 -78.955097  46.822148  -0.806746  -0.036069   0.336101
    10  H   -0.705179   1.256924  -0.806746   0.422699  -0.000049   0.000750
    11  H    0.008326   0.354658  -0.036069  -0.000049   0.408746  -0.000335
    12  H   -0.059567   0.020112   0.336101   0.000750  -0.000335   0.374203
    13  H    0.002385  -0.018113   0.008413  -0.000015   0.000000  -0.000000
    14  H    0.027351  -0.052748   0.035461  -0.000874   0.000001   0.000002
    15  H    0.000030   0.014977  -0.003243   0.000000  -0.000001  -0.000000
    16  H    0.001098  -0.215549   0.058331  -0.000003   0.001021  -0.000002
              13         14         15         16
     1  C    0.053600   0.039737   0.306208  -0.103934
     2  C    0.211592   0.030689   0.054734  -0.065253
     3  C   -0.080339   0.244953   0.023884  -0.036883
     4  C    0.120391   0.022784  -0.036639   0.187242
     5  C   -0.070945  -0.065661   0.044017   0.126216
     6  C    0.087366   0.032522  -0.083110   0.350853
     7  N    0.002385   0.027351   0.000030   0.001098
     8  C   -0.018113  -0.052748   0.014977  -0.215549
     9  C    0.008413   0.035461  -0.003243   0.058331
    10  H   -0.000015  -0.000874   0.000000  -0.000003
    11  H    0.000000   0.000001  -0.000001   0.001021
    12  H   -0.000000   0.000002  -0.000000  -0.000002
    13  H    0.455816  -0.002094  -0.002906  -0.000086
    14  H   -0.002094   0.414149  -0.000083   0.000011
    15  H   -0.002906  -0.000083   0.458607  -0.002539
    16  H   -0.000086   0.000011  -0.002539   0.457604
 Mulliken charges:
               1
     1  C   -0.291472
     2  C   -0.659254
     3  C   -0.510941
     4  C    0.146831
     5  C    0.660764
     6  C    0.089359
     7  N    0.688173
     8  C   -4.091134
     9  C    2.044150
    10  H    0.383746
    11  H    0.271809
    12  H    0.291293
    13  H    0.234936
    14  H    0.273800
    15  H    0.226064
    16  H    0.241873
 Sum of Mulliken charges =  -0.00000
 Mulliken charges with hydrogens summed into heavy atoms:
               1
     1  C   -0.065408
     2  C   -0.424318
     3  C   -0.237140
     4  C    0.146831
     5  C    0.660764
     6  C    0.331232
     7  N    1.071920
     8  C   -3.819325
     9  C    2.335444
 Electronic spatial extent (au):  <R**2>=           1037.2806
 Charge=              0.0000 electrons
 Dipole moment (field-independent basis, Debye):
    X=             -5.4928    Y=              4.8069    Z=             -0.0007  Tot=              7.2991
 Quadrupole moment (field-independent basis, Debye-Ang):
   XX=            -61.9994   YY=            -60.1690   ZZ=            -67.5217
   XY=             12.5859   XZ=              0.0003   YZ=             -0.0008
 Traceless Quadrupole moment (field-independent basis, Debye-Ang):
   XX=              1.2307   YY=              3.0610   ZZ=             -4.2917
   XY=             12.5859   XZ=              0.0003   YZ=             -0.0008
 Octapole moment (field-independent basis, Debye-Ang**2):
  XXX=           -105.7106  YYY=             53.6211  ZZZ=             -0.0048  XYY=            -40.8522
  XXY=             39.4491  XXZ=              0.0034  XZZ=            -20.9721  YZZ=             15.3365
  YYZ=             -0.0041  XYZ=             -0.0030
 Hexadecapole moment (field-independent basis, Debye-Ang**3):
 XXXX=          -1277.9847 YYYY=           -616.2691 ZZZZ=           -153.4425 XXXY=            162.2949
 XXXZ=              0.0129 YYYX=            107.3896 YYYZ=              0.0094 ZZZX=             -0.0078
 ZZZY=              0.0083 XXYY=           -326.7146 XXZZ=           -255.6588 YYZZ=           -145.3631
 XXYZ=             -0.0145 YYXZ=              0.0041 ZZXY=             31.3842
 N-N= 4.009097451813D+02 E-N=-1.640463366751D+03  KE= 3.601809154288D+02
 Unable to Open any file for archive entry.
 1\1\GINC-EXP-4-05\FOpt\RwB97X TD-FC\6-31+G(d)\C8H7N1\SCAPARAS\16-Jun-2
 021\0\\# td= (nstates=6, root=3) WB97X/6-31+G* Opt density=current\\Fu
 ncsWB97X-V-3rd\\0,1\C,-2.1656972708,0.7017514128,-0.0000701819\C,-2.12
 20841675,-0.6985566348,0.0000345494\C,-0.910364944,-1.4125639912,0.000
 0929252\C,0.2430522163,-0.6641285222,0.0001253134\C,0.2331711611,0.753
 2914379,0.0000449497\C,-0.9938062928,1.4446107483,-0.000150649\N,1.587
 1803166,-1.0671110578,0.0001722408\C,1.5832037305,1.1661645924,0.00023
 46162\C,2.3753702634,-0.0153273516,-0.0001210348\H,1.930937594,-2.0558
 837308,0.0002298778\H,1.9735166,2.1778831491,0.0002246468\H,3.45455967
 87,-0.1262586382,-0.0002617133\H,-3.0541134264,-1.2566523202,0.0000605
 172\H,-0.8920408632,-2.4959580279,0.0001723135\H,-3.1273588409,1.20593
 72313,-0.0000894173\H,-1.018622755,2.5302477029,-0.0001629538\\Version
 =AS64L-G16RevC.01\State=1-A\HF=-363.7202882\RMSD=4.846e-09\RMSF=1.002e
 -04\Dipole=-2.1610409,1.8911741,-0.0002787\Quadrupole=0.9149661,2.2757
 919,-3.190758,9.3572868,0.000239,-0.0005978\PG=C01 [X(C8H7N1)]\\@
 The archive entry for this job was punched.


 YE HAVE SOWN MUCH, AND BRING IN LITTLE.
 YE EAT, BUT YE HAVE NOT ENOUGH.
 YE DRINK, BUT YE ARE NOT FILLED WITH DRINK.
 YE CLOTHE YOU, BUT THERE IS NONE WARM.
 AND HE THAT EARNETH WAGES EARNETH WAGES TO PUT
 IT INTO A BAG WITH HOLES.
                                     HAGGAI I,6
 Job cpu time:       0 days  2 hours 45 minutes 18.3 seconds.
 Elapsed time:       0 days  0 hours 42 minutes  4.9 seconds.
 File lengths (MBytes):  RWF=    238 Int=      0 D2E=      0 Chk=     11 Scr=      1
 Normal termination of Gaussian 16 at Wed Jun 16 08:03:49 2021.
