 Entering Gaussian System, Link 0=/cm/shared/apps/spack/cpu/opt/spack/linux-centos8-zen/gcc-8.3.1/gaussian-16.C.01-po5bqktfeugvmjyga3v7eigbecnokxng/g16/g16
 Initial command:
 /cm/shared/apps/spack/cpu/opt/spack/linux-centos8-zen/gcc-8.3.1/gaussian-16.C.01-po5bqktfeugvmjyga3v7eigbecnokxng/g16/l1.exe "/scratch/cwaldt/job_3576972/Gau-21368.inp" -scrdir="/scratch/cwaldt/job_3576972/"
 Entering Link 1 = /cm/shared/apps/spack/cpu/opt/spack/linux-centos8-zen/gcc-8.3.1/gaussian-16.C.01-po5bqktfeugvmjyga3v7eigbecnokxng/g16/l1.exe PID=     21369.
  
 Copyright (c) 1988-2019, Gaussian, Inc.  All Rights Reserved.
  
 This is part of the Gaussian(R) 16 program.  It is based on
 the Gaussian(R) 09 system (copyright 2009, Gaussian, Inc.),
 the Gaussian(R) 03 system (copyright 2003, Gaussian, Inc.),
 the Gaussian(R) 98 system (copyright 1998, Gaussian, Inc.),
 the Gaussian(R) 94 system (copyright 1995, Gaussian, Inc.),
 the Gaussian 92(TM) system (copyright 1992, Gaussian, Inc.),
 the Gaussian 90(TM) system (copyright 1990, Gaussian, Inc.),
 the Gaussian 88(TM) system (copyright 1988, Gaussian, Inc.),
 the Gaussian 86(TM) system (copyright 1986, Carnegie Mellon
 University), and the Gaussian 82(TM) system (copyright 1983,
 Carnegie Mellon University). Gaussian is a federally registered
 trademark of Gaussian, Inc.
  
 This software contains proprietary and confidential information,
 including trade secrets, belonging to Gaussian, Inc.
  
 This software is provided under written license and may be
 used, copied, transmitted, or stored only in accord with that
 written license.
  
 The following legend is applicable only to US Government
 contracts under FAR:
  
                    RESTRICTED RIGHTS LEGEND
  
 Use, reproduction and disclosure by the US Government is
 subject to restrictions as set forth in subparagraphs (a)
 and (c) of the Commercial Computer Software - Restricted
 Rights clause in FAR 52.227-19.
  
 Gaussian, Inc.
 340 Quinnipiac St., Bldg. 40, Wallingford CT 06492
  
  
 ---------------------------------------------------------------
 Warning -- This program may not be used in any manner that
 competes with the business of Gaussian, Inc. or will provide
 assistance to any competitor of Gaussian, Inc.  The licensee
 of this program is prohibited from giving any competitor of
 Gaussian, Inc. access to this program.  By using this program,
 the user acknowledges that Gaussian, Inc. is engaged in the
 business of creating and licensing software in the field of
 computational chemistry and represents and warrants to the
 licensee that it is not a competitor of Gaussian, Inc. and that
 it will not use this program in any manner prohibited above.
 ---------------------------------------------------------------
  

 Cite this work as:
 Gaussian 16, Revision C.01,
 M. J. Frisch, G. W. Trucks, H. B. Schlegel, G. E. Scuseria, 
 M. A. Robb, J. R. Cheeseman, G. Scalmani, V. Barone, 
 G. A. Petersson, H. Nakatsuji, X. Li, M. Caricato, A. V. Marenich, 
 J. Bloino, B. G. Janesko, R. Gomperts, B. Mennucci, H. P. Hratchian, 
 J. V. Ortiz, A. F. Izmaylov, J. L. Sonnenberg, D. Williams-Young, 
 F. Ding, F. Lipparini, F. Egidi, J. Goings, B. Peng, A. Petrone, 
 T. Henderson, D. Ranasinghe, V. G. Zakrzewski, J. Gao, N. Rega, 
 G. Zheng, W. Liang, M. Hada, M. Ehara, K. Toyota, R. Fukuda, 
 J. Hasegawa, M. Ishida, T. Nakajima, Y. Honda, O. Kitao, H. Nakai, 
 T. Vreven, K. Throssell, J. A. Montgomery, Jr., J. E. Peralta, 
 F. Ogliaro, M. J. Bearpark, J. J. Heyd, E. N. Brothers, K. N. Kudin, 
 V. N. Staroverov, T. A. Keith, R. Kobayashi, J. Normand, 
 K. Raghavachari, A. P. Rendell, J. C. Burant, S. S. Iyengar, 
 J. Tomasi, M. Cossi, J. M. Millam, M. Klene, C. Adamo, R. Cammi, 
 J. W. Ochterski, R. L. Martin, K. Morokuma, O. Farkas, 
 J. B. Foresman, and D. J. Fox, Gaussian, Inc., Wallingford CT, 2019.
 
 ******************************************
 Gaussian 16:  AS64L-G16RevC.01  3-Jul-2019
                23-Jun-2021 
 ******************************************
 %nprocshared=4
 Will use up to    4 processors via shared memory.
 %chk=FuncsBMK-V-1st.chk
 %Mem=3GB
 ---------------------------------------------------------
 # td= (nstates=6, root=1) BMK/6-31+G* Opt density=current
 ---------------------------------------------------------
 1/18=20,19=15,26=3,38=1/1,3;
 2/9=110,12=2,17=6,18=5,40=1/2;
 3/5=1,6=6,7=11,11=9,25=1,30=1,71=1,74=-34/1,2,3,8;
 4//1;
 5/5=2,38=5/2;
 8/6=1,10=2,107=1,108=6/1;
 9/8=1,15=2,41=6,42=1,70=2/14;
 10/5=4,28=1/2;
 6/7=2,8=2,9=2,10=2,22=-1/1;
 7/12=6,13=5,14=1/1,2,3,16;
 1/18=20,19=15,26=3/3(2);
 2/9=110/2;
 99//99;
 2/9=110/2;
 3/5=1,6=6,7=11,11=9,25=1,30=1,71=1,74=-34/1,2,3,8;
 4/5=5,16=3,69=1/1;
 5/5=2,38=5/2;
 8/6=1,10=2,107=1,108=6/1;
 9/8=1,15=2,41=6,42=1,49=4,70=2/14;
 10/5=4,28=1/2;
 7/12=6,13=5,14=1/1,2,3,16;
 1/18=20,19=15,26=3/3(-8);
 2/9=110/2;
 6/7=2,8=2,9=2,10=2,22=-1/1;
 99/9=10/99;
 --------------
 FuncsBMK-V-1st
 --------------
 Symbolic Z-matrix:
 Charge =  0 Multiplicity = 1
 C                    -2.15106   0.68921   0.00009 
 C                    -2.12793  -0.71582   0.00008 
 C                    -0.9323   -1.4131   -0.00001 
 C                     0.24691  -0.6702   -0.00004 
 C                     0.24819   0.7483    0. 
 C                    -0.97947   1.42353   0.00003 
 N                     1.56177  -1.07759  -0.00029 
 C                     1.62013   1.1629   -0.00016 
 C                     2.38201   0.03081   0.00025 
 H                     1.87632  -2.03001   0.00044 
 H                     1.99217   2.17301  -0.00035 
 H                     3.45255  -0.08243   0.00041 
 H                    -3.06159  -1.26202   0.00009 
 H                    -0.91725  -2.49534  -0.00007 
 H                    -3.1042    1.20079   0.00009 
 H                    -1.00935   2.50542  -0.00002 
 

 GradGradGradGradGradGradGradGradGradGradGradGradGradGradGradGradGradGrad
 Berny optimization.
 Initialization pass.
                           ----------------------------
                           !    Initial Parameters    !
                           ! (Angstroms and Degrees)  !
 --------------------------                            --------------------------
 ! Name  Definition              Value          Derivative Info.                !
 --------------------------------------------------------------------------------
 ! R1    R(1,2)                  1.4052         estimate D2E/DX2                !
 ! R2    R(1,6)                  1.3827         estimate D2E/DX2                !
 ! R3    R(1,15)                 1.0818         estimate D2E/DX2                !
 ! R4    R(2,3)                  1.3841         estimate D2E/DX2                !
 ! R5    R(2,13)                 1.0817         estimate D2E/DX2                !
 ! R6    R(3,4)                  1.3937         estimate D2E/DX2                !
 ! R7    R(3,14)                 1.0823         estimate D2E/DX2                !
 ! R8    R(4,5)                  1.4185         estimate D2E/DX2                !
 ! R9    R(4,7)                  1.3765         estimate D2E/DX2                !
 ! R10   R(5,6)                  1.4011         estimate D2E/DX2                !
 ! R11   R(5,8)                  1.4332         estimate D2E/DX2                !
 ! R12   R(6,16)                 1.0823         estimate D2E/DX2                !
 ! R13   R(7,9)                  1.3789         estimate D2E/DX2                !
 ! R14   R(7,10)                 1.003          estimate D2E/DX2                !
 ! R15   R(8,9)                  1.3646         estimate D2E/DX2                !
 ! R16   R(8,11)                 1.0764         estimate D2E/DX2                !
 ! R17   R(9,12)                 1.0765         estimate D2E/DX2                !
 ! A1    A(2,1,6)              121.1349         estimate D2E/DX2                !
 ! A2    A(2,1,15)             119.1671         estimate D2E/DX2                !
 ! A3    A(6,1,15)             119.698          estimate D2E/DX2                !
 ! A4    A(1,2,3)              121.1938         estimate D2E/DX2                !
 ! A5    A(1,2,13)             119.3846         estimate D2E/DX2                !
 ! A6    A(3,2,13)             119.4217         estimate D2E/DX2                !
 ! A7    A(2,3,4)              117.5387         estimate D2E/DX2                !
 ! A8    A(2,3,14)             121.0469         estimate D2E/DX2                !
 ! A9    A(4,3,14)             121.4144         estimate D2E/DX2                !
 ! A10   A(3,4,5)              122.2626         estimate D2E/DX2                !
 ! A11   A(3,4,7)              130.5743         estimate D2E/DX2                !
 ! A12   A(5,4,7)              107.163          estimate D2E/DX2                !
 ! A13   A(4,5,6)              118.7594         estimate D2E/DX2                !
 ! A14   A(4,5,8)              106.8666         estimate D2E/DX2                !
 ! A15   A(6,5,8)              134.374          estimate D2E/DX2                !
 ! A16   A(1,6,5)              119.1105         estimate D2E/DX2                !
 ! A17   A(1,6,16)             120.4966         estimate D2E/DX2                !
 ! A18   A(5,6,16)             120.3928         estimate D2E/DX2                !
 ! A19   A(4,7,9)              109.2874         estimate D2E/DX2                !
 ! A20   A(4,7,10)             125.4909         estimate D2E/DX2                !
 ! A21   A(9,7,10)             125.2217         estimate D2E/DX2                !
 ! A22   A(5,8,9)              107.125          estimate D2E/DX2                !
 ! A23   A(5,8,11)             127.0344         estimate D2E/DX2                !
 ! A24   A(9,8,11)             125.8405         estimate D2E/DX2                !
 ! A25   A(7,9,8)              109.5578         estimate D2E/DX2                !
 ! A26   A(7,9,12)             120.4645         estimate D2E/DX2                !
 ! A27   A(8,9,12)             129.9776         estimate D2E/DX2                !
 ! D1    D(6,1,2,3)             -0.0008         estimate D2E/DX2                !
 ! D2    D(6,1,2,13)          -179.9981         estimate D2E/DX2                !
 ! D3    D(15,1,2,3)           179.996          estimate D2E/DX2                !
 ! D4    D(15,1,2,13)           -0.0013         estimate D2E/DX2                !
 ! D5    D(2,1,6,5)             -0.0018         estimate D2E/DX2                !
 ! D6    D(2,1,6,16)           179.9965         estimate D2E/DX2                !
 ! D7    D(15,1,6,5)          -179.9986         estimate D2E/DX2                !
 ! D8    D(15,1,6,16)           -0.0003         estimate D2E/DX2                !
 ! D9    D(1,2,3,4)              0.002          estimate D2E/DX2                !
 ! D10   D(1,2,3,14)          -179.9968         estimate D2E/DX2                !
 ! D11   D(13,2,3,4)           179.9992         estimate D2E/DX2                !
 ! D12   D(13,2,3,14)            0.0005         estimate D2E/DX2                !
 ! D13   D(2,3,4,5)             -0.0005         estimate D2E/DX2                !
 ! D14   D(2,3,4,7)           -179.9911         estimate D2E/DX2                !
 ! D15   D(14,3,4,5)           179.9982         estimate D2E/DX2                !
 ! D16   D(14,3,4,7)             0.0076         estimate D2E/DX2                !
 ! D17   D(3,4,5,6)             -0.002          estimate D2E/DX2                !
 ! D18   D(3,4,5,8)           -179.9955         estimate D2E/DX2                !
 ! D19   D(7,4,5,6)            179.9905         estimate D2E/DX2                !
 ! D20   D(7,4,5,8)             -0.003          estimate D2E/DX2                !
 ! D21   D(3,4,7,9)           -179.98           estimate D2E/DX2                !
 ! D22   D(3,4,7,10)            -0.0649         estimate D2E/DX2                !
 ! D23   D(5,4,7,9)              0.0284         estimate D2E/DX2                !
 ! D24   D(5,4,7,10)           179.9434         estimate D2E/DX2                !
 ! D25   D(4,5,6,1)              0.0031         estimate D2E/DX2                !
 ! D26   D(4,5,6,16)          -179.9951         estimate D2E/DX2                !
 ! D27   D(8,5,6,1)            179.9944         estimate D2E/DX2                !
 ! D28   D(8,5,6,16)            -0.0038         estimate D2E/DX2                !
 ! D29   D(4,5,8,9)             -0.0234         estimate D2E/DX2                !
 ! D30   D(4,5,8,11)           179.9883         estimate D2E/DX2                !
 ! D31   D(6,5,8,9)            179.9846         estimate D2E/DX2                !
 ! D32   D(6,5,8,11)            -0.0037         estimate D2E/DX2                !
 ! D33   D(4,7,9,8)             -0.0444         estimate D2E/DX2                !
 ! D34   D(4,7,9,12)           179.9847         estimate D2E/DX2                !
 ! D35   D(10,7,9,8)          -179.9597         estimate D2E/DX2                !
 ! D36   D(10,7,9,12)            0.0693         estimate D2E/DX2                !
 ! D37   D(5,8,9,7)              0.0414         estimate D2E/DX2                !
 ! D38   D(5,8,9,12)          -179.9913         estimate D2E/DX2                !
 ! D39   D(11,8,9,7)          -179.9702         estimate D2E/DX2                !
 ! D40   D(11,8,9,12)           -0.0029         estimate D2E/DX2                !
 --------------------------------------------------------------------------------
 Trust Radius=3.00D-01 FncErr=1.00D-07 GrdErr=1.00D-06 EigMax=2.50D+02 EigMin=1.00D-04
 Number of steps in this run=     94 maximum allowed number of steps=    100.
 GradGradGradGradGradGradGradGradGradGradGradGradGradGradGradGradGradGrad

                          Input orientation:                          
 ---------------------------------------------------------------------
 Center     Atomic      Atomic             Coordinates (Angstroms)
 Number     Number       Type             X           Y           Z
 ---------------------------------------------------------------------
      1          6           0       -2.151063    0.689208    0.000088
      2          6           0       -2.127927   -0.715818    0.000075
      3          6           0       -0.932297   -1.413100   -0.000011
      4          6           0        0.246911   -0.670201   -0.000042
      5          6           0        0.248193    0.748299    0.000000
      6          6           0       -0.979474    1.423526    0.000032
      7          7           0        1.561774   -1.077592   -0.000285
      8          6           0        1.620133    1.162900   -0.000157
      9          6           0        2.382013    0.030806    0.000248
     10          1           0        1.876315   -2.030011    0.000438
     11          1           0        1.992173    2.173010   -0.000348
     12          1           0        3.452549   -0.082425    0.000408
     13          1           0       -3.061594   -1.262020    0.000088
     14          1           0       -0.917252   -2.495342   -0.000073
     15          1           0       -3.104203    1.200785    0.000090
     16          1           0       -1.009348    2.505421   -0.000015
 ---------------------------------------------------------------------
                    Distance matrix (angstroms):
                    1          2          3          4          5
     1  C    0.000000
     2  C    1.405216   0.000000
     3  C    2.430039   1.384100   0.000000
     4  C    2.756496   2.375276   1.393711   0.000000
     5  C    2.399984   2.790983   2.462763   1.418501   0.000000
     6  C    1.382694   2.428114   2.837018   2.426461   1.401106
     7  N    4.111781   3.707395   2.516536   1.376529   2.249305
     8  C    3.800829   4.192557   3.626386   2.290414   1.433218
     9  C    4.580641   4.571324   3.615178   2.247236   2.251218
    10  H    4.859416   4.214387   2.875566   2.122273   3.220216
    11  H    4.400917   5.031953   4.627387   3.336134   2.251948
    12  H    5.656491   5.616307   4.582311   3.259079   3.310287
    13  H    2.153220   1.081698   2.134650   3.361020   3.872476
    14  H    3.415208   2.152310   1.082347   2.164813   3.446661
    15  H    1.081752   2.150926   3.398466   3.838040   3.382795
    16  H    2.145261   3.409927   3.919278   3.415079   2.160761
                    6          7          8          9         10
     6  C    0.000000
     7  N    3.565604   0.000000
     8  C    2.612639   2.241252   0.000000
     9  C    3.638580   1.378890   1.364587   0.000000
    10  H    4.481345   1.003015   3.203172   2.121956   0.000000
    11  H    3.064704   3.278972   1.076446   2.177387   4.204618
    12  H    4.680888   2.136677   2.215532   1.076508   2.505515
    13  H    3.398144   4.627045   5.272457   5.595021   4.997275
    14  H    3.919362   2.855798   4.452085   4.155307   2.832058
    15  H    2.136372   5.192528   4.724488   5.609583   5.936632
    16  H    1.082307   4.410062   2.952378   4.198220   5.375611
                   11         12         13         14         15
    11  H    0.000000
    12  H    2.686947   0.000000
    13  H    6.110646   6.620083   0.000000
    14  H    5.500751   4.991726   2.473719   0.000000
    15  H    5.188282   6.681139   2.463174   4.294661   0.000000
    16  H    3.019872   5.158049   4.290143   5.001611   2.467892
                   16
    16  H    0.000000
 Stoichiometry    C8H7N
 Framework group  C1[X(C8H7N)]
 Deg. of freedom    42
 Full point group                 C1      NOp   1
 Largest Abelian subgroup         C1      NOp   1
 Largest concise Abelian subgroup C1      NOp   1
                         Standard orientation:                         
 ---------------------------------------------------------------------
 Center     Atomic      Atomic             Coordinates (Angstroms)
 Number     Number       Type             X           Y           Z
 ---------------------------------------------------------------------
      1          6           0       -2.151063    0.689208    0.000088
      2          6           0       -2.127927   -0.715818    0.000075
      3          6           0       -0.932297   -1.413100   -0.000011
      4          6           0        0.246911   -0.670201   -0.000042
      5          6           0        0.248193    0.748299    0.000000
      6          6           0       -0.979474    1.423526    0.000032
      7          7           0        1.561774   -1.077592   -0.000285
      8          6           0        1.620133    1.162900   -0.000157
      9          6           0        2.382013    0.030806    0.000248
     10          1           0        1.876315   -2.030011    0.000438
     11          1           0        1.992173    2.173010   -0.000348
     12          1           0        3.452549   -0.082425    0.000408
     13          1           0       -3.061594   -1.262020    0.000088
     14          1           0       -0.917252   -2.495342   -0.000073
     15          1           0       -3.104203    1.200785    0.000090
     16          1           0       -1.009348    2.505421   -0.000015
 ---------------------------------------------------------------------
 Rotational constants (GHZ):           3.9080822           1.6429452           1.1566805
 Standard basis: 6-31+G(d) (6D, 7F)
 There are   185 symmetry adapted cartesian basis functions of A   symmetry.
 There are   185 symmetry adapted basis functions of A   symmetry.
   185 basis functions,   316 primitive gaussians,   185 cartesian basis functions
    31 alpha electrons       31 beta electrons
       nuclear repulsion energy       401.3368668897 Hartrees.
 NAtoms=   16 NActive=   16 NUniq=   16 SFac= 1.00D+00 NAtFMM=   60 NAOKFM=F Big=F
 Integral buffers will be    131072 words long.
 Regular integral format.
 Two-electron integral symmetry is turned on.
 One-electron integrals computed using PRISM.
 NBasis=   185 RedAO= T EigKep=  1.26D-06  NBF=   185
 NBsUse=   185 1.00D-06 EigRej= -1.00D+00 NBFU=   185
 ExpMin= 4.38D-02 ExpMax= 4.17D+03 ExpMxC= 6.27D+02 IAcc=3 IRadAn=         5 AccDes= 0.00D+00
 Harris functional with IExCor= 1009 and IRadAn=       5 diagonalized for initial guess.
 HarFok:  IExCor= 1009 AccDes= 0.00D+00 IRadAn=         5 IDoV= 1 UseB2=F ITyADJ=14
 ICtDFT=  3500011 ScaDFX=  1.000000  1.000000  1.000000  1.000000
 FoFCou: FMM=F IPFlag=           0 FMFlag=      100000 FMFlg1=           0
         NFxFlg=           0 DoJE=T BraDBF=F KetDBF=T FulRan=T
         wScrn=  0.000000 ICntrl=       500 IOpCl=  0 I1Cent=   200000004 NGrid=           0
         NMat0=    1 NMatS0=      1 NMatT0=    0 NMatD0=    1 NMtDS0=    0 NMtDT0=    0
 Petite list used in FoFCou.
 Keep R1 ints in memory in canonical form, NReq=152074523.
 Requested convergence on RMS density matrix=1.00D-08 within 128 cycles.
 Requested convergence on MAX density matrix=1.00D-06.
 Requested convergence on             energy=1.00D-06.
 No special actions if energy rises.
 SCF Done:  E(RBMK) =  -363.584024432     A.U. after   14 cycles
            NFock= 14  Conv=0.99D-08     -V/T= 2.0095
 DoSCS=F DFT=T ScalE2(SS,OS)=  1.000000  1.000000
 ExpMin= 4.38D-02 ExpMax= 4.17D+03 ExpMxC= 6.27D+02 IAcc=3 IRadAn=         5 AccDes= 0.00D+00
 HarFok:  IExCor=  205 AccDes= 0.00D+00 IRadAn=         5 IDoV=-2 UseB2=F ITyADJ=14
 ICtDFT= 12500011 ScaDFX=  1.000000  1.000000  1.000000  1.000000
 Range of M.O.s used for correlation:    10   185
 NBasis=   185 NAE=    31 NBE=    31 NFC=     9 NFV=     0
 NROrb=    176 NOA=    22 NOB=    22 NVA=   154 NVB=   154

 **** Warning!!: The largest alpha MO coefficient is  0.18503602D+03

 Orbital symmetries:
       Occupied  (A) (A) (A) (A) (A) (A) (A) (A) (A) (A) (A) (A)
                 (A) (A) (A) (A) (A) (A) (A) (A) (A) (A) (A) (A)
                 (A) (A) (A) (A) (A) (A) (A)
       Virtual   (A) (A) (A) (A) (A) (A) (A) (A) (A) (A) (A) (A)
                 (A) (A) (A) (A) (A) (A) (A) (A) (A) (A) (A) (A)
                 (A) (A) (A) (A) (A) (A) (A) (A) (A) (A) (A) (A)
                 (A) (A) (A) (A) (A) (A) (A) (A) (A) (A) (A) (A)
                 (A) (A) (A) (A) (A) (A) (A) (A) (A) (A) (A) (A)
                 (A) (A) (A) (A) (A) (A) (A) (A) (A) (A) (A) (A)
                 (A) (A) (A) (A) (A) (A) (A) (A) (A) (A) (A) (A)
                 (A) (A) (A) (A) (A) (A) (A) (A) (A) (A) (A) (A)
                 (A) (A) (A) (A) (A) (A) (A) (A) (A) (A) (A) (A)
                 (A) (A) (A) (A) (A) (A) (A) (A) (A) (A) (A) (A)
                 (A) (A) (A) (A) (A) (A) (A) (A) (A) (A) (A) (A)
                 (A) (A) (A) (A) (A) (A) (A) (A) (A) (A) (A) (A)
                 (A) (A) (A) (A) (A) (A) (A) (A) (A) (A)
    24 initial guesses have been made.
 Convergence on wavefunction:    0.000001000000000
 Iteration     1 Dimension    24 NMult     0 NNew     24
 CISAX will form    24 AO SS matrices at one time.
 New state      1 was old state      2
 New state      2 was old state      1
 New state      6 was old state      7
 Iteration     2 Dimension    36 NMult    24 NNew     12
 New state      1 was old state      2
 New state      2 was old state      1
 Iteration     3 Dimension    48 NMult    36 NNew     12
 Iteration     4 Dimension    60 NMult    48 NNew     12
 Iteration     5 Dimension    72 NMult    60 NNew     12
 Iteration     6 Dimension    84 NMult    72 NNew     12
 Iteration     7 Dimension    96 NMult    84 NNew     12
 Iteration     8 Dimension   108 NMult    96 NNew     12
 No map to state      6
 Iteration     9 Dimension   120 NMult   108 NNew     12
 Iteration    10 Dimension   128 NMult   120 NNew      8
 Iteration    11 Dimension   130 NMult   128 NNew      2
 Iteration    12 Dimension   132 NMult   130 NNew      2
 Iteration    13 Dimension   134 NMult   132 NNew      2
 Iteration    14 Dimension   136 NMult   134 NNew      2
 Iteration    15 Dimension   138 NMult   136 NNew      2
 Iteration    16 Dimension   140 NMult   138 NNew      2
 ***********************************************************************
 Excited states from <AA,BB:AA,BB> singles matrix:
 ***********************************************************************
 
 Ground to excited state transition densities written to RWF  633
 Ground to excited state transition electric dipole moments (Au):
       state          X           Y           Z        Dip. S.      Osc.
         1        -0.4452      0.6927     -0.0001      0.6779      0.0849
         2        -0.7140      0.0174     -0.0001      0.5101      0.0649
         3         0.0004     -0.0003     -0.1247      0.0155      0.0022
         4        -0.0011     -0.0002     -0.1441      0.0208      0.0032
         5         0.0034      0.0008      0.0185      0.0004      0.0001
         6        -1.9257     -0.6145     -0.0011      4.0858      0.6410
 Ground to excited state transition velocity dipole moments (Au):
       state          X           Y           Z        Dip. S.      Osc.
         1         0.0748     -0.1382      0.0000      0.0247      0.0876
         2         0.1273     -0.0043      0.0000      0.0162      0.0567
         3        -0.0001      0.0001      0.0163      0.0003      0.0008
         4         0.0003      0.0000      0.0333      0.0011      0.0032
         5        -0.0008     -0.0002     -0.0037      0.0000      0.0000
         6         0.4394      0.1433      0.0003      0.2136      0.6050
 Ground to excited state transition magnetic dipole moments (Au):
       state          X           Y           Z
         1         0.0003     -0.0000      0.1715
         2        -0.0000     -0.0002     -0.0213
         3         0.1431     -0.0932      0.0001
         4         0.0971     -0.2959     -0.0002
         5         0.2614     -0.1528      0.0012
         6        -0.0016     -0.0040     -0.7438
 Ground to excited state transition velocity quadrupole moments (Au):
       state          XX          YY          ZZ          XY          XZ          YZ
         1         0.1939     -0.0964      0.0007      0.0230      0.0001      0.0001
         2         0.1175     -0.1503      0.0221     -0.0022      0.0001     -0.0000
         3        -0.0001      0.0001      0.0001      0.0000      0.0782      0.0632
         4         0.0000     -0.0000     -0.0000     -0.0001      0.2221      0.0400
         5        -0.0005      0.0002      0.0001      0.0009      0.1981      0.2559
         6         0.1249     -0.1305     -0.0302     -0.4954      0.0033     -0.0004
 <0|del|b> * <b|rxdel|0> + <0|del|b> * <b|delr+rdel|0>
 Rotatory Strengths (R) in cgs (10**-40 erg-esu-cm/Gauss)
       state          XX          YY          ZZ    R(velocity)    E-M Angle
         1         0.0292      0.0525      0.0104      0.0307       90.00
         2         0.0018     -0.0066      0.0040     -0.0003       90.00
         3        -0.0164     -0.0252     -0.0120     -0.0179       90.00
         4        -0.0436      0.0503      0.0195      0.0087       90.00
         5         0.0846     -0.5980     -0.0187     -0.1773       98.80
         6        -2.0475     -1.4399     -0.8990     -1.4621       90.24
 1/2[<0|r|b>*<b|rxdel|0> + (<0|rxdel|b>*<b|r|0>)*]
 Rotatory Strengths (R) in cgs (10**-40 erg-esu-cm/Gauss)
       state          XX          YY          ZZ     R(length)
         1         0.0854      0.0075      0.0114      0.0348
         2        -0.0026      0.0026     -0.0020     -0.0007
         3        -0.0454     -0.0173      0.0060     -0.0189
         4         0.0784     -0.0346     -0.0226      0.0070
         5        -0.6204      0.0837     -0.0163     -0.1843
         6        -2.1672     -1.7397     -0.5938     -1.5002
  1/2[<0|del|b>*<b|r|0> + (<0|r|b>*<b|del|0>)*] (Au)
       state          X           Y           Z        Dip. S.   Osc.(frdel)
         1        -0.0333     -0.0957     -0.0000      0.1290      0.0860
         2        -0.0909     -0.0001     -0.0000      0.0910      0.0607
         3        -0.0000     -0.0000     -0.0020      0.0020      0.0014
         4        -0.0000     -0.0000     -0.0048      0.0048      0.0032
         5        -0.0000     -0.0000     -0.0001      0.0001      0.0000
         6        -0.8461     -0.0880     -0.0000      0.9341      0.6227

 Excitation energies and oscillator strengths:
 
 Excited State   1:      Singlet-A      5.1121 eV  242.53 nm  f=0.0849  <S**2>=0.000
      30 -> 32        -0.24656
      30 -> 35         0.16073
      31 -> 32         0.62712
 This state for optimization and/or second-order correction.
 Total Energy, E(TD-HF/TD-DFT) =  -363.396157730    
 Copying the excited state density for this state as the 1-particle RhoCI density.
 
 Excited State   2:      Singlet-A      5.1968 eV  238.58 nm  f=0.0649  <S**2>=0.000
      30 -> 32         0.53626
      31 -> 32         0.25165
      31 -> 35        -0.36532
 
 Excited State   3:      Singlet-A      5.7189 eV  216.80 nm  f=0.0022  <S**2>=0.000
      31 -> 33         0.69320
 
 Excited State   4:      Singlet-A      6.2294 eV  199.03 nm  f=0.0032  <S**2>=0.000
      30 -> 33         0.63201
      31 -> 34         0.26630
 
 Excited State   5:      Singlet-A      6.3337 eV  195.75 nm  f=0.0001  <S**2>=0.000
      30 -> 33        -0.26598
      31 -> 34         0.63844
 
 Excited State   6:      Singlet-A      6.4038 eV  193.61 nm  f=0.6410  <S**2>=0.000
      30 -> 32         0.34658
      31 -> 35         0.57678
      31 -> 39         0.12591
 SavETr:  write IOETrn=   770 NScale= 10 NData=  16 NLR=1 NState=    6 LETran=     118.
          IDoAtm=1111111111111111
          Differentiating once with respect to electric field.
                with respect to dipole field.
          Differentiating once with respect to nuclear coordinates.
 Keep R1 ints in memory in canonical form, NReq=152086915.
          There are     1 degrees of freedom in the 1st order CPHF.  IDoFFX=0 NUNeed=     1.
 LinEq1:  Iter=  0 NonCon=     1 RMS=7.35D-03 Max=1.98D-01 NDo=     1
 AX will form     1 AO Fock derivatives at one time.
 LinEq1:  Iter=  1 NonCon=     1 RMS=2.89D-03 Max=6.04D-02 NDo=     1
 LinEq1:  Iter=  2 NonCon=     1 RMS=1.83D-03 Max=4.81D-02 NDo=     1
 LinEq1:  Iter=  3 NonCon=     1 RMS=7.64D-04 Max=2.10D-02 NDo=     1
 LinEq1:  Iter=  4 NonCon=     1 RMS=4.02D-04 Max=1.59D-02 NDo=     1
 LinEq1:  Iter=  5 NonCon=     1 RMS=2.33D-04 Max=8.70D-03 NDo=     1
 LinEq1:  Iter=  6 NonCon=     1 RMS=1.21D-04 Max=3.18D-03 NDo=     1
 LinEq1:  Iter=  7 NonCon=     1 RMS=5.17D-05 Max=1.14D-03 NDo=     1
 LinEq1:  Iter=  8 NonCon=     1 RMS=2.91D-05 Max=5.42D-04 NDo=     1
 LinEq1:  Iter=  9 NonCon=     1 RMS=1.44D-05 Max=2.53D-04 NDo=     1
 LinEq1:  Iter= 10 NonCon=     1 RMS=6.31D-06 Max=1.12D-04 NDo=     1
 LinEq1:  Iter= 11 NonCon=     1 RMS=2.20D-06 Max=2.90D-05 NDo=     1
 LinEq1:  Iter= 12 NonCon=     1 RMS=7.45D-07 Max=1.36D-05 NDo=     1
 LinEq1:  Iter= 13 NonCon=     1 RMS=4.10D-07 Max=7.12D-06 NDo=     1
 LinEq1:  Iter= 14 NonCon=     1 RMS=1.27D-07 Max=3.10D-06 NDo=     1
 LinEq1:  Iter= 15 NonCon=     1 RMS=6.78D-08 Max=2.02D-06 NDo=     1
 LinEq1:  Iter= 16 NonCon=     1 RMS=1.64D-08 Max=2.70D-07 NDo=     1
 LinEq1:  Iter= 17 NonCon=     1 RMS=3.85D-09 Max=6.39D-08 NDo=     1
 LinEq1:  Iter= 18 NonCon=     1 RMS=2.01D-09 Max=3.95D-08 NDo=     1
 LinEq1:  Iter= 19 NonCon=     1 RMS=7.37D-10 Max=8.94D-09 NDo=     1
 LinEq1:  Iter= 20 NonCon=     1 RMS=1.64D-10 Max=2.99D-09 NDo=     1
 LinEq1:  Iter= 21 NonCon=     0 RMS=2.75D-11 Max=3.58D-10 NDo=     1
 Linear equations converged to 1.000D-10 1.000D-09 after    21 iterations.
 End of Minotr F.D. properties file   721 does not exist.
 End of Minotr F.D. properties file   722 does not exist.
 End of Minotr F.D. properties file   788 does not exist.

 **********************************************************************

            Population analysis using the CI Density.

 **********************************************************************

 Orbital symmetries:
       Occupied  (A) (A) (A) (A) (A) (A) (A) (A) (A) (A) (A) (A)
                 (A) (A) (A) (A) (A) (A) (A) (A) (A) (A) (A) (A)
                 (A) (A) (A) (A) (A) (A) (A)
       Virtual   (A) (A) (A) (A) (A) (A) (A) (A) (A) (A) (A) (A)
                 (A) (A) (A) (A) (A) (A) (A) (A) (A) (A) (A) (A)
                 (A) (A) (A) (A) (A) (A) (A) (A) (A) (A) (A) (A)
                 (A) (A) (A) (A) (A) (A) (A) (A) (A) (A) (A) (A)
                 (A) (A) (A) (A) (A) (A) (A) (A) (A) (A) (A) (A)
                 (A) (A) (A) (A) (A) (A) (A) (A) (A) (A) (A) (A)
                 (A) (A) (A) (A) (A) (A) (A) (A) (A) (A) (A) (A)
                 (A) (A) (A) (A) (A) (A) (A) (A) (A) (A) (A) (A)
                 (A) (A) (A) (A) (A) (A) (A) (A) (A) (A) (A) (A)
                 (A) (A) (A) (A) (A) (A) (A) (A) (A) (A) (A) (A)
                 (A) (A) (A) (A) (A) (A) (A) (A) (A) (A) (A) (A)
                 (A) (A) (A) (A) (A) (A) (A) (A) (A) (A) (A) (A)
                 (A) (A) (A) (A) (A) (A) (A) (A) (A) (A)
 The electronic state is 1-A.
 Alpha  occ. eigenvalues --  -14.72320 -10.51980 -10.51638 -10.48393 -10.47834
 Alpha  occ. eigenvalues --  -10.47773 -10.47763 -10.47231 -10.47090  -1.06508
 Alpha  occ. eigenvalues --   -0.91471  -0.85401  -0.80354  -0.78424  -0.68504
 Alpha  occ. eigenvalues --   -0.65344  -0.63934  -0.59573  -0.53337  -0.52238
 Alpha  occ. eigenvalues --   -0.48366  -0.47726  -0.47471  -0.45666  -0.43587
 Alpha  occ. eigenvalues --   -0.39668  -0.37981  -0.37482  -0.31814  -0.25464
 Alpha  occ. eigenvalues --   -0.23689
 Alpha virt. eigenvalues --    0.01115   0.03124   0.04958   0.05020   0.05493
 Alpha virt. eigenvalues --    0.06663   0.07068   0.08054   0.09175   0.09489
 Alpha virt. eigenvalues --    0.09848   0.10164   0.12593   0.12882   0.13450
 Alpha virt. eigenvalues --    0.13720   0.14916   0.16539   0.17600   0.17762
 Alpha virt. eigenvalues --    0.18699   0.19396   0.19994   0.20364   0.20451
 Alpha virt. eigenvalues --    0.21170   0.22280   0.22936   0.23024   0.23240
 Alpha virt. eigenvalues --    0.23861   0.24493   0.25287   0.26041   0.26643
 Alpha virt. eigenvalues --    0.27264   0.27487   0.27778   0.28866   0.29443
 Alpha virt. eigenvalues --    0.30229   0.30741   0.31911   0.33666   0.34490
 Alpha virt. eigenvalues --    0.35408   0.36030   0.37532   0.39752   0.41136
 Alpha virt. eigenvalues --    0.42347   0.44542   0.48783   0.49949   0.56838
 Alpha virt. eigenvalues --    0.63404   0.68057   0.72718   0.72762   0.75250
 Alpha virt. eigenvalues --    0.76901   0.77553   0.78714   0.79054   0.79495
 Alpha virt. eigenvalues --    0.80743   0.80857   0.83262   0.84756   0.85422
 Alpha virt. eigenvalues --    0.87252   0.91178   0.95191   0.97093   0.98018
 Alpha virt. eigenvalues --    1.00610   1.01452   1.02121   1.03609   1.04906
 Alpha virt. eigenvalues --    1.06228   1.09777   1.11910   1.14534   1.16433
 Alpha virt. eigenvalues --    1.18279   1.18845   1.23998   1.24680   1.27424
 Alpha virt. eigenvalues --    1.29699   1.31459   1.31965   1.38601   1.39598
 Alpha virt. eigenvalues --    1.41848   1.43814   1.48700   1.49335   1.52002
 Alpha virt. eigenvalues --    1.53978   1.54231   1.57670   1.58459   1.60777
 Alpha virt. eigenvalues --    1.66256   1.72623   1.85419   1.93941   1.97200
 Alpha virt. eigenvalues --    1.98319   2.01127   2.03585   2.08334   2.08643
 Alpha virt. eigenvalues --    2.09845   2.15371   2.18983   2.22387   2.24839
 Alpha virt. eigenvalues --    2.26146   2.28348   2.32819   2.33756   2.34480
 Alpha virt. eigenvalues --    2.35866   2.39388   2.46110   2.48898   2.52503
 Alpha virt. eigenvalues --    2.62830   2.63850   2.70319   2.72470   2.74849
 Alpha virt. eigenvalues --    2.77918   2.81403   2.88953   2.92556   2.93579
 Alpha virt. eigenvalues --    3.03560   3.05213   3.20876   3.31552   3.53168
 Alpha virt. eigenvalues --    4.24419   4.33450   4.36166   4.39705   4.43458
 Alpha virt. eigenvalues --    4.47176   4.55207   4.59126   4.85909
          Condensed to atoms (all electrons):
               1          2          3          4          5          6
     1  C    5.689071   0.424923   0.198122  -0.615849   0.055737  -0.160948
     2  C    0.424923   6.111489  -0.487581   0.503158  -0.614539   0.482833
     3  C    0.198122  -0.487581  15.486014  -4.511015  -3.947926  -2.491656
     4  C   -0.615849   0.503158  -4.511015  14.169192  -2.070083  -0.412290
     5  C    0.055737  -0.614539  -3.947926  -2.070083  15.765466  -1.556458
     6  C   -0.160948   0.482833  -2.491656  -0.412290  -1.556458  12.322441
     7  N   -0.027398   0.029761  -0.466667  -0.364692   0.742347   0.158024
     8  C    0.152624  -0.298984   3.924553   0.131504  -6.062447  -2.547455
     9  C   -0.081258   0.050327  -1.592975   0.054536   2.181179   0.717983
    10  H   -0.002189  -0.010693  -0.107553  -0.047666   0.125056   0.020321
    11  H    0.007987   0.001070  -0.008363  -0.047999   0.073299   0.061237
    12  H    0.001801  -0.000586   0.029910   0.073725  -0.074390  -0.025426
    13  H   -0.017051   0.306241  -0.059001   0.054453  -0.016008   0.031617
    14  H    0.005904   0.022802   0.029682   0.204899   0.032302  -0.000669
    15  H    0.287949  -0.008722   0.043819  -0.039710   0.049327  -0.046203
    16  H    0.013598   0.011215  -0.031282   0.014033   0.129775   0.189348
               7          8          9         10         11         12
     1  C   -0.027398   0.152624  -0.081258  -0.002189   0.007987   0.001801
     2  C    0.029761  -0.298984   0.050327  -0.010693   0.001070  -0.000586
     3  C   -0.466667   3.924553  -1.592975  -0.107553  -0.008363   0.029910
     4  C   -0.364692   0.131504   0.054536  -0.047666  -0.047999   0.073725
     5  C    0.742347  -6.062447   2.181179   0.125056   0.073299  -0.074390
     6  C    0.158024  -2.547455   0.717983   0.020321   0.061237  -0.025426
     7  N    7.298958  -0.635755   0.508422   0.259108   0.007238  -0.052835
     8  C   -0.635755  13.594862  -2.774235   0.039740   0.194090   0.033888
     9  C    0.508422  -2.774235   7.005722  -0.047754   0.000299   0.321296
    10  H    0.259108   0.039740  -0.047754   0.332393  -0.000079  -0.002089
    11  H    0.007238   0.194090   0.000299  -0.000079   0.482213  -0.000412
    12  H   -0.052835   0.033888   0.321296  -0.002089  -0.000412   0.474297
    13  H   -0.000319  -0.004443   0.002189  -0.000003   0.000000  -0.000000
    14  H   -0.009733  -0.029294   0.020960   0.002295   0.000002   0.000003
    15  H    0.000339   0.010721  -0.001116  -0.000000  -0.000002  -0.000000
    16  H   -0.000405  -0.055282   0.007974   0.000005   0.001548  -0.000001
              13         14         15         16
     1  C   -0.017051   0.005904   0.287949   0.013598
     2  C    0.306241   0.022802  -0.008722   0.011215
     3  C   -0.059001   0.029682   0.043819  -0.031282
     4  C    0.054453   0.204899  -0.039710   0.014033
     5  C   -0.016008   0.032302   0.049327   0.129775
     6  C    0.031617  -0.000669  -0.046203   0.189348
     7  N   -0.000319  -0.009733   0.000339  -0.000405
     8  C   -0.004443  -0.029294   0.010721  -0.055282
     9  C    0.002189   0.020960  -0.001116   0.007974
    10  H   -0.000003   0.002295  -0.000000   0.000005
    11  H    0.000000   0.000002  -0.000002   0.001548
    12  H   -0.000000   0.000003  -0.000000  -0.000001
    13  H    0.534075  -0.004446  -0.004246  -0.000175
    14  H   -0.004446   0.547913  -0.000179   0.000021
    15  H   -0.004246  -0.000179   0.529395  -0.004154
    16  H   -0.000175   0.000021  -0.004154   0.539639
 Mulliken charges:
               1
     1  C    0.066978
     2  C   -0.522714
     3  C   -0.008081
     4  C   -1.096195
     5  C    1.187363
     6  C   -0.742700
     7  N   -0.446393
     8  C    0.325913
     9  C   -0.373550
    10  H    0.439108
    11  H    0.227872
    12  H    0.220817
    13  H    0.177117
    14  H    0.177538
    15  H    0.182782
    16  H    0.184145
 Sum of Mulliken charges =  -0.00000
 Mulliken charges with hydrogens summed into heavy atoms:
               1
     1  C    0.249760
     2  C   -0.345597
     3  C    0.169457
     4  C   -1.096195
     5  C    1.187363
     6  C   -0.558555
     7  N   -0.007285
     8  C    0.553784
     9  C   -0.152732
 Electronic spatial extent (au):  <R**2>=           1007.1659
 Charge=             -0.0000 electrons
 Dipole moment (field-independent basis, Debye):
    X=              3.6288    Y=             -1.0930    Z=             -0.0002  Tot=              3.7899
 Quadrupole moment (field-independent basis, Debye-Ang):
   XX=            -46.0947   YY=            -45.0561   ZZ=            -60.1342
   XY=             -3.2410   XZ=              0.0006   YZ=             -0.0014
 Traceless Quadrupole moment (field-independent basis, Debye-Ang):
   XX=              4.3336   YY=              5.3722   ZZ=             -9.7058
   XY=             -3.2410   XZ=              0.0006   YZ=             -0.0014
 Octapole moment (field-independent basis, Debye-Ang**2):
  XXX=             22.9671  YYY=             -8.9517  ZZZ=             -0.0086  XYY=             14.8858
  XXY=             -5.1398  XXZ=              0.0005  XZZ=              4.3693  YZZ=             -0.7836
  YYZ=             -0.0036  XYZ=             -0.0034
 Hexadecapole moment (field-independent basis, Debye-Ang**3):
 XXXX=           -844.3914 YYYY=           -380.7620 ZZZZ=            -82.7060 XXXY=            -23.5243
 XXXZ=              0.0005 YYYX=            -17.2531 YYYZ=             -0.0024 ZZZX=             -0.0059
 ZZZY=              0.0072 XXYY=           -191.1879 XXZZ=           -198.1511 YYZZ=            -99.7463
 XXYZ=             -0.0051 YYXZ=              0.0050 ZZXY=             -2.9815
 N-N= 4.013368668897D+02 E-N=-1.644678579517D+03  KE= 3.602823523777D+02
 Calling FoFJK, ICntrl=  10005127 FMM=F ISym2X=0 I1Cent= 0 IOpClX= 0 NMat=1 NMatS=1 NMatT=0.
 ***** Axes restored to original set *****
 -------------------------------------------------------------------
 Center     Atomic                   Forces (Hartrees/Bohr)
 Number     Number              X              Y              Z
 -------------------------------------------------------------------
      1        6          -0.030985993   -0.035991233   -0.000002598
      2        6          -0.050097544    0.036463015    0.000003392
      3        6           0.040651970   -0.035964806    0.000004518
      4        6          -0.003475544    0.003767440   -0.000021296
      5        6           0.012681131   -0.008981049   -0.000030096
      6        6           0.016796057    0.037773620   -0.000001290
      7        7           0.000170920    0.027277811    0.000064998
      8        6          -0.028259947    0.022495112    0.000023490
      9        6           0.039758736   -0.043710766   -0.000035124
     10        1           0.002947653   -0.007935526   -0.000005248
     11        1           0.002484724    0.005196829    0.000004080
     12        1           0.004533707   -0.001160525   -0.000006516
     13        1          -0.004112541   -0.001568057    0.000000482
     14        1           0.000855734   -0.004652696   -0.000003360
     15        1          -0.004253186    0.002238779    0.000000977
     16        1           0.000304122    0.004752049    0.000003592
 -------------------------------------------------------------------
 Cartesian Forces:  Max     0.050097544 RMS     0.018692686

 GradGradGradGradGradGradGradGradGradGradGradGradGradGradGradGradGradGrad
 Berny optimization.
 FormGI is forming the generalized inverse of G from B-inverse, IUseBI=4.
 Internal  Forces:  Max     0.058772056 RMS     0.010789181
 Search for a local minimum.
 Step number   1 out of a maximum of   94
 All quantities printed in internal units (Hartrees-Bohrs-Radians)
 Mixed Optimization -- RFO/linear search
 Second derivative matrix not updated -- first step.
 ITU=  0
     Eigenvalues ---    0.01853   0.01931   0.01986   0.02012   0.02070
     Eigenvalues ---    0.02113   0.02148   0.02153   0.02172   0.02209
     Eigenvalues ---    0.02233   0.02248   0.02338   0.16000   0.16000
     Eigenvalues ---    0.16000   0.16000   0.16000   0.16000   0.16000
     Eigenvalues ---    0.22000   0.22188   0.22662   0.24011   0.24651
     Eigenvalues ---    0.35712   0.35717   0.35783   0.35790   0.36420
     Eigenvalues ---    0.36427   0.37009   0.38432   0.42633   0.43465
     Eigenvalues ---    0.45769   0.46692   0.47162   0.47468   0.47567
     Eigenvalues ---    0.48125   0.50955
 RFO step:  Lambda=-2.10347255D-02 EMin= 1.85287394D-02
 Linear search not attempted -- first point.
 Iteration  1 RMS(Cart)=  0.03591401 RMS(Int)=  0.00033700
 Iteration  2 RMS(Cart)=  0.00044959 RMS(Int)=  0.00012690
 Iteration  3 RMS(Cart)=  0.00000009 RMS(Int)=  0.00012690
 Variable       Old X    -DE/DX   Delta X   Delta X   Delta X     New X
                                 (Linear)    (Quad)   (Total)
    R1        2.65547  -0.00618   0.00000  -0.01092  -0.01086   2.64461
    R2        2.61291   0.04702   0.00000   0.09387   0.09391   2.70682
    R3        2.04421   0.00481   0.00000   0.01269   0.01269   2.05690
    R4        2.61557   0.05877   0.00000   0.11749   0.11751   2.73308
    R5        2.04411   0.00434   0.00000   0.01146   0.01146   2.05557
    R6        2.63373   0.01457   0.00000   0.02868   0.02863   2.66236
    R7        2.04534   0.00466   0.00000   0.01233   0.01233   2.05767
    R8        2.68058   0.00528   0.00000   0.00593   0.00565   2.68622
    R9        2.60126   0.01169   0.00000   0.01920   0.01940   2.62066
   R10        2.64771   0.02566   0.00000   0.05294   0.05292   2.70063
   R11        2.70839   0.00798   0.00000   0.02064   0.02031   2.72870
   R12        2.04526   0.00474   0.00000   0.01254   0.01254   2.05780
   R13        2.60573  -0.00735   0.00000  -0.01339  -0.01305   2.59268
   R14        1.89542   0.00846   0.00000   0.01717   0.01717   1.91260
   R15        2.57870   0.04266   0.00000   0.08257   0.08260   2.66130
   R16        2.03419   0.00573   0.00000   0.01488   0.01488   2.04907
   R17        2.03430   0.00463   0.00000   0.01202   0.01202   2.04633
    A1        2.11420   0.00163   0.00000   0.01234   0.01240   2.12660
    A2        2.07986  -0.00085   0.00000  -0.00638  -0.00641   2.07345
    A3        2.08912  -0.00078   0.00000  -0.00596  -0.00599   2.08313
    A4        2.11523  -0.00388   0.00000  -0.01081  -0.01077   2.10446
    A5        2.08365   0.00120   0.00000   0.00131   0.00129   2.08495
    A6        2.08430   0.00268   0.00000   0.00950   0.00948   2.09378
    A7        2.05144  -0.00214   0.00000  -0.01027  -0.01034   2.04109
    A8        2.11267   0.00188   0.00000   0.00959   0.00963   2.12230
    A9        2.11908   0.00026   0.00000   0.00067   0.00071   2.11979
   A10        2.13389   0.00526   0.00000   0.01904   0.01892   2.15280
   A11        2.27895  -0.00506   0.00000  -0.00854  -0.00843   2.27053
   A12        1.87035  -0.00021   0.00000  -0.01050  -0.01049   1.85986
   A13        2.07274   0.00266   0.00000   0.00518   0.00532   2.07806
   A14        1.86517  -0.00248   0.00000  -0.01021  -0.01069   1.85449
   A15        2.34527  -0.00018   0.00000   0.00502   0.00537   2.35064
   A16        2.07887  -0.00353   0.00000  -0.01549  -0.01552   2.06335
   A17        2.10306   0.00221   0.00000   0.01021   0.01022   2.11329
   A18        2.10125   0.00132   0.00000   0.00528   0.00529   2.10654
   A19        1.90743   0.01480   0.00000   0.05443   0.05487   1.96230
   A20        2.19023  -0.00710   0.00000  -0.02560  -0.02582   2.16441
   A21        2.18553  -0.00769   0.00000  -0.02883  -0.02905   2.15648
   A22        1.86968   0.00440   0.00000   0.02732   0.02702   1.89670
   A23        2.21717  -0.00165   0.00000  -0.01064  -0.01049   2.20668
   A24        2.19633  -0.00275   0.00000  -0.01668  -0.01653   2.17981
   A25        1.91215  -0.01651   0.00000  -0.06103  -0.06071   1.85143
   A26        2.10250   0.00756   0.00000   0.02670   0.02654   2.12904
   A27        2.26854   0.00894   0.00000   0.03433   0.03417   2.30271
    D1       -0.00001   0.00000   0.00000   0.00001   0.00000  -0.00001
    D2       -3.14156  -0.00000   0.00000  -0.00002  -0.00002  -3.14158
    D3        3.14152   0.00000   0.00000   0.00005   0.00005   3.14157
    D4       -0.00002   0.00000   0.00000   0.00002   0.00002   0.00000
    D5       -0.00003   0.00000   0.00000   0.00005   0.00005   0.00002
    D6        3.14153   0.00000   0.00000   0.00007   0.00007  -3.14158
    D7       -3.14157   0.00000   0.00000   0.00001   0.00001  -3.14156
    D8       -0.00001   0.00000   0.00000   0.00002   0.00002   0.00002
    D9        0.00003  -0.00000   0.00000  -0.00004  -0.00004  -0.00001
   D10       -3.14154  -0.00000   0.00000  -0.00000   0.00000  -3.14154
   D11        3.14158   0.00000   0.00000  -0.00001  -0.00001   3.14157
   D12        0.00001   0.00000   0.00000   0.00003   0.00003   0.00004
   D13       -0.00001  -0.00000   0.00000   0.00002   0.00002   0.00001
   D14       -3.14144  -0.00000   0.00000  -0.00004  -0.00004  -3.14147
   D15        3.14156  -0.00000   0.00000  -0.00002  -0.00002   3.14154
   D16        0.00013  -0.00000   0.00000  -0.00008  -0.00008   0.00006
   D17       -0.00004   0.00000   0.00000   0.00004   0.00004   0.00000
   D18       -3.14151   0.00000   0.00000  -0.00005  -0.00005  -3.14157
   D19        3.14143   0.00000   0.00000   0.00008   0.00008   3.14151
   D20       -0.00005   0.00000   0.00000  -0.00001  -0.00001  -0.00006
   D21       -3.14124  -0.00001   0.00000  -0.00026  -0.00028  -3.14152
   D22       -0.00113   0.00001   0.00000   0.00025   0.00024  -0.00089
   D23        0.00049  -0.00001   0.00000  -0.00031  -0.00033   0.00017
   D24        3.14060   0.00001   0.00000   0.00020   0.00019   3.14080
   D25        0.00005  -0.00000   0.00000  -0.00007  -0.00007  -0.00002
   D26       -3.14151  -0.00000   0.00000  -0.00009  -0.00009   3.14159
   D27        3.14150  -0.00000   0.00000   0.00004   0.00005   3.14154
   D28       -0.00007  -0.00000   0.00000   0.00003   0.00003  -0.00004
   D29       -0.00041   0.00001   0.00000   0.00034   0.00035  -0.00006
   D30        3.14139   0.00000   0.00000   0.00002   0.00003   3.14142
   D31        3.14132   0.00001   0.00000   0.00024   0.00024   3.14156
   D32       -0.00006  -0.00000   0.00000  -0.00008  -0.00008  -0.00014
   D33       -0.00077   0.00003   0.00000   0.00058   0.00057  -0.00020
   D34        3.14133   0.00001   0.00000   0.00030   0.00031  -3.14155
   D35       -3.14089   0.00001   0.00000   0.00006   0.00005  -3.14084
   D36        0.00121  -0.00001   0.00000  -0.00021  -0.00021   0.00100
   D37        0.00072  -0.00003   0.00000  -0.00057  -0.00057   0.00016
   D38       -3.14144  -0.00001   0.00000  -0.00027  -0.00027   3.14147
   D39       -3.14107  -0.00001   0.00000  -0.00026  -0.00025  -3.14132
   D40       -0.00005   0.00000   0.00000   0.00004   0.00004  -0.00001
         Item               Value     Threshold  Converged?
 Maximum Force            0.058772     0.000450     NO 
 RMS     Force            0.010789     0.000300     NO 
 Maximum Displacement     0.128279     0.001800     NO 
 RMS     Displacement     0.035873     0.001200     NO 
 Predicted change in Energy=-1.102545D-02
 GradGradGradGradGradGradGradGradGradGradGradGradGradGradGradGradGradGrad

                          Input orientation:                          
 ---------------------------------------------------------------------
 Center     Atomic      Atomic             Coordinates (Angstroms)
 Number     Number       Type             X           Y           Z
 ---------------------------------------------------------------------
      1          6           0       -2.200665    0.682599    0.000012
      2          6           0       -2.180421   -0.716724    0.000020
      3          6           0       -0.924731   -1.434343    0.000037
      4          6           0        0.252722   -0.660719    0.000037
      5          6           0        0.253719    0.760769    0.000034
      6          6           0       -0.994944    1.455890    0.000033
      7          7           0        1.581703   -1.056963   -0.000075
      8          6           0        1.640253    1.163964    0.000000
      9          6           0        2.445746    0.008764    0.000062
     10          1           0        1.884522   -2.022702    0.000569
     11          1           0        2.015008    2.181467   -0.000162
     12          1           0        3.520431   -0.124112   -0.000033
     13          1           0       -3.119708   -1.265325   -0.000006
     14          1           0       -0.889559   -2.522648   -0.000009
     15          1           0       -3.161980    1.193117   -0.000018
     16          1           0       -1.025192    2.544412    0.000035
 ---------------------------------------------------------------------
                    Distance matrix (angstroms):
                    1          2          3          4          5
     1  C    0.000000
     2  C    1.399470   0.000000
     3  C    2.471731   1.446283   0.000000
     4  C    2.797072   2.433787   1.408861   0.000000
     5  C    2.455629   2.847459   2.491438   1.421488   0.000000
     6  C    1.432390   2.474996   2.891086   2.456971   1.429109
     7  N    4.163218   3.777478   2.534685   1.386795   2.251153
     8  C    3.870964   4.258466   3.651074   2.292315   1.443967
     9  C    4.695017   4.682708   3.666425   2.292937   2.317432
    10  H    4.899735   4.269583   2.870203   2.125504   3.226023
    11  H    4.474204   5.099131   4.660059   3.344200   2.262857
    12  H    5.777692   5.731571   4.634239   3.311476   3.384438
    13  H    2.153845   1.087761   2.201475   3.426198   3.935107
    14  H    3.463034   2.219839   1.088873   2.184396   3.476767
    15  H    1.088465   2.147313   3.450918   3.885473   3.442953
    16  H    2.201837   3.459706   3.980024   3.450498   2.194766
                    6          7          8          9         10
     6  C    0.000000
     7  N    3.599103   0.000000
     8  C    2.651317   2.221699   0.000000
     9  C    3.732629   1.371986   1.408299   0.000000
    10  H    4.515742   1.012102   3.196014   2.107565   0.000000
    11  H    3.096171   3.267290   1.084322   2.214988   4.206194
    12  H    4.783829   2.151483   2.279081   1.082869   2.506162
    13  H    3.452482   4.706026   5.344031   5.709429   5.061219
    14  H    3.979933   2.873216   4.471136   4.187160   2.818771
    15  H    2.182910   5.250276   4.802322   5.731429   5.984035
    16  H    1.088943   4.445876   3.001706   4.298479   5.415253
                   11         12         13         14         15
    11  H    0.000000
    12  H    2.753542   0.000000
    13  H    6.184309   6.737493   0.000000
    14  H    5.528581   5.020059   2.560161   0.000000
    15  H    5.270488   6.810999   2.458806   4.355549   0.000000
    16  H    3.061788   5.271026   4.347539   5.068875   2.528213
                   16
    16  H    0.000000
 Stoichiometry    C8H7N
 Framework group  C1[X(C8H7N)]
 Deg. of freedom    42
 Full point group                 C1      NOp   1
 Largest Abelian subgroup         C1      NOp   1
 Largest concise Abelian subgroup C1      NOp   1
                         Standard orientation:                         
 ---------------------------------------------------------------------
 Center     Atomic      Atomic             Coordinates (Angstroms)
 Number     Number       Type             X           Y           Z
 ---------------------------------------------------------------------
      1          6           0       -2.203863    0.672207   -0.000008
      2          6           0       -2.178520   -0.727033   -0.000000
      3          6           0       -0.920224   -1.440072    0.000016
      4          6           0        0.254402   -0.662162    0.000017
      5          6           0        0.250220    0.759320    0.000014
      6          6           0       -1.000968    1.449886    0.000012
      7          7           0        1.584819   -1.053561   -0.000095
      8          6           0        1.635275    1.167565   -0.000020
      9          6           0        2.444972    0.015308    0.000042
     10          1           0        1.891154   -2.018190    0.000548
     11          1           0        2.006320    2.186427   -0.000183
     12          1           0        3.520135   -0.113650   -0.000054
     13          1           0       -3.115802   -1.279053   -0.000026
     14          1           0       -0.881086   -2.528241   -0.000030
     15          1           0       -3.167033    1.179219   -0.000039
     16          1           0       -1.035183    2.538292    0.000014
 ---------------------------------------------------------------------
 Rotational constants (GHZ):           3.8612948           1.5800845           1.1212547
 Standard basis: 6-31+G(d) (6D, 7F)
 There are   185 symmetry adapted cartesian basis functions of A   symmetry.
 There are   185 symmetry adapted basis functions of A   symmetry.
   185 basis functions,   316 primitive gaussians,   185 cartesian basis functions
    31 alpha electrons       31 beta electrons
       nuclear repulsion energy       395.9058131228 Hartrees.
 NAtoms=   16 NActive=   16 NUniq=   16 SFac= 1.00D+00 NAtFMM=   60 NAOKFM=F Big=F
 Integral buffers will be    131072 words long.
 Regular integral format.
 Two-electron integral symmetry is turned on.
 One-electron integrals computed using PRISM.
 NBasis=   185 RedAO= T EigKep=  1.39D-06  NBF=   185
 NBsUse=   185 1.00D-06 EigRej= -1.00D+00 NBFU=   185
 Initial guess from the checkpoint file:  "FuncsBMK-V-1st.chk"
 B after Tr=     0.000000   -0.000000    0.000000
         Rot=    0.999998    0.000006    0.000007   -0.002088 Ang=   0.24 deg.
 ExpMin= 4.38D-02 ExpMax= 4.17D+03 ExpMxC= 6.27D+02 IAcc=3 IRadAn=         5 AccDes= 0.00D+00
 Harris functional with IExCor= 1009 and IRadAn=       5 diagonalized for initial guess.
 HarFok:  IExCor= 1009 AccDes= 0.00D+00 IRadAn=         5 IDoV= 1 UseB2=F ITyADJ=14
 ICtDFT=  3500011 ScaDFX=  1.000000  1.000000  1.000000  1.000000
 FoFCou: FMM=F IPFlag=           0 FMFlag=      100000 FMFlg1=           0
         NFxFlg=           0 DoJE=T BraDBF=F KetDBF=T FulRan=T
         wScrn=  0.000000 ICntrl=       500 IOpCl=  0 I1Cent=   200000004 NGrid=           0
         NMat0=    1 NMatS0=      1 NMatT0=    0 NMatD0=    1 NMtDS0=    0 NMtDT0=    0
 Petite list used in FoFCou.
 Keep R1 ints in memory in canonical form, NReq=152074523.
 Requested convergence on RMS density matrix=1.00D-08 within 128 cycles.
 Requested convergence on MAX density matrix=1.00D-06.
 Requested convergence on             energy=1.00D-06.
 No special actions if energy rises.
 SCF Done:  E(RBMK) =  -363.578903980     A.U. after   13 cycles
            NFock= 13  Conv=0.87D-08     -V/T= 2.0111
 DoSCS=F DFT=T ScalE2(SS,OS)=  1.000000  1.000000
 ExpMin= 4.38D-02 ExpMax= 4.17D+03 ExpMxC= 6.27D+02 IAcc=3 IRadAn=         5 AccDes= 0.00D+00
 HarFok:  IExCor=  205 AccDes= 0.00D+00 IRadAn=         5 IDoV=-2 UseB2=F ITyADJ=14
 ICtDFT= 12500011 ScaDFX=  1.000000  1.000000  1.000000  1.000000
 Range of M.O.s used for correlation:    10   185
 NBasis=   185 NAE=    31 NBE=    31 NFC=     9 NFV=     0
 NROrb=    176 NOA=    22 NOB=    22 NVA=   154 NVB=   154

 **** Warning!!: The largest alpha MO coefficient is  0.17373803D+03

 Orbital symmetries:
       Occupied  (A) (A) (A) (A) (A) (A) (A) (A) (A) (A) (A) (A)
                 (A) (A) (A) (A) (A) (A) (A) (A) (A) (A) (A) (A)
                 (A) (A) (A) (A) (A) (A) (A)
       Virtual   (A) (A) (A) (A) (A) (A) (A) (A) (A) (A) (A) (A)
                 (A) (A) (A) (A) (A) (A) (A) (A) (A) (A) (A) (A)
                 (A) (A) (A) (A) (A) (A) (A) (A) (A) (A) (A) (A)
                 (A) (A) (A) (A) (A) (A) (A) (A) (A) (A) (A) (A)
                 (A) (A) (A) (A) (A) (A) (A) (A) (A) (A) (A) (A)
                 (A) (A) (A) (A) (A) (A) (A) (A) (A) (A) (A) (A)
                 (A) (A) (A) (A) (A) (A) (A) (A) (A) (A) (A) (A)
                 (A) (A) (A) (A) (A) (A) (A) (A) (A) (A) (A) (A)
                 (A) (A) (A) (A) (A) (A) (A) (A) (A) (A) (A) (A)
                 (A) (A) (A) (A) (A) (A) (A) (A) (A) (A) (A) (A)
                 (A) (A) (A) (A) (A) (A) (A) (A) (A) (A) (A) (A)
                 (A) (A) (A) (A) (A) (A) (A) (A) (A) (A) (A) (A)
                 (A) (A) (A) (A) (A) (A) (A) (A) (A) (A)
 Generating guess from densities on rwf.
 Convergence on wavefunction:    0.000001000000000
 Iteration     1 Dimension    12 NMult     0 NNew     12
 CISAX will form    12 AO SS matrices at one time.
 New state      4 was old state      6
 New state      6 was old state      4
 Iteration     2 Dimension    24 NMult    12 NNew     12
 New state      4 was old state      5
 New state      5 was old state      4
 Iteration     3 Dimension    36 NMult    24 NNew     12
 Iteration     4 Dimension    48 NMult    36 NNew     12
 Iteration     5 Dimension    60 NMult    48 NNew     12
 Iteration     6 Dimension    72 NMult    60 NNew     12
 Iteration     7 Dimension    84 NMult    72 NNew     12
 Iteration     8 Dimension    96 NMult    84 NNew     12
 Iteration     9 Dimension   108 NMult    96 NNew     12
 Iteration    10 Dimension   116 NMult   108 NNew      8
 Iteration    11 Dimension   122 NMult   116 NNew      6
 Iteration    12 Dimension   128 NMult   122 NNew      6
 Iteration    13 Dimension   130 NMult   128 NNew      2
 Iteration    14 Dimension   132 NMult   130 NNew      2
 ***********************************************************************
 Excited states from <AA,BB:AA,BB> singles matrix:
 ***********************************************************************
 
 Ground to excited state transition densities written to RWF  633
 Ground to excited state transition electric dipole moments (Au):
       state          X           Y           Z        Dip. S.      Osc.
         1        -0.6412      0.7814     -0.0000      1.0217      0.1164
         2        -0.5207     -0.1268     -0.0000      0.2872      0.0351
         3         0.0002     -0.0001     -0.1279      0.0163      0.0022
         4         0.0012      0.0002     -0.0594      0.0035      0.0005
         5        -2.1093     -0.4819     -0.0003      4.6813      0.7102
         6         0.0024      0.0005     -0.1140      0.0130      0.0020
 Ground to excited state transition velocity dipole moments (Au):
       state          X           Y           Z        Dip. S.      Osc.
         1         0.0988     -0.1421      0.0000      0.0300      0.1168
         2         0.0890      0.0244      0.0000      0.0085      0.0310
         3        -0.0000      0.0000      0.0162      0.0003      0.0009
         4        -0.0003     -0.0001      0.0144      0.0002      0.0006
         5         0.4645      0.1082      0.0001      0.2275      0.6665
         6        -0.0005     -0.0001      0.0244      0.0006      0.0017
 Ground to excited state transition magnetic dipole moments (Au):
       state          X           Y           Z
         1         0.0001      0.0000      0.1138
         2        -0.0001     -0.0001     -0.0133
         3         0.1456     -0.0873      0.0001
         4         0.2853     -0.2462      0.0005
         5         0.0001     -0.0008     -0.7141
         6        -0.1880     -0.3526      0.0007
 Ground to excited state transition velocity quadrupole moments (Au):
       state          XX          YY          ZZ          XY          XZ          YZ
         1         0.1897     -0.1229      0.0030      0.0445      0.0000     -0.0000
         2         0.0759     -0.1196      0.0241     -0.0058      0.0000     -0.0000
         3        -0.0000      0.0001      0.0001      0.0000      0.0802      0.0534
         4        -0.0000      0.0000      0.0000      0.0003      0.2582      0.2428
         5         0.0823     -0.1440     -0.0333     -0.4476      0.0006      0.0001
         6        -0.0002      0.0003     -0.0000      0.0005      0.2849     -0.0790
 <0|del|b> * <b|rxdel|0> + <0|del|b> * <b|delr+rdel|0>
 Rotatory Strengths (R) in cgs (10**-40 erg-esu-cm/Gauss)
       state          XX          YY          ZZ    R(velocity)    E-M Angle
         1        -0.0022      0.0147     -0.0019      0.0035       90.00
         2        -0.0057     -0.0131     -0.0101     -0.0096       90.00
         3        -0.0013     -0.0097     -0.0057     -0.0056       90.00
         4         0.0592     -0.2164     -0.0188     -0.0587       90.00
         5        -0.3489      0.1052     -0.0295     -0.0911       90.00
         6         0.1700      0.2311      0.1041      0.1684       89.04
 1/2[<0|r|b>*<b|rxdel|0> + (<0|rxdel|b>*<b|r|0>)*]
 Rotatory Strengths (R) in cgs (10**-40 erg-esu-cm/Gauss)
       state          XX          YY          ZZ     R(length)
         1         0.0341     -0.0204      0.0032      0.0057
         2        -0.0227     -0.0069     -0.0004     -0.0100
         3        -0.0216     -0.0050      0.0109     -0.0053
         4        -0.2489      0.0404      0.0199     -0.0628
         5         0.1315     -0.2676     -0.1378     -0.0913
         6         0.3216      0.1336      0.0574      0.1709
  1/2[<0|del|b>*<b|r|0> + (<0|r|b>*<b|del|0>)*] (Au)
       state          X           Y           Z        Dip. S.   Osc.(frdel)
         1        -0.0633     -0.1110     -0.0000      0.1744      0.1163
         2        -0.0464     -0.0031     -0.0000      0.0494      0.0330
         3        -0.0000     -0.0000     -0.0021      0.0021      0.0014
         4        -0.0000     -0.0000     -0.0009      0.0009      0.0006
         5        -0.9799     -0.0521     -0.0000      1.0320      0.6880
         6        -0.0000     -0.0000     -0.0028      0.0028      0.0019

 Excitation energies and oscillator strengths:
 
 Excited State   1:      Singlet-A      4.6514 eV  266.55 nm  f=0.1164  <S**2>=0.000
      30 -> 34         0.12503
      31 -> 32         0.68322
 This state for optimization and/or second-order correction.
 Total Energy, E(TD-HF/TD-DFT) =  -363.407967324    
 Copying the excited state density for this state as the 1-particle RhoCI density.
 
 Excited State   2:      Singlet-A      4.9808 eV  248.92 nm  f=0.0351  <S**2>=0.000
      30 -> 32         0.57331
      31 -> 34        -0.39193
 
 Excited State   3:      Singlet-A      5.5159 eV  224.77 nm  f=0.0022  <S**2>=0.000
      31 -> 33         0.69351
 
 Excited State   4:      Singlet-A      6.1259 eV  202.39 nm  f=0.0005  <S**2>=0.000
      30 -> 33         0.13144
      31 -> 35         0.67828
 
 Excited State   5:      Singlet-A      6.1923 eV  200.22 nm  f=0.7102  <S**2>=0.000
      30 -> 32         0.36009
      31 -> 34         0.56828
      31 -> 39         0.14611
 
 Excited State   6:      Singlet-A      6.2267 eV  199.12 nm  f=0.0020  <S**2>=0.000
      31 -> 36        -0.68268
 SavETr:  write IOETrn=   770 NScale= 10 NData=  16 NLR=1 NState=    6 LETran=     118.
          IDoAtm=1111111111111111
          Differentiating once with respect to electric field.
                with respect to dipole field.
          Differentiating once with respect to nuclear coordinates.
 Keep R1 ints in memory in canonical form, NReq=152086915.
          There are     1 degrees of freedom in the 1st order CPHF.  IDoFFX=0 NUNeed=     1.
 LinEq1:  Iter=  0 NonCon=     1 RMS=8.99D-03 Max=2.31D-01 NDo=     1
 AX will form     1 AO Fock derivatives at one time.
 LinEq1:  Iter=  1 NonCon=     1 RMS=3.35D-03 Max=6.31D-02 NDo=     1
 LinEq1:  Iter=  2 NonCon=     1 RMS=2.10D-03 Max=5.82D-02 NDo=     1
 LinEq1:  Iter=  3 NonCon=     1 RMS=9.28D-04 Max=2.07D-02 NDo=     1
 LinEq1:  Iter=  4 NonCon=     1 RMS=4.57D-04 Max=1.75D-02 NDo=     1
 LinEq1:  Iter=  5 NonCon=     1 RMS=2.70D-04 Max=9.15D-03 NDo=     1
 LinEq1:  Iter=  6 NonCon=     1 RMS=1.55D-04 Max=4.18D-03 NDo=     1
 LinEq1:  Iter=  7 NonCon=     1 RMS=7.40D-05 Max=1.94D-03 NDo=     1
 LinEq1:  Iter=  8 NonCon=     1 RMS=3.38D-05 Max=6.56D-04 NDo=     1
 LinEq1:  Iter=  9 NonCon=     1 RMS=1.94D-05 Max=3.98D-04 NDo=     1
 LinEq1:  Iter= 10 NonCon=     1 RMS=9.10D-06 Max=1.64D-04 NDo=     1
 LinEq1:  Iter= 11 NonCon=     1 RMS=3.31D-06 Max=3.28D-05 NDo=     1
 LinEq1:  Iter= 12 NonCon=     1 RMS=1.71D-06 Max=2.98D-05 NDo=     1
 LinEq1:  Iter= 13 NonCon=     1 RMS=7.62D-07 Max=1.66D-05 NDo=     1
 LinEq1:  Iter= 14 NonCon=     1 RMS=2.74D-07 Max=7.28D-06 NDo=     1
 LinEq1:  Iter= 15 NonCon=     1 RMS=1.68D-07 Max=4.80D-06 NDo=     1
 LinEq1:  Iter= 16 NonCon=     1 RMS=3.67D-08 Max=7.46D-07 NDo=     1
 LinEq1:  Iter= 17 NonCon=     1 RMS=1.02D-08 Max=1.97D-07 NDo=     1
 LinEq1:  Iter= 18 NonCon=     1 RMS=6.24D-09 Max=1.43D-07 NDo=     1
 LinEq1:  Iter= 19 NonCon=     1 RMS=1.53D-09 Max=2.04D-08 NDo=     1
 LinEq1:  Iter= 20 NonCon=     1 RMS=3.06D-10 Max=3.73D-09 NDo=     1
 LinEq1:  Iter= 21 NonCon=     0 RMS=4.91D-11 Max=7.05D-10 NDo=     1
 Linear equations converged to 1.000D-10 1.000D-09 after    21 iterations.
 End of Minotr F.D. properties file   721 does not exist.
 End of Minotr F.D. properties file   722 does not exist.
 End of Minotr F.D. properties file   788 does not exist.
 Calling FoFJK, ICntrl=  10005127 FMM=F ISym2X=0 I1Cent= 0 IOpClX= 0 NMat=1 NMatS=1 NMatT=0.
 ***** Axes restored to original set *****
 -------------------------------------------------------------------
 Center     Atomic                   Forces (Hartrees/Bohr)
 Number     Number              X              Y              Z
 -------------------------------------------------------------------
      1        6          -0.002250547   -0.015372345   -0.000001227
      2        6          -0.005567587    0.019701644    0.000000614
      3        6           0.013670172   -0.010428029    0.000002602
      4        6          -0.009452093    0.008744445   -0.000006239
      5        6           0.007622032   -0.006426291   -0.000004123
      6        6           0.002296748    0.009598216   -0.000001092
      7        7           0.014659608    0.008012199    0.000035196
      8        6          -0.018837739    0.013084861   -0.000006782
      9        6          -0.001651755   -0.025847237   -0.000011545
     10        1          -0.000309130   -0.001010708   -0.000015316
     11        1           0.000432202    0.000397686    0.000003995
     12        1          -0.001043291    0.000023914    0.000002595
     13        1           0.001017562   -0.001227756    0.000000463
     14        1          -0.000673875    0.000712138   -0.000001494
     15        1           0.000583061    0.001091509    0.000000298
     16        1          -0.000495370   -0.001054247    0.000002056
 -------------------------------------------------------------------
 Cartesian Forces:  Max     0.025847237 RMS     0.007642632

 GradGradGradGradGradGradGradGradGradGradGradGradGradGradGradGradGradGrad
 Berny optimization.
 Using GEDIIS/GDIIS optimizer.
 FormGI is forming the generalized inverse of G from B-inverse, IUseBI=4.
 Internal  Forces:  Max     0.016534072 RMS     0.003475748
 Search for a local minimum.
 Step number   2 out of a maximum of   94
 All quantities printed in internal units (Hartrees-Bohrs-Radians)
 Mixed Optimization -- RFO/linear search
 Update second derivatives using D2CorX and points    1    2
 DE= -1.18D-02 DEPred=-1.10D-02 R= 1.07D+00
 TightC=F SS=  1.41D+00  RLast= 2.20D-01 DXNew= 5.0454D-01 6.5972D-01
 Trust test= 1.07D+00 RLast= 2.20D-01 DXMaxT set to 5.05D-01
 ITU=  1  0
 Use linear search instead of GDIIS.
     Eigenvalues ---    0.01852   0.01932   0.01986   0.02011   0.02069
     Eigenvalues ---    0.02113   0.02145   0.02150   0.02172   0.02210
     Eigenvalues ---    0.02234   0.02248   0.02341   0.15962   0.16000
     Eigenvalues ---    0.16000   0.16000   0.16000   0.16000   0.16023
     Eigenvalues ---    0.21014   0.22023   0.23712   0.24385   0.24642
     Eigenvalues ---    0.34577   0.35715   0.35755   0.35789   0.35914
     Eigenvalues ---    0.36443   0.36562   0.38032   0.38889   0.42847
     Eigenvalues ---    0.43839   0.46126   0.47041   0.47173   0.47668
     Eigenvalues ---    0.49324   0.58076
 RFO step:  Lambda=-2.72177459D-03 EMin= 1.85158064D-02
 Quartic linear search produced a step of  0.14848.
 Iteration  1 RMS(Cart)=  0.01211715 RMS(Int)=  0.00006507
 Iteration  2 RMS(Cart)=  0.00010547 RMS(Int)=  0.00002366
 Iteration  3 RMS(Cart)=  0.00000000 RMS(Int)=  0.00002366
 Variable       Old X    -DE/DX   Delta X   Delta X   Delta X     New X
                                 (Linear)    (Quad)   (Total)
    R1        2.64461  -0.01013  -0.00161  -0.02561  -0.02725   2.61736
    R2        2.70682   0.00287   0.01394   0.00475   0.01868   2.72550
    R3        2.05690  -0.00000   0.00188  -0.00031   0.00158   2.05848
    R4        2.73308   0.00887   0.01745   0.01825   0.03569   2.76877
    R5        2.05557  -0.00026   0.00170  -0.00109   0.00061   2.05618
    R6        2.66236  -0.00553   0.00425  -0.01424  -0.00997   2.65239
    R7        2.05767  -0.00073   0.00183  -0.00263  -0.00080   2.05687
    R8        2.68622  -0.00287   0.00084  -0.00838  -0.00753   2.67869
    R9        2.62066   0.00445   0.00288   0.00874   0.01166   2.63233
   R10        2.70063   0.00123   0.00786   0.00203   0.00990   2.71052
   R11        2.72870  -0.00989   0.00302  -0.02738  -0.02442   2.70429
   R12        2.05780  -0.00104   0.00186  -0.00361  -0.00175   2.05605
   R13        2.59268  -0.01588  -0.00194  -0.03662  -0.03852   2.55416
   R14        1.91260   0.00087   0.00255   0.00173   0.00428   1.91687
   R15        2.66130   0.01653   0.01226   0.03542   0.04767   2.70897
   R16        2.04907   0.00052   0.00221   0.00129   0.00350   2.05257
   R17        2.04633  -0.00104   0.00178  -0.00353  -0.00175   2.04458
    A1        2.12660   0.00097   0.00184   0.00504   0.00684   2.13344
    A2        2.07345   0.00079  -0.00095   0.00644   0.00552   2.07897
    A3        2.08313  -0.00175  -0.00089  -0.01149  -0.01235   2.07078
    A4        2.10446   0.00307  -0.00160   0.01607   0.01443   2.11889
    A5        2.08495   0.00008   0.00019   0.00351   0.00372   2.08867
    A6        2.09378  -0.00316   0.00141  -0.01959  -0.01816   2.07562
    A7        2.04109  -0.00452  -0.00154  -0.02314  -0.02467   2.01643
    A8        2.12230   0.00159   0.00143   0.00673   0.00815   2.13045
    A9        2.11979   0.00293   0.00011   0.01641   0.01652   2.13631
   A10        2.15280   0.00194   0.00281   0.00983   0.01266   2.16546
   A11        2.27053  -0.00472  -0.00125  -0.02004  -0.02133   2.24920
   A12        1.85986   0.00279  -0.00156   0.01021   0.00867   1.86853
   A13        2.07806   0.00265   0.00079   0.01213   0.01298   2.09104
   A14        1.85449  -0.00023  -0.00159  -0.00032  -0.00198   1.85250
   A15        2.35064  -0.00242   0.00080  -0.01181  -0.01100   2.33964
   A16        2.06335  -0.00410  -0.00230  -0.01993  -0.02225   2.04111
   A17        2.11329   0.00151   0.00152   0.00607   0.00760   2.12088
   A18        2.10654   0.00259   0.00079   0.01386   0.01465   2.12120
   A19        1.96230  -0.00123   0.00815  -0.00992  -0.00169   1.96061
   A20        2.16441   0.00005  -0.00383   0.00089  -0.00298   2.16143
   A21        2.15648   0.00118  -0.00431   0.00903   0.00467   2.16115
   A22        1.89670  -0.00198   0.00401  -0.00699  -0.00304   1.89366
   A23        2.20668   0.00126  -0.00156   0.00533   0.00380   2.21048
   A24        2.17981   0.00072  -0.00245   0.00167  -0.00076   2.17905
   A25        1.85143   0.00065  -0.00901   0.00702  -0.00196   1.84948
   A26        2.12904  -0.00043   0.00394  -0.00413  -0.00021   2.12884
   A27        2.30271  -0.00022   0.00507  -0.00290   0.00216   2.30487
    D1       -0.00001   0.00000   0.00000   0.00001   0.00001  -0.00000
    D2       -3.14158  -0.00000  -0.00000  -0.00001  -0.00001  -3.14159
    D3        3.14157   0.00000   0.00001   0.00002   0.00003  -3.14158
    D4        0.00000   0.00000   0.00000   0.00001   0.00001   0.00001
    D5        0.00002   0.00000   0.00001   0.00000   0.00001   0.00003
    D6       -3.14158   0.00000   0.00001   0.00003   0.00004  -3.14154
    D7       -3.14156  -0.00000   0.00000  -0.00001  -0.00001  -3.14157
    D8        0.00002   0.00000   0.00000   0.00002   0.00002   0.00004
    D9       -0.00001   0.00000  -0.00001   0.00001   0.00000  -0.00000
   D10       -3.14154  -0.00000   0.00000   0.00000   0.00000  -3.14153
   D11        3.14157   0.00000  -0.00000   0.00002   0.00002   3.14159
   D12        0.00004   0.00000   0.00000   0.00002   0.00002   0.00006
   D13        0.00001  -0.00000   0.00000  -0.00004  -0.00004  -0.00003
   D14       -3.14147  -0.00000  -0.00001  -0.00007  -0.00008  -3.14155
   D15        3.14154  -0.00000  -0.00000  -0.00003  -0.00004   3.14150
   D16        0.00006  -0.00000  -0.00001  -0.00006  -0.00007  -0.00002
   D17        0.00000   0.00000   0.00001   0.00006   0.00006   0.00006
   D18       -3.14157   0.00000  -0.00001   0.00004   0.00003  -3.14154
   D19        3.14151   0.00000   0.00001   0.00008   0.00009  -3.14159
   D20       -0.00006   0.00000  -0.00000   0.00006   0.00006  -0.00000
   D21       -3.14152  -0.00000  -0.00004  -0.00007  -0.00011   3.14155
   D22       -0.00089   0.00001   0.00004   0.00030   0.00033  -0.00056
   D23        0.00017  -0.00000  -0.00005  -0.00009  -0.00015   0.00002
   D24        3.14080   0.00001   0.00003   0.00027   0.00030   3.14110
   D25       -0.00002  -0.00000  -0.00001  -0.00003  -0.00004  -0.00006
   D26        3.14159  -0.00000  -0.00001  -0.00006  -0.00008   3.14151
   D27        3.14154  -0.00000   0.00001  -0.00001  -0.00000   3.14154
   D28       -0.00004  -0.00000   0.00000  -0.00004  -0.00004  -0.00007
   D29       -0.00006   0.00000   0.00005  -0.00001   0.00004  -0.00002
   D30        3.14142   0.00000   0.00000   0.00007   0.00008   3.14149
   D31        3.14156   0.00000   0.00004  -0.00003   0.00001   3.14157
   D32       -0.00014   0.00000  -0.00001   0.00005   0.00004  -0.00010
   D33       -0.00020   0.00000   0.00008   0.00009   0.00017  -0.00003
   D34       -3.14155   0.00000   0.00005   0.00003   0.00007  -3.14148
   D35       -3.14084  -0.00000   0.00001  -0.00027  -0.00027  -3.14111
   D36        0.00100  -0.00001  -0.00003  -0.00033  -0.00037   0.00063
   D37        0.00016  -0.00000  -0.00008  -0.00004  -0.00013   0.00003
   D38        3.14147   0.00000  -0.00004   0.00003  -0.00001   3.14146
   D39       -3.14132  -0.00000  -0.00004  -0.00012  -0.00016  -3.14148
   D40       -0.00001  -0.00000   0.00001  -0.00005  -0.00005  -0.00005
         Item               Value     Threshold  Converged?
 Maximum Force            0.016534     0.000450     NO 
 RMS     Force            0.003476     0.000300     NO 
 Maximum Displacement     0.043820     0.001800     NO 
 RMS     Displacement     0.012165     0.001200     NO 
 Predicted change in Energy=-1.563206D-03
 GradGradGradGradGradGradGradGradGradGradGradGradGradGradGradGradGradGrad

                          Input orientation:                          
 ---------------------------------------------------------------------
 Center     Atomic      Atomic             Coordinates (Angstroms)
 Number     Number       Type             X           Y           Z
 ---------------------------------------------------------------------
      1          6           0       -2.201099    0.680185   -0.000007
      2          6           0       -2.172812   -0.704576    0.000006
      3          6           0       -0.906933   -1.442321    0.000046
      4          6           0        0.253477   -0.652702    0.000067
      5          6           0        0.249469    0.764795    0.000019
      6          6           0       -0.997120    1.474281    0.000021
      7          7           0        1.586311   -1.057562    0.000058
      8          6           0        1.622976    1.166506   -0.000015
      9          6           0        2.441136   -0.010611    0.000036
     10          1           0        1.881936   -2.027893    0.000504
[...]
 ! D11   D(13,2,3,4)          -179.9994         -DE/DX =    0.0                 !
 ! D12   D(13,2,3,14)            0.0027         -DE/DX =    0.0                 !
 ! D13   D(2,3,4,5)             -0.001          -DE/DX =    0.0                 !
 ! D14   D(2,3,4,7)           -179.9991         -DE/DX =    0.0                 !
 ! D15   D(14,3,4,5)           179.9968         -DE/DX =    0.0                 !
 ! D16   D(14,3,4,7)            -0.0012         -DE/DX =    0.0                 !
 ! D17   D(3,4,5,6)              0.001          -DE/DX =    0.0                 !
 ! D18   D(3,4,5,8)           -179.9984         -DE/DX =    0.0                 !
 ! D19   D(7,4,5,6)            179.9994         -DE/DX =    0.0                 !
 ! D20   D(7,4,5,8)              0.0            -DE/DX =    0.0                 !
 ! D21   D(3,4,7,9)            180.0003         -DE/DX =    0.0                 !
 ! D22   D(3,4,7,10)            -0.0058         -DE/DX =    0.0                 !
 ! D23   D(5,4,7,9)              0.002          -DE/DX =    0.0                 !
 ! D24   D(5,4,7,10)           179.9959         -DE/DX =    0.0                 !
 ! D25   D(4,5,6,1)             -0.0004         -DE/DX =    0.0                 !
 ! D26   D(4,5,6,16)           179.9976         -DE/DX =    0.0                 !
 ! D27   D(8,5,6,1)            179.9987         -DE/DX =    0.0                 !
 ! D28   D(8,5,6,16)            -0.0032         -DE/DX =    0.0                 !
 ! D29   D(4,5,8,9)             -0.0018         -DE/DX =    0.0                 !
 ! D30   D(4,5,8,11)           179.9991         -DE/DX =    0.0                 !
 ! D31   D(6,5,8,9)           -180.001          -DE/DX =    0.0                 !
 ! D32   D(6,5,8,11)            -0.0002         -DE/DX =    0.0                 !
 ! D33   D(4,7,9,8)             -0.0031         -DE/DX =    0.0                 !
 ! D34   D(4,7,9,12)          -179.9997         -DE/DX =    0.0                 !
 ! D35   D(10,7,9,8)          -179.9969         -DE/DX =    0.0                 !
 ! D36   D(10,7,9,12)            0.0065         -DE/DX =    0.0                 !
 ! D37   D(5,8,9,7)              0.003          -DE/DX =    0.0                 !
 ! D38   D(5,8,9,12)           179.9992         -DE/DX =    0.0                 !
 ! D39   D(11,8,9,7)           180.0021         -DE/DX =    0.0                 !
 ! D40   D(11,8,9,12)           -0.0017         -DE/DX =    0.0                 !
 --------------------------------------------------------------------------------
 GradGradGradGradGradGradGradGradGradGradGradGradGradGradGradGradGradGrad

                          Input orientation:                          
 ---------------------------------------------------------------------
 Center     Atomic      Atomic             Coordinates (Angstroms)
 Number     Number       Type             X           Y           Z
 ---------------------------------------------------------------------
      1          6           0       -2.193753    0.686015   -0.000013
      2          6           0       -2.161478   -0.700688    0.000042
      3          6           0       -0.908126   -1.449941    0.000080
      4          6           0        0.249405   -0.656714    0.000071
      5          6           0        0.246393    0.757928    0.000008
      6          6           0       -0.995839    1.476298   -0.000032
      7          7           0        1.593242   -1.060270    0.000083
      8          6           0        1.610431    1.168361   -0.000017
      9          6           0        2.433595   -0.014659    0.000075
     10          1           0        1.885028   -2.029926    0.000186
     11          1           0        1.993607    2.183139   -0.000078
     12          1           0        3.509542   -0.130957    0.000077
     13          1           0       -3.094921   -1.260775    0.000056
     14          1           0       -0.888068   -2.535868    0.000079
     15          1           0       -3.156968    1.193301   -0.000041
     16          1           0       -1.025188    2.562202   -0.000042
 ---------------------------------------------------------------------
                    Distance matrix (angstroms):
                    1          2          3          4          5
     1  C    0.000000
     2  C    1.387079   0.000000
     3  C    2.493019   1.460230   0.000000
     4  C    2.787820   2.411284   1.403242   0.000000
     5  C    2.441205   2.815209   2.491506   1.414645   0.000000
     6  C    1.435112   2.469410   2.927554   2.469893   1.434989
     7  N    4.170233   3.771899   2.531538   1.403123   2.262709
     8  C    3.834641   4.209589   3.632992   2.276683   1.424449
     9  C    4.680095   4.646002   3.636913   2.276603   2.319644
    10  H    4.900285   4.259236   2.852735   2.135644   3.233769
    11  H    4.446950   5.057785   4.649659   3.332717   2.254769
    12  H    5.761511   5.699566   4.610370   3.302258   3.382050
    13  H    2.145250   1.088584   2.194961   3.398442   3.903786
    14  H    3.476398   2.233710   1.086112   2.196603   3.483690
    15  H    1.088633   2.139672   3.470449   3.876330   3.431095
    16  H    2.210344   3.455084   4.013850   3.462081   2.207333
                    6          7          8          9         10
     6  C    0.000000
     7  N    3.624571   0.000000
     8  C    2.624398   2.228697   0.000000
     9  C    3.739515   1.341453   1.441227   0.000000
    10  H    4.537952   1.012606   3.210053   2.088595   0.000000
    11  H    3.071874   3.268026   1.084712   2.241407   4.214464
    12  H    4.783484   2.129749   2.301054   1.082214   2.499025
    13  H    3.449307   4.692449   5.295379   5.667212   5.038997
    14  H    4.013614   2.886916   4.468088   4.170125   2.818872
    15  H    2.179579   5.257668   4.767463   5.719577   5.984223
    16  H    1.086300   4.469729   2.981489   4.313165   5.436635
                   11         12         13         14         15
    11  H    0.000000
    12  H    2.766423   0.000000
    13  H    6.144401   6.700404   0.000000
    14  H    5.529293   5.012242   2.548737   0.000000
    15  H    5.244826   6.796764   2.454861   4.365159   0.000000
    16  H    3.042501   5.274170   4.347292   5.099913   2.533451
                   16
    16  H    0.000000
 Stoichiometry    C8H7N
 Framework group  C1[X(C8H7N)]
 Deg. of freedom    42
 Full point group                 C1      NOp   1
 Largest Abelian subgroup         C1      NOp   1
 Largest concise Abelian subgroup C1      NOp   1
                         Standard orientation:                         
 ---------------------------------------------------------------------
 Center     Atomic      Atomic             Coordinates (Angstroms)
 Number     Number       Type             X           Y           Z
 ---------------------------------------------------------------------
      1          6           0       -2.205660    0.647252   -0.000047
      2          6           0       -2.150574   -0.738732    0.000008
      3          6           0       -0.885065   -1.467263    0.000046
      4          6           0        0.259259   -0.655099    0.000037
      5          6           0        0.232972    0.759303   -0.000026
      6          6           0       -1.020910    1.457137   -0.000066
      7          7           0        1.609553   -1.036491    0.000049
      8          6           0        1.590073    1.192121   -0.000051
      9          6           0        2.432590    0.022805    0.000041
     10          1           0        1.917254   -2.001215    0.000152
     11          1           0        1.956502    2.213066   -0.000112
     12          1           0        3.510304   -0.075775    0.000043
     13          1           0       -3.074676   -1.314101    0.000022
     14          1           0       -0.847143   -2.552713    0.000045
     15          1           0       -3.177091    1.138622   -0.000075
     16          1           0       -1.068121    2.542410   -0.000076
 ---------------------------------------------------------------------
 Rotational constants (GHZ):           3.8237627           1.5971749           1.1265981

 **********************************************************************

            Population analysis using the CI Density.

 **********************************************************************

 Orbital symmetries:
       Occupied  (A) (A) (A) (A) (A) (A) (A) (A) (A) (A) (A) (A)
                 (A) (A) (A) (A) (A) (A) (A) (A) (A) (A) (A) (A)
                 (A) (A) (A) (A) (A) (A) (A)
       Virtual   (A) (A) (A) (A) (A) (A) (A) (A) (A) (A) (A) (A)
                 (A) (A) (A) (A) (A) (A) (A) (A) (A) (A) (A) (A)
                 (A) (A) (A) (A) (A) (A) (A) (A) (A) (A) (A) (A)
                 (A) (A) (A) (A) (A) (A) (A) (A) (A) (A) (A) (A)
                 (A) (A) (A) (A) (A) (A) (A) (A) (A) (A) (A) (A)
                 (A) (A) (A) (A) (A) (A) (A) (A) (A) (A) (A) (A)
                 (A) (A) (A) (A) (A) (A) (A) (A) (A) (A) (A) (A)
                 (A) (A) (A) (A) (A) (A) (A) (A) (A) (A) (A) (A)
                 (A) (A) (A) (A) (A) (A) (A) (A) (A) (A) (A) (A)
                 (A) (A) (A) (A) (A) (A) (A) (A) (A) (A) (A) (A)
                 (A) (A) (A) (A) (A) (A) (A) (A) (A) (A) (A) (A)
                 (A) (A) (A) (A) (A) (A) (A) (A) (A) (A) (A) (A)
                 (A) (A) (A) (A) (A) (A) (A) (A) (A) (A)
 The electronic state is 1-A.
 Alpha  occ. eigenvalues --  -14.72822 -10.52866 -10.52123 -10.49512 -10.48775
 Alpha  occ. eigenvalues --  -10.48489 -10.48441 -10.48059 -10.47299  -1.06711
 Alpha  occ. eigenvalues --   -0.90654  -0.84326  -0.80580  -0.77105  -0.68765
 Alpha  occ. eigenvalues --   -0.65247  -0.63222  -0.59395  -0.53463  -0.52164
 Alpha  occ. eigenvalues --   -0.48256  -0.47678  -0.47346  -0.44722  -0.43420
 Alpha  occ. eigenvalues --   -0.38924  -0.38443  -0.37636  -0.30984  -0.26365
 Alpha  occ. eigenvalues --   -0.22286
 Alpha virt. eigenvalues --   -0.00334   0.03001   0.04897   0.04926   0.05561
 Alpha virt. eigenvalues --    0.06593   0.07053   0.07512   0.09085   0.09403
 Alpha virt. eigenvalues --    0.09946   0.10166   0.12472   0.12877   0.13444
 Alpha virt. eigenvalues --    0.13590   0.14894   0.16619   0.17401   0.17551
 Alpha virt. eigenvalues --    0.18420   0.19281   0.19700   0.20311   0.20484
 Alpha virt. eigenvalues --    0.20909   0.22016   0.22808   0.22844   0.23130
 Alpha virt. eigenvalues --    0.23585   0.23883   0.24955   0.25439   0.26667
 Alpha virt. eigenvalues --    0.27055   0.27185   0.27392   0.28286   0.29392
 Alpha virt. eigenvalues --    0.30006   0.30465   0.31445   0.32621   0.33727
 Alpha virt. eigenvalues --    0.34612   0.35805   0.37273   0.39298   0.39453
 Alpha virt. eigenvalues --    0.40837   0.43331   0.46456   0.49633   0.55668
 Alpha virt. eigenvalues --    0.61827   0.64895   0.71909   0.72782   0.75056
 Alpha virt. eigenvalues --    0.76819   0.77541   0.77918   0.78279   0.78790
 Alpha virt. eigenvalues --    0.80899   0.80947   0.82836   0.83479   0.84559
 Alpha virt. eigenvalues --    0.86329   0.90823   0.94188   0.96179   0.96835
 Alpha virt. eigenvalues --    1.01061   1.01435   1.01964   1.03272   1.04340
 Alpha virt. eigenvalues --    1.05688   1.09555   1.11681   1.13692   1.15838
 Alpha virt. eigenvalues --    1.17367   1.19286   1.23450   1.23858   1.27415
 Alpha virt. eigenvalues --    1.29248   1.30712   1.31544   1.38112   1.39102
 Alpha virt. eigenvalues --    1.42347   1.42377   1.46642   1.47851   1.49881
 Alpha virt. eigenvalues --    1.54199   1.54983   1.56573   1.57394   1.60671
 Alpha virt. eigenvalues --    1.64677   1.69946   1.84540   1.90112   1.96425
 Alpha virt. eigenvalues --    1.97168   1.97457   2.02268   2.07197   2.07341
 Alpha virt. eigenvalues --    2.08403   2.10726   2.13785   2.19050   2.22085
 Alpha virt. eigenvalues --    2.23262   2.27310   2.28028   2.30551   2.33379
 Alpha virt. eigenvalues --    2.34542   2.37677   2.43118   2.46664   2.52478
 Alpha virt. eigenvalues --    2.59077   2.61469   2.66894   2.69874   2.71057
 Alpha virt. eigenvalues --    2.72850   2.79148   2.85626   2.89237   2.90651
 Alpha virt. eigenvalues --    3.00683   3.03487   3.15582   3.28772   3.45045
 Alpha virt. eigenvalues --    4.23863   4.30801   4.34854   4.37954   4.42504
 Alpha virt. eigenvalues --    4.46966   4.54088   4.58354   4.83159
          Condensed to atoms (all electrons):
               1          2          3          4          5          6
     1  C    5.522967   0.442018   0.247285  -0.326993  -0.181891  -0.001297
     2  C    0.442018   5.730098  -0.318989   0.196192  -0.260884   0.440184
     3  C    0.247285  -0.318989  14.491475  -2.694644  -4.657101  -2.352919
     4  C   -0.326993   0.196192  -2.694644  13.291830  -3.040008  -1.280280
     5  C   -0.181891  -0.260884  -4.657101  -3.040008  15.918132  -0.297341
     6  C   -0.001297   0.440184  -2.352919  -1.280280  -0.297341  11.653842
     7  N   -0.021297   0.024444  -0.433060  -0.331586   0.766038   0.121242
     8  C    0.121476  -0.258132   3.332450   1.443756  -5.696628  -2.626031
     9  C   -0.067379   0.033605  -1.250028  -0.361874   1.882523   0.676185
    10  H   -0.004122  -0.003883  -0.125368  -0.044132   0.140257   0.017517
    11  H    0.006055   0.001655  -0.005211  -0.055040   0.054458   0.067899
    12  H    0.001620  -0.000805   0.029834   0.077372  -0.081495  -0.019878
    13  H    0.001508   0.296003  -0.059790   0.041752  -0.011404   0.029910
    14  H    0.005807   0.007292   0.095031   0.150702   0.040402   0.002224
    15  H    0.294392  -0.004438   0.037333  -0.030836   0.047706  -0.055594
    16  H   -0.007421   0.014865  -0.028110   0.012020   0.106360   0.236232
               7          8          9         10         11         12
     1  C   -0.021297   0.121476  -0.067379  -0.004122   0.006055   0.001620
     2  C    0.024444  -0.258132   0.033605  -0.003883   0.001655  -0.000805
     3  C   -0.433060   3.332450  -1.250028  -0.125368  -0.005211   0.029834
     4  C   -0.331586   1.443756  -0.361874  -0.044132  -0.055040   0.077372
     5  C    0.766038  -5.696628   1.882523   0.140257   0.054458  -0.081495
     6  C    0.121242  -2.626031   0.676185   0.017517   0.067899  -0.019878
     7  N    7.208844  -0.643426   0.532961   0.259716   0.008210  -0.050514
     8  C   -0.643426  11.999730  -2.012053   0.020639   0.234905   0.033387
     9  C    0.532961  -2.012053   6.516438  -0.033358  -0.019633   0.321995
    10  H    0.259716   0.020639  -0.033358   0.333049  -0.000079  -0.002167
    11  H    0.008210   0.234905  -0.019633  -0.000079   0.475651  -0.000189
    12  H   -0.050514   0.033387   0.321995  -0.002167  -0.000189   0.457134
    13  H   -0.000226  -0.003737   0.001956  -0.000002   0.000000  -0.000000
    14  H   -0.007359  -0.026360   0.017519   0.002268   0.000002   0.000002
    15  H    0.000279   0.008512  -0.000848  -0.000000  -0.000002  -0.000000
    16  H   -0.000222  -0.054354   0.005757   0.000004   0.001460  -0.000001
              13         14         15         16
     1  C    0.001508   0.005807   0.294392  -0.007421
     2  C    0.296003   0.007292  -0.004438   0.014865
     3  C   -0.059790   0.095031   0.037333  -0.028110
     4  C    0.041752   0.150702  -0.030836   0.012020
     5  C   -0.011404   0.040402   0.047706   0.106360
     6  C    0.029910   0.002224  -0.055594   0.236232
     7  N   -0.000226  -0.007359   0.000279  -0.000222
     8  C   -0.003737  -0.026360   0.008512  -0.054354
     9  C    0.001956   0.017519  -0.000848   0.005757
    10  H   -0.000002   0.002268  -0.000000   0.000004
    11  H    0.000000   0.000002  -0.000002   0.001460
    12  H   -0.000000   0.000002  -0.000000  -0.000001
    13  H    0.533441  -0.003135  -0.004530  -0.000145
    14  H   -0.003135   0.535866  -0.000138   0.000014
    15  H   -0.004530  -0.000138   0.534345  -0.003101
    16  H   -0.000145   0.000014  -0.003101   0.533711
 Mulliken charges:
               1
     1  C   -0.032729
     2  C   -0.339226
     3  C   -0.308187
     4  C   -1.048229
     5  C    1.270874
     6  C   -0.611895
     7  N   -0.434045
     8  C    0.125866
     9  C   -0.243768
    10  H    0.439662
    11  H    0.229859
    12  H    0.233703
    13  H    0.178399
    14  H    0.179864
    15  H    0.176919
    16  H    0.182934
 Sum of Mulliken charges =   0.00000
 Mulliken charges with hydrogens summed into heavy atoms:
               1
     1  C    0.144190
     2  C   -0.160826
     3  C   -0.128324
     4  C   -1.048229
     5  C    1.270874
     6  C   -0.428961
     7  N    0.005617
     8  C    0.355724
     9  C   -0.010066
 Electronic spatial extent (au):  <R**2>=           1029.9945
 Charge=              0.0000 electrons
 Dipole moment (field-independent basis, Debye):
    X=              4.4928    Y=             -1.3352    Z=              0.0001  Tot=              4.6869
 Quadrupole moment (field-independent basis, Debye-Ang):
   XX=            -43.8273   YY=            -46.0317   ZZ=            -60.5939
   XY=             -2.3958   XZ=              0.0003   YZ=             -0.0006
 Traceless Quadrupole moment (field-independent basis, Debye-Ang):
   XX=              6.3236   YY=              4.1193   ZZ=            -10.4429
   XY=             -2.3958   XZ=              0.0003   YZ=             -0.0006
 Octapole moment (field-independent basis, Debye-Ang**2):
  XXX=             30.1670  YYY=             -9.2153  ZZZ=              0.0000  XYY=             15.6487
  XXY=             -7.1440  XXZ=              0.0004  XZZ=              5.5859  YZZ=             -1.4851
  YYZ=              0.0003  XYZ=             -0.0012
 Hexadecapole moment (field-independent basis, Debye-Ang**3):
 XXXX=           -835.0663 YYYY=           -394.3445 ZZZZ=            -83.0897 XXXY=            -18.5068
 XXXZ=             -0.0026 YYYX=            -15.4580 YYYZ=              0.0045 ZZZX=             -0.0056
 ZZZY=              0.0097 XXYY=           -197.4013 XXZZ=           -200.5095 YYZZ=           -103.8714
 XXYZ=             -0.0008 YYXZ=             -0.0001 ZZXY=             -2.0786
 N-N= 3.963516489090D+02 E-N=-1.634304992935D+03  KE= 3.597282056941D+02
 Unable to Open any file for archive entry.
 1\1\GINC-EXP-2-22\FOpt\RBMK TD-FC\6-31+G(d)\C8H7N1\CWALDT\23-Jun-2021\
 0\\# td= (nstates=6, root=1) BMK/6-31+G* Opt density=current\\FuncsBMK
 -V-1st\\0,1\C,-2.1937527594,0.6860151121,-0.0000131319\C,-2.1614778274
 ,-0.7006878708,0.0000418537\C,-0.9081263032,-1.4499409616,0.0000804201
 \C,0.2494052756,-0.656713706,0.0000714443\C,0.2463925712,0.7579284924,
 0.0000082024\C,-0.9958386094,1.4762983051,-0.0000316332\N,1.5932417887
 ,-1.0602703537,0.0000832356\C,1.6104306284,1.1683607125,-0.0000168417\
 C,2.4335950885,-0.0146590037,0.0000751655\H,1.8850284365,-2.0299261738
 ,0.0001859033\H,1.9936074595,2.1831388039,-0.0000780054\H,3.5095416564
 ,-0.1309568727,0.0000766142\H,-3.0949210776,-1.2607751812,0.0000564831
 \H,-0.8880679757,-2.5358680743,0.0000793426\H,-3.1569676098,1.19330123
 97,-0.0000409022\H,-1.0251877424,2.562201532,-0.0000421506\\Version=AS
 64L-G16RevC.01\State=1-A\HF=-363.5735216\RMSD=5.134e-09\RMSF=1.620e-04
 \Dipole=1.7675864,-0.5252893,0.0000396\Quadrupole=4.7014699,3.06259,-7
 .7640598,-1.7812115,0.000213,-0.0004222\PG=C01 [X(C8H7N1)]\\@
 The archive entry for this job was punched.


 CHILDREN YOU ARE VERY LITTLE,
 AND YOUR BONES ARE VERY BRITTLE;
 IF YOU WOULD GROW GREAT AND STATELY
 YOU MUST TRY TO WALK SEDATELY.
 YOU MUST STILL BE BRIGHT AND QUIET,
 AND CONTENT WITH SIMPLE DIET;
 AND REMAIN, THROUGH ALL BEWILD'RING
 INNOCENT AND HONEST CHILDREN.
     -- A CHILD'S GARDEN OF VERSE,
        ROBERT LOUIS STEVENSON
 Job cpu time:       0 days  4 hours 57 minutes 42.6 seconds.
 Elapsed time:       0 days  1 hours 15 minutes 21.7 seconds.
 File lengths (MBytes):  RWF=    238 Int=      0 D2E=      0 Chk=     11 Scr=      1
 Normal termination of Gaussian 16 at Wed Jun 23 09:48:14 2021.
