 Entering Gaussian System, Link 0=/cm/shared/apps/spack/cpu/opt/spack/linux-centos8-zen/gcc-8.3.1/gaussian-16.C.01-po5bqktfeugvmjyga3v7eigbecnokxng/g16/g16
 Initial command:
 /cm/shared/apps/spack/cpu/opt/spack/linux-centos8-zen/gcc-8.3.1/gaussian-16.C.01-po5bqktfeugvmjyga3v7eigbecnokxng/g16/l1.exe "/scratch/cwaldt/job_3581965/Gau-16594.inp" -scrdir="/scratch/cwaldt/job_3581965/"
 Entering Link 1 = /cm/shared/apps/spack/cpu/opt/spack/linux-centos8-zen/gcc-8.3.1/gaussian-16.C.01-po5bqktfeugvmjyga3v7eigbecnokxng/g16/l1.exe PID=     16595.
  
 Copyright (c) 1988-2019, Gaussian, Inc.  All Rights Reserved.
  
 This is part of the Gaussian(R) 16 program.  It is based on
 the Gaussian(R) 09 system (copyright 2009, Gaussian, Inc.),
 the Gaussian(R) 03 system (copyright 2003, Gaussian, Inc.),
 the Gaussian(R) 98 system (copyright 1998, Gaussian, Inc.),
 the Gaussian(R) 94 system (copyright 1995, Gaussian, Inc.),
 the Gaussian 92(TM) system (copyright 1992, Gaussian, Inc.),
 the Gaussian 90(TM) system (copyright 1990, Gaussian, Inc.),
 the Gaussian 88(TM) system (copyright 1988, Gaussian, Inc.),
 the Gaussian 86(TM) system (copyright 1986, Carnegie Mellon
 University), and the Gaussian 82(TM) system (copyright 1983,
 Carnegie Mellon University). Gaussian is a federally registered
 trademark of Gaussian, Inc.
  
 This software contains proprietary and confidential information,
 including trade secrets, belonging to Gaussian, Inc.
  
 This software is provided under written license and may be
 used, copied, transmitted, or stored only in accord with that
 written license.
  
 The following legend is applicable only to US Government
 contracts under FAR:
  
                    RESTRICTED RIGHTS LEGEND
  
 Use, reproduction and disclosure by the US Government is
 subject to restrictions as set forth in subparagraphs (a)
 and (c) of the Commercial Computer Software - Restricted
 Rights clause in FAR 52.227-19.
  
 Gaussian, Inc.
 340 Quinnipiac St., Bldg. 40, Wallingford CT 06492
  
  
 ---------------------------------------------------------------
 Warning -- This program may not be used in any manner that
 competes with the business of Gaussian, Inc. or will provide
 assistance to any competitor of Gaussian, Inc.  The licensee
 of this program is prohibited from giving any competitor of
 Gaussian, Inc. access to this program.  By using this program,
 the user acknowledges that Gaussian, Inc. is engaged in the
 business of creating and licensing software in the field of
 computational chemistry and represents and warrants to the
 licensee that it is not a competitor of Gaussian, Inc. and that
 it will not use this program in any manner prohibited above.
 ---------------------------------------------------------------
  

 Cite this work as:
 Gaussian 16, Revision C.01,
 M. J. Frisch, G. W. Trucks, H. B. Schlegel, G. E. Scuseria, 
 M. A. Robb, J. R. Cheeseman, G. Scalmani, V. Barone, 
 G. A. Petersson, H. Nakatsuji, X. Li, M. Caricato, A. V. Marenich, 
 J. Bloino, B. G. Janesko, R. Gomperts, B. Mennucci, H. P. Hratchian, 
 J. V. Ortiz, A. F. Izmaylov, J. L. Sonnenberg, D. Williams-Young, 
 F. Ding, F. Lipparini, F. Egidi, J. Goings, B. Peng, A. Petrone, 
 T. Henderson, D. Ranasinghe, V. G. Zakrzewski, J. Gao, N. Rega, 
 G. Zheng, W. Liang, M. Hada, M. Ehara, K. Toyota, R. Fukuda, 
 J. Hasegawa, M. Ishida, T. Nakajima, Y. Honda, O. Kitao, H. Nakai, 
 T. Vreven, K. Throssell, J. A. Montgomery, Jr., J. E. Peralta, 
 F. Ogliaro, M. J. Bearpark, J. J. Heyd, E. N. Brothers, K. N. Kudin, 
 V. N. Staroverov, T. A. Keith, R. Kobayashi, J. Normand, 
 K. Raghavachari, A. P. Rendell, J. C. Burant, S. S. Iyengar, 
 J. Tomasi, M. Cossi, J. M. Millam, M. Klene, C. Adamo, R. Cammi, 
 J. W. Ochterski, R. L. Martin, K. Morokuma, O. Farkas, 
 J. B. Foresman, and D. J. Fox, Gaussian, Inc., Wallingford CT, 2019.
 
 ******************************************
 Gaussian 16:  AS64L-G16RevC.01  3-Jul-2019
                23-Jun-2021 
 ******************************************
 %nprocshared=4
 Will use up to    4 processors via shared memory.
 %chk=FuncsWB97XD-V-3rd.chk
 %Mem=3GB
 ------------------------------------------------------------
 # td= (nstates=6, root=3) WB97XD/6-31+G* Opt density=current
 ------------------------------------------------------------
 1/18=20,19=15,26=3,38=1/1,3;
 2/9=110,12=2,17=6,18=5,40=1/2;
 3/5=1,6=6,7=11,11=9,25=1,30=1,71=1,74=-58/1,2,3,8;
 4//1;
 5/5=2,38=5/2;
 8/6=1,10=2,107=3,108=6/1;
 9/8=3,15=2,41=6,42=1,70=2/14;
 10/5=4,28=3/2;
 6/7=2,8=2,9=2,10=2,22=-1/1;
 7/12=6,13=5,14=3/1,2,3,16;
 1/18=20,19=15,26=3/3(2);
 2/9=110/2;
 99//99;
 2/9=110/2;
 3/5=1,6=6,7=11,11=9,25=1,30=1,71=1,74=-58/1,2,3,8;
 4/5=5,16=3,69=1/1;
 5/5=2,38=5/2;
 8/6=1,10=2,107=3,108=6/1;
 9/8=3,15=2,41=6,42=1,49=4,70=2/14;
 10/5=4,28=3/2;
 7/12=6,13=5,14=3/1,2,3,16;
 1/18=20,19=15,26=3/3(-8);
 2/9=110/2;
 6/7=2,8=2,9=2,10=2,22=-1/1;
 99/9=10/99;
 -----------------
 FuncsWB97XD-V-3rd
 -----------------
 Symbolic Z-matrix:
 Charge =  0 Multiplicity = 1
 C                    -2.15106   0.68921   0.00009 
 C                    -2.12793  -0.71582   0.00008 
 C                    -0.9323   -1.4131   -0.00001 
 C                     0.24691  -0.6702   -0.00004 
 C                     0.24819   0.7483    0. 
 C                    -0.97947   1.42353   0.00003 
 N                     1.56177  -1.07759  -0.00029 
 C                     1.62013   1.1629   -0.00016 
 C                     2.38201   0.03081   0.00025 
 H                     1.87632  -2.03001   0.00044 
 H                     1.99217   2.17301  -0.00035 
 H                     3.45255  -0.08243   0.00041 
 H                    -3.06159  -1.26202   0.00009 
 H                    -0.91725  -2.49534  -0.00007 
 H                    -3.1042    1.20079   0.00009 
 H                    -1.00935   2.50542  -0.00002 
 

 GradGradGradGradGradGradGradGradGradGradGradGradGradGradGradGradGradGrad
 Berny optimization.
 Initialization pass.
                           ----------------------------
                           !    Initial Parameters    !
                           ! (Angstroms and Degrees)  !
 --------------------------                            --------------------------
 ! Name  Definition              Value          Derivative Info.                !
 --------------------------------------------------------------------------------
 ! R1    R(1,2)                  1.4052         estimate D2E/DX2                !
 ! R2    R(1,6)                  1.3827         estimate D2E/DX2                !
 ! R3    R(1,15)                 1.0818         estimate D2E/DX2                !
 ! R4    R(2,3)                  1.3841         estimate D2E/DX2                !
 ! R5    R(2,13)                 1.0817         estimate D2E/DX2                !
 ! R6    R(3,4)                  1.3937         estimate D2E/DX2                !
 ! R7    R(3,14)                 1.0823         estimate D2E/DX2                !
 ! R8    R(4,5)                  1.4185         estimate D2E/DX2                !
 ! R9    R(4,7)                  1.3765         estimate D2E/DX2                !
 ! R10   R(5,6)                  1.4011         estimate D2E/DX2                !
 ! R11   R(5,8)                  1.4332         estimate D2E/DX2                !
 ! R12   R(6,16)                 1.0823         estimate D2E/DX2                !
 ! R13   R(7,9)                  1.3789         estimate D2E/DX2                !
 ! R14   R(7,10)                 1.003          estimate D2E/DX2                !
 ! R15   R(8,9)                  1.3646         estimate D2E/DX2                !
 ! R16   R(8,11)                 1.0764         estimate D2E/DX2                !
 ! R17   R(9,12)                 1.0765         estimate D2E/DX2                !
 ! A1    A(2,1,6)              121.1349         estimate D2E/DX2                !
 ! A2    A(2,1,15)             119.1671         estimate D2E/DX2                !
 ! A3    A(6,1,15)             119.698          estimate D2E/DX2                !
 ! A4    A(1,2,3)              121.1938         estimate D2E/DX2                !
 ! A5    A(1,2,13)             119.3846         estimate D2E/DX2                !
 ! A6    A(3,2,13)             119.4217         estimate D2E/DX2                !
 ! A7    A(2,3,4)              117.5387         estimate D2E/DX2                !
 ! A8    A(2,3,14)             121.0469         estimate D2E/DX2                !
 ! A9    A(4,3,14)             121.4144         estimate D2E/DX2                !
 ! A10   A(3,4,5)              122.2626         estimate D2E/DX2                !
 ! A11   A(3,4,7)              130.5743         estimate D2E/DX2                !
 ! A12   A(5,4,7)              107.163          estimate D2E/DX2                !
 ! A13   A(4,5,6)              118.7594         estimate D2E/DX2                !
 ! A14   A(4,5,8)              106.8666         estimate D2E/DX2                !
 ! A15   A(6,5,8)              134.374          estimate D2E/DX2                !
 ! A16   A(1,6,5)              119.1105         estimate D2E/DX2                !
 ! A17   A(1,6,16)             120.4966         estimate D2E/DX2                !
 ! A18   A(5,6,16)             120.3928         estimate D2E/DX2                !
 ! A19   A(4,7,9)              109.2874         estimate D2E/DX2                !
 ! A20   A(4,7,10)             125.4909         estimate D2E/DX2                !
 ! A21   A(9,7,10)             125.2217         estimate D2E/DX2                !
 ! A22   A(5,8,9)              107.125          estimate D2E/DX2                !
 ! A23   A(5,8,11)             127.0344         estimate D2E/DX2                !
 ! A24   A(9,8,11)             125.8405         estimate D2E/DX2                !
 ! A25   A(7,9,8)              109.5578         estimate D2E/DX2                !
 ! A26   A(7,9,12)             120.4645         estimate D2E/DX2                !
 ! A27   A(8,9,12)             129.9776         estimate D2E/DX2                !
 ! D1    D(6,1,2,3)             -0.0008         estimate D2E/DX2                !
 ! D2    D(6,1,2,13)          -179.9981         estimate D2E/DX2                !
 ! D3    D(15,1,2,3)           179.996          estimate D2E/DX2                !
 ! D4    D(15,1,2,13)           -0.0013         estimate D2E/DX2                !
 ! D5    D(2,1,6,5)             -0.0018         estimate D2E/DX2                !
 ! D6    D(2,1,6,16)           179.9965         estimate D2E/DX2                !
 ! D7    D(15,1,6,5)          -179.9986         estimate D2E/DX2                !
 ! D8    D(15,1,6,16)           -0.0003         estimate D2E/DX2                !
 ! D9    D(1,2,3,4)              0.002          estimate D2E/DX2                !
 ! D10   D(1,2,3,14)          -179.9968         estimate D2E/DX2                !
 ! D11   D(13,2,3,4)           179.9992         estimate D2E/DX2                !
 ! D12   D(13,2,3,14)            0.0005         estimate D2E/DX2                !
 ! D13   D(2,3,4,5)             -0.0005         estimate D2E/DX2                !
 ! D14   D(2,3,4,7)           -179.9911         estimate D2E/DX2                !
 ! D15   D(14,3,4,5)           179.9982         estimate D2E/DX2                !
 ! D16   D(14,3,4,7)             0.0076         estimate D2E/DX2                !
 ! D17   D(3,4,5,6)             -0.002          estimate D2E/DX2                !
 ! D18   D(3,4,5,8)           -179.9955         estimate D2E/DX2                !
 ! D19   D(7,4,5,6)            179.9905         estimate D2E/DX2                !
 ! D20   D(7,4,5,8)             -0.003          estimate D2E/DX2                !
 ! D21   D(3,4,7,9)           -179.98           estimate D2E/DX2                !
 ! D22   D(3,4,7,10)            -0.0649         estimate D2E/DX2                !
 ! D23   D(5,4,7,9)              0.0284         estimate D2E/DX2                !
 ! D24   D(5,4,7,10)           179.9434         estimate D2E/DX2                !
 ! D25   D(4,5,6,1)              0.0031         estimate D2E/DX2                !
 ! D26   D(4,5,6,16)          -179.9951         estimate D2E/DX2                !
 ! D27   D(8,5,6,1)            179.9944         estimate D2E/DX2                !
 ! D28   D(8,5,6,16)            -0.0038         estimate D2E/DX2                !
 ! D29   D(4,5,8,9)             -0.0234         estimate D2E/DX2                !
 ! D30   D(4,5,8,11)           179.9883         estimate D2E/DX2                !
 ! D31   D(6,5,8,9)            179.9846         estimate D2E/DX2                !
 ! D32   D(6,5,8,11)            -0.0037         estimate D2E/DX2                !
 ! D33   D(4,7,9,8)             -0.0444         estimate D2E/DX2                !
 ! D34   D(4,7,9,12)           179.9847         estimate D2E/DX2                !
 ! D35   D(10,7,9,8)          -179.9597         estimate D2E/DX2                !
 ! D36   D(10,7,9,12)            0.0693         estimate D2E/DX2                !
 ! D37   D(5,8,9,7)              0.0414         estimate D2E/DX2                !
 ! D38   D(5,8,9,12)          -179.9913         estimate D2E/DX2                !
 ! D39   D(11,8,9,7)          -179.9702         estimate D2E/DX2                !
 ! D40   D(11,8,9,12)           -0.0029         estimate D2E/DX2                !
 --------------------------------------------------------------------------------
 Trust Radius=3.00D-01 FncErr=1.00D-07 GrdErr=1.00D-06 EigMax=2.50D+02 EigMin=1.00D-04
 Number of steps in this run=     94 maximum allowed number of steps=    100.
 GradGradGradGradGradGradGradGradGradGradGradGradGradGradGradGradGradGrad

                          Input orientation:                          
 ---------------------------------------------------------------------
 Center     Atomic      Atomic             Coordinates (Angstroms)
 Number     Number       Type             X           Y           Z
 ---------------------------------------------------------------------
      1          6           0       -2.151063    0.689208    0.000088
      2          6           0       -2.127927   -0.715818    0.000075
      3          6           0       -0.932297   -1.413100   -0.000011
      4          6           0        0.246911   -0.670201   -0.000042
      5          6           0        0.248193    0.748299    0.000000
      6          6           0       -0.979474    1.423526    0.000032
      7          7           0        1.561774   -1.077592   -0.000285
      8          6           0        1.620133    1.162900   -0.000157
      9          6           0        2.382013    0.030806    0.000248
     10          1           0        1.876315   -2.030011    0.000438
     11          1           0        1.992173    2.173010   -0.000348
     12          1           0        3.452549   -0.082425    0.000408
     13          1           0       -3.061594   -1.262020    0.000088
     14          1           0       -0.917252   -2.495342   -0.000073
     15          1           0       -3.104203    1.200785    0.000090
     16          1           0       -1.009348    2.505421   -0.000015
 ---------------------------------------------------------------------
                    Distance matrix (angstroms):
                    1          2          3          4          5
     1  C    0.000000
     2  C    1.405216   0.000000
     3  C    2.430039   1.384100   0.000000
     4  C    2.756496   2.375276   1.393711   0.000000
     5  C    2.399984   2.790983   2.462763   1.418501   0.000000
     6  C    1.382694   2.428114   2.837018   2.426461   1.401106
     7  N    4.111781   3.707395   2.516536   1.376529   2.249305
     8  C    3.800829   4.192557   3.626386   2.290414   1.433218
     9  C    4.580641   4.571324   3.615178   2.247236   2.251218
    10  H    4.859416   4.214387   2.875566   2.122273   3.220216
    11  H    4.400917   5.031953   4.627387   3.336134   2.251948
    12  H    5.656491   5.616307   4.582311   3.259079   3.310287
    13  H    2.153220   1.081698   2.134650   3.361020   3.872476
    14  H    3.415208   2.152310   1.082347   2.164813   3.446661
    15  H    1.081752   2.150926   3.398466   3.838040   3.382795
    16  H    2.145261   3.409927   3.919278   3.415079   2.160761
                    6          7          8          9         10
     6  C    0.000000
     7  N    3.565604   0.000000
     8  C    2.612639   2.241252   0.000000
     9  C    3.638580   1.378890   1.364587   0.000000
    10  H    4.481345   1.003015   3.203172   2.121956   0.000000
    11  H    3.064704   3.278972   1.076446   2.177387   4.204618
    12  H    4.680888   2.136677   2.215532   1.076508   2.505515
    13  H    3.398144   4.627045   5.272457   5.595021   4.997275
    14  H    3.919362   2.855798   4.452085   4.155307   2.832058
    15  H    2.136372   5.192528   4.724488   5.609583   5.936632
    16  H    1.082307   4.410062   2.952378   4.198220   5.375611
                   11         12         13         14         15
    11  H    0.000000
    12  H    2.686947   0.000000
    13  H    6.110646   6.620083   0.000000
    14  H    5.500751   4.991726   2.473719   0.000000
    15  H    5.188282   6.681139   2.463174   4.294661   0.000000
    16  H    3.019872   5.158049   4.290143   5.001611   2.467892
                   16
    16  H    0.000000
 Stoichiometry    C8H7N
 Framework group  C1[X(C8H7N)]
 Deg. of freedom    42
 Full point group                 C1      NOp   1
 Largest Abelian subgroup         C1      NOp   1
 Largest concise Abelian subgroup C1      NOp   1
                         Standard orientation:                         
 ---------------------------------------------------------------------
 Center     Atomic      Atomic             Coordinates (Angstroms)
 Number     Number       Type             X           Y           Z
 ---------------------------------------------------------------------
      1          6           0       -2.151063    0.689208    0.000088
      2          6           0       -2.127927   -0.715818    0.000075
      3          6           0       -0.932297   -1.413100   -0.000011
      4          6           0        0.246911   -0.670201   -0.000042
      5          6           0        0.248193    0.748299    0.000000
      6          6           0       -0.979474    1.423526    0.000032
      7          7           0        1.561774   -1.077592   -0.000285
      8          6           0        1.620133    1.162900   -0.000157
      9          6           0        2.382013    0.030806    0.000248
     10          1           0        1.876315   -2.030011    0.000438
     11          1           0        1.992173    2.173010   -0.000348
     12          1           0        3.452549   -0.082425    0.000408
     13          1           0       -3.061594   -1.262020    0.000088
     14          1           0       -0.917252   -2.495342   -0.000073
     15          1           0       -3.104203    1.200785    0.000090
     16          1           0       -1.009348    2.505421   -0.000015
 ---------------------------------------------------------------------
 Rotational constants (GHZ):           3.9080822           1.6429452           1.1566805
 Standard basis: 6-31+G(d) (6D, 7F)
 There are   185 symmetry adapted cartesian basis functions of A   symmetry.
 There are   185 symmetry adapted basis functions of A   symmetry.
   185 basis functions,   316 primitive gaussians,   185 cartesian basis functions
    31 alpha electrons       31 beta electrons
       nuclear repulsion energy       401.3368668897 Hartrees.
 NAtoms=   16 NActive=   16 NUniq=   16 SFac= 1.00D+00 NAtFMM=   60 NAOKFM=F Big=F
 Integral buffers will be    131072 words long.
 Raffenetti 1 integral format.
 Two-electron integral symmetry is turned on.
 Nuclear repulsion after empirical dispersion term =      401.3294111108 Hartrees.
 One-electron integrals computed using PRISM.
 NBasis=   185 RedAO= T EigKep=  1.26D-06  NBF=   185
 NBsUse=   185 1.00D-06 EigRej= -1.00D+00 NBFU=   185
 ExpMin= 4.38D-02 ExpMax= 4.17D+03 ExpMxC= 6.27D+02 IAcc=3 IRadAn=         5 AccDes= 0.00D+00
 Harris functional with IExCor= 4639 and IRadAn=       5 diagonalized for initial guess.
 HarFok:  IExCor= 4639 AccDes= 0.00D+00 IRadAn=         5 IDoV= 1 UseB2=F ITyADJ=14
 ICtDFT=  3500011 ScaDFX=  1.000000  1.000000  1.000000  1.000000
 FoFCou: FMM=F IPFlag=           0 FMFlag=      100000 FMFlg1=           0
         NFxFlg=           0 DoJE=T BraDBF=F KetDBF=T FulRan=T
         wScrn=  0.000000 ICntrl=       500 IOpCl=  0 I1Cent=   200000004 NGrid=           0
         NMat0=    1 NMatS0=      1 NMatT0=    0 NMatD0=    1 NMtDS0=    0 NMtDT0=    0
 Petite list used in FoFCou.
 Keep R1 ints in memory in canonical form, NReq=303303409.
 Requested convergence on RMS density matrix=1.00D-08 within 128 cycles.
 Requested convergence on MAX density matrix=1.00D-06.
 Requested convergence on             energy=1.00D-06.
 No special actions if energy rises.
 SCF Done:  E(RwB97XD) =  -363.703484374     A.U. after   15 cycles
            NFock= 15  Conv=0.63D-08     -V/T= 2.0093
 DoSCS=F DFT=T ScalE2(SS,OS)=  1.000000  1.000000
 ExpMin= 4.38D-02 ExpMax= 4.17D+03 ExpMxC= 6.27D+02 IAcc=3 IRadAn=         5 AccDes= 0.00D+00
 HarFok:  IExCor=  205 AccDes= 0.00D+00 IRadAn=         5 IDoV=-2 UseB2=F ITyADJ=14
 ICtDFT= 12500011 ScaDFX=  1.000000  1.000000  1.000000  1.000000
 Range of M.O.s used for correlation:    10   185
 NBasis=   185 NAE=    31 NBE=    31 NFC=     9 NFV=     0
 NROrb=    176 NOA=    22 NOB=    22 NVA=   154 NVB=   154

 **** Warning!!: The largest alpha MO coefficient is  0.16859340D+03

 Orbital symmetries:
       Occupied  (A) (A) (A) (A) (A) (A) (A) (A) (A) (A) (A) (A)
                 (A) (A) (A) (A) (A) (A) (A) (A) (A) (A) (A) (A)
                 (A) (A) (A) (A) (A) (A) (A)
       Virtual   (A) (A) (A) (A) (A) (A) (A) (A) (A) (A) (A) (A)
                 (A) (A) (A) (A) (A) (A) (A) (A) (A) (A) (A) (A)
                 (A) (A) (A) (A) (A) (A) (A) (A) (A) (A) (A) (A)
                 (A) (A) (A) (A) (A) (A) (A) (A) (A) (A) (A) (A)
                 (A) (A) (A) (A) (A) (A) (A) (A) (A) (A) (A) (A)
                 (A) (A) (A) (A) (A) (A) (A) (A) (A) (A) (A) (A)
                 (A) (A) (A) (A) (A) (A) (A) (A) (A) (A) (A) (A)
                 (A) (A) (A) (A) (A) (A) (A) (A) (A) (A) (A) (A)
                 (A) (A) (A) (A) (A) (A) (A) (A) (A) (A) (A) (A)
                 (A) (A) (A) (A) (A) (A) (A) (A) (A) (A) (A) (A)
                 (A) (A) (A) (A) (A) (A) (A) (A) (A) (A) (A) (A)
                 (A) (A) (A) (A) (A) (A) (A) (A) (A) (A) (A) (A)
                 (A) (A) (A) (A) (A) (A) (A) (A) (A) (A)
    24 initial guesses have been made.
 Convergence on wavefunction:    0.000001000000000
 Iteration     1 Dimension    24 NMult     0 NNew     24
 CISAX will form    24 AO SS matrices at one time.
 New state      1 was old state      3
 New state      2 was old state      1
 New state      3 was old state      2
 New state      5 was old state      6
 New state      6 was old state      5
 Iteration     2 Dimension    36 NMult    24 NNew     12
 Iteration     3 Dimension    48 NMult    36 NNew     12
 Iteration     4 Dimension    60 NMult    48 NNew     12
 Iteration     5 Dimension    72 NMult    60 NNew     12
 Iteration     6 Dimension    84 NMult    72 NNew     12
 Iteration     7 Dimension    96 NMult    84 NNew     12
 Iteration     8 Dimension   108 NMult    96 NNew     12
 No map to state      6
 Iteration     9 Dimension   120 NMult   108 NNew     12
 Iteration    10 Dimension   132 NMult   120 NNew     12
 Iteration    11 Dimension   140 NMult   132 NNew      8
 Iteration    12 Dimension   144 NMult   140 NNew      4
 Iteration    13 Dimension   146 NMult   144 NNew      2
 Iteration    14 Dimension   148 NMult   146 NNew      2
 Iteration    15 Dimension   150 NMult   148 NNew      2
 Iteration    16 Dimension   152 NMult   150 NNew      2
 ***********************************************************************
 Excited states from <AA,BB:AA,BB> singles matrix:
 ***********************************************************************
 
 Ground to excited state transition densities written to RWF  633
 Ground to excited state transition electric dipole moments (Au):
       state          X           Y           Z        Dip. S.      Osc.
         1        -0.0276     -0.5654      0.0000      0.3205      0.0399
         2        -0.8621      0.4139     -0.0002      0.9145      0.1150
         3         0.0004     -0.0003     -0.1750      0.0306      0.0043
         4        -0.0014     -0.0004     -0.1729      0.0299      0.0045
         5         0.0035      0.0010     -0.0527      0.0028      0.0004
         6        -1.8936     -0.6847     -0.0019      4.0546      0.6303
 Ground to excited state transition velocity dipole moments (Au):
       state          X           Y           Z        Dip. S.      Osc.
         1         0.0075      0.1129     -0.0000      0.0128      0.0457
         2         0.1518     -0.0843      0.0000      0.0301      0.1066
         3        -0.0001      0.0001      0.0278      0.0008      0.0025
         4         0.0003      0.0001      0.0399      0.0016      0.0047
         5        -0.0008     -0.0002      0.0118      0.0001      0.0004
         6         0.4315      0.1596      0.0004      0.2117      0.6052
 Ground to excited state transition magnetic dipole moments (Au):
       state          X           Y           Z
         1        -0.0002     -0.0001     -0.1576
         2         0.0002     -0.0002      0.0572
         3         0.1417     -0.1361     -0.0000
         4         0.1271     -0.3268     -0.0004
         5         0.1980     -0.3756      0.0012
         6        -0.0049     -0.0048     -0.8086
 Ground to excited state transition velocity quadrupole moments (Au):
       state          XX          YY          ZZ          XY          XZ          YZ
         1        -0.1064     -0.0009      0.0079     -0.0207     -0.0000     -0.0001
         2         0.2177     -0.1827      0.0250      0.0026      0.0002      0.0000
         3        -0.0002      0.0001      0.0001     -0.0000      0.1156      0.0662
         4         0.0001     -0.0001      0.0000     -0.0002      0.2485      0.0751
         5        -0.0006      0.0004      0.0000      0.0009      0.4067      0.2455
         6         0.1548     -0.1441     -0.0332     -0.5402      0.0035     -0.0031
 <0|del|b> * <b|rxdel|0> + <0|del|b> * <b|delr+rdel|0>
 Rotatory Strengths (R) in cgs (10**-40 erg-esu-cm/Gauss)
       state          XX          YY          ZZ    R(velocity)    E-M Angle
         1        -0.0168     -0.0040     -0.0218     -0.0142       90.00
         2         0.0649      0.0593      0.0414      0.0552       90.00
         3        -0.0313     -0.0213     -0.0100     -0.0209       90.00
         4        -0.1117      0.0856      0.0155     -0.0035       90.00
         5         0.3339     -0.5352      0.0462     -0.0517       90.00
         6        -2.9329     -5.3931     -1.5042     -3.2767       90.50
 1/2[<0|r|b>*<b|rxdel|0> + (<0|rxdel|b>*<b|r|0>)*]
 Rotatory Strengths (R) in cgs (10**-40 erg-esu-cm/Gauss)
       state          XX          YY          ZZ     R(length)
         1        -0.0045     -0.0346      0.0031     -0.0120
         2         0.0981      0.0626      0.0075      0.0561
         3        -0.0357     -0.0269     -0.0058     -0.0228
         4         0.1252     -0.0882     -0.0507     -0.0046
         5        -0.4928      0.2726      0.0463     -0.0580
         6        -6.5443     -2.3365     -1.0932     -3.3247
  1/2[<0|del|b>*<b|r|0> + (<0|r|b>*<b|del|0>)*] (Au)
       state          X           Y           Z        Dip. S.   Osc.(frdel)
         1        -0.0002     -0.0638     -0.0000      0.0640      0.0427
         2        -0.1308     -0.0349     -0.0000      0.1658      0.1105
         3        -0.0000     -0.0000     -0.0049      0.0049      0.0032
         4        -0.0000     -0.0000     -0.0069      0.0069      0.0046
         5        -0.0000     -0.0000     -0.0006      0.0006      0.0004
         6        -0.8171     -0.1093     -0.0000      0.9264      0.6176

 Excitation energies and oscillator strengths:
 
 Excited State   1:      Singlet-A      5.0785 eV  244.13 nm  f=0.0399  <S**2>=0.000
      30 -> 32         0.50533
      30 -> 36        -0.10996
      31 -> 32        -0.36683
      31 -> 36        -0.27912
 
 Excited State   2:      Singlet-A      5.1328 eV  241.55 nm  f=0.1150  <S**2>=0.000
      30 -> 32         0.29983
      30 -> 36         0.16044
      31 -> 32         0.56133
      31 -> 36        -0.23839
 
 Excited State   3:      Singlet-A      5.6664 eV  218.81 nm  f=0.0043  <S**2>=0.000
      29 -> 33         0.10025
      31 -> 33         0.67219
      31 -> 40         0.11141
 This state for optimization and/or second-order correction.
 Total Energy, E(TD-HF/TD-DFT) =  -363.495249348    
 Copying the excited state density for this state as the 1-particle RhoCI density.
 
 Excited State   4:      Singlet-A      6.1617 eV  201.22 nm  f=0.0045  <S**2>=0.000
      30 -> 33         0.60740
      30 -> 34        -0.11494
      30 -> 40         0.12311
      31 -> 34         0.24629
 
 Excited State   5:      Singlet-A      6.3226 eV  196.10 nm  f=0.0004  <S**2>=0.000
      30 -> 33        -0.24585
      31 -> 34         0.53718
      31 -> 35        -0.30405
 
 Excited State   6:      Singlet-A      6.3456 eV  195.39 nm  f=0.6303  <S**2>=0.000
      30 -> 32         0.34506
      31 -> 36         0.57707
      31 -> 39         0.11352
 SavETr:  write IOETrn=   770 NScale= 10 NData=  16 NLR=1 NState=    6 LETran=     118.
          IDoAtm=1111111111111111
          Differentiating once with respect to electric field.
                with respect to dipole field.
          Differentiating once with respect to nuclear coordinates.
 Keep R1 ints in memory in canonical form, NReq=303315801.
          There are     1 degrees of freedom in the 1st order CPHF.  IDoFFX=0 NUNeed=     1.
 LinEq1:  Iter=  0 NonCon=     1 RMS=8.40D-03 Max=1.08D-01 NDo=     1
 AX will form     1 AO Fock derivatives at one time.
 LinEq1:  Iter=  1 NonCon=     1 RMS=2.69D-03 Max=5.95D-02 NDo=     1
 LinEq1:  Iter=  2 NonCon=     1 RMS=1.53D-03 Max=5.55D-02 NDo=     1
 LinEq1:  Iter=  3 NonCon=     1 RMS=5.81D-04 Max=1.51D-02 NDo=     1
 LinEq1:  Iter=  4 NonCon=     1 RMS=2.76D-04 Max=6.37D-03 NDo=     1
 LinEq1:  Iter=  5 NonCon=     1 RMS=1.27D-04 Max=2.80D-03 NDo=     1
 LinEq1:  Iter=  6 NonCon=     1 RMS=5.65D-05 Max=1.71D-03 NDo=     1
 LinEq1:  Iter=  7 NonCon=     1 RMS=3.33D-05 Max=8.62D-04 NDo=     1
 LinEq1:  Iter=  8 NonCon=     1 RMS=8.09D-06 Max=1.23D-04 NDo=     1
 LinEq1:  Iter=  9 NonCon=     1 RMS=3.09D-06 Max=8.68D-05 NDo=     1
 LinEq1:  Iter= 10 NonCon=     1 RMS=1.21D-06 Max=1.97D-05 NDo=     1
 LinEq1:  Iter= 11 NonCon=     1 RMS=4.03D-07 Max=8.56D-06 NDo=     1
 LinEq1:  Iter= 12 NonCon=     1 RMS=2.08D-07 Max=4.54D-06 NDo=     1
 LinEq1:  Iter= 13 NonCon=     1 RMS=7.35D-08 Max=1.75D-06 NDo=     1
 LinEq1:  Iter= 14 NonCon=     1 RMS=2.65D-08 Max=9.21D-07 NDo=     1
 LinEq1:  Iter= 15 NonCon=     1 RMS=1.56D-08 Max=2.72D-07 NDo=     1
 LinEq1:  Iter= 16 NonCon=     1 RMS=3.81D-09 Max=5.45D-08 NDo=     1
 LinEq1:  Iter= 17 NonCon=     1 RMS=1.01D-09 Max=1.19D-08 NDo=     1
 LinEq1:  Iter= 18 NonCon=     1 RMS=5.13D-10 Max=9.40D-09 NDo=     1
 LinEq1:  Iter= 19 NonCon=     1 RMS=1.25D-10 Max=1.41D-09 NDo=     1
 LinEq1:  Iter= 20 NonCon=     0 RMS=2.88D-11 Max=3.15D-10 NDo=     1
 Linear equations converged to 1.000D-10 1.000D-09 after    20 iterations.
 End of Minotr F.D. properties file   721 does not exist.
 End of Minotr F.D. properties file   722 does not exist.
 End of Minotr F.D. properties file   788 does not exist.

 **********************************************************************

            Population analysis using the CI Density.

 **********************************************************************

 Orbital symmetries:
       Occupied  (A) (A) (A) (A) (A) (A) (A) (A) (A) (A) (A) (A)
                 (A) (A) (A) (A) (A) (A) (A) (A) (A) (A) (A) (A)
                 (A) (A) (A) (A) (A) (A) (A)
       Virtual   (A) (A) (A) (A) (A) (A) (A) (A) (A) (A) (A) (A)
                 (A) (A) (A) (A) (A) (A) (A) (A) (A) (A) (A) (A)
                 (A) (A) (A) (A) (A) (A) (A) (A) (A) (A) (A) (A)
                 (A) (A) (A) (A) (A) (A) (A) (A) (A) (A) (A) (A)
                 (A) (A) (A) (A) (A) (A) (A) (A) (A) (A) (A) (A)
                 (A) (A) (A) (A) (A) (A) (A) (A) (A) (A) (A) (A)
                 (A) (A) (A) (A) (A) (A) (A) (A) (A) (A) (A) (A)
                 (A) (A) (A) (A) (A) (A) (A) (A) (A) (A) (A) (A)
                 (A) (A) (A) (A) (A) (A) (A) (A) (A) (A) (A) (A)
                 (A) (A) (A) (A) (A) (A) (A) (A) (A) (A) (A) (A)
                 (A) (A) (A) (A) (A) (A) (A) (A) (A) (A) (A) (A)
                 (A) (A) (A) (A) (A) (A) (A) (A) (A) (A) (A) (A)
                 (A) (A) (A) (A) (A) (A) (A) (A) (A) (A)
 The electronic state is 1-A.
 Alpha  occ. eigenvalues --  -14.50216 -10.33554 -10.33314 -10.30296 -10.29832
 Alpha  occ. eigenvalues --  -10.29776 -10.29772 -10.29227 -10.28912  -1.08716
 Alpha  occ. eigenvalues --   -0.94360  -0.88517  -0.83680  -0.81815  -0.72127
 Alpha  occ. eigenvalues --   -0.69061  -0.67706  -0.63364  -0.57351  -0.56185
 Alpha  occ. eigenvalues --   -0.52510  -0.51751  -0.51461  -0.49803  -0.47736
 Alpha  occ. eigenvalues --   -0.43909  -0.42344  -0.41757  -0.36207  -0.29768
 Alpha  occ. eigenvalues --   -0.28000
 Alpha virt. eigenvalues --    0.04897   0.05772   0.07557   0.08012   0.08771
 Alpha virt. eigenvalues --    0.09303   0.09651   0.11127   0.11769   0.12158
 Alpha virt. eigenvalues --    0.12165   0.12680   0.14584   0.15136   0.16046
 Alpha virt. eigenvalues --    0.16243   0.17316   0.18646   0.19791   0.20144
 Alpha virt. eigenvalues --    0.21404   0.21610   0.22661   0.22874   0.23286
 Alpha virt. eigenvalues --    0.24436   0.24920   0.25095   0.25759   0.26320
 Alpha virt. eigenvalues --    0.26749   0.27722   0.28125   0.28944   0.29448
 Alpha virt. eigenvalues --    0.30045   0.30121   0.30752   0.32049   0.32447
 Alpha virt. eigenvalues --    0.33439   0.33619   0.34909   0.36507   0.37551
 Alpha virt. eigenvalues --    0.38574   0.38745   0.40337   0.42262   0.44387
 Alpha virt. eigenvalues --    0.45382   0.47720   0.52092   0.52976   0.59809
 Alpha virt. eigenvalues --    0.66716   0.71344   0.75682   0.75783   0.78331
 Alpha virt. eigenvalues --    0.80042   0.80430   0.81843   0.82032   0.82823
 Alpha virt. eigenvalues --    0.83719   0.84349   0.86261   0.87719   0.88658
 Alpha virt. eigenvalues --    0.90205   0.93939   0.98081   0.99068   1.00262
 Alpha virt. eigenvalues --    1.02576   1.03297   1.04173   1.04732   1.07299
 Alpha virt. eigenvalues --    1.09131   1.11871   1.13554   1.15657   1.18066
 Alpha virt. eigenvalues --    1.20055   1.20514   1.25749   1.26672   1.29242
 Alpha virt. eigenvalues --    1.31124   1.32273   1.34053   1.40589   1.40894
 Alpha virt. eigenvalues --    1.42889   1.45549   1.50335   1.50513   1.53940
 Alpha virt. eigenvalues --    1.54986   1.55449   1.58652   1.59280   1.62741
 Alpha virt. eigenvalues --    1.67782   1.73978   1.87670   1.93671   1.97703
 Alpha virt. eigenvalues --    1.98206   2.01496   2.03439   2.08735   2.09121
 Alpha virt. eigenvalues --    2.09608   2.15649   2.19266   2.23360   2.26490
 Alpha virt. eigenvalues --    2.26500   2.29017   2.34137   2.35240   2.35769
 Alpha virt. eigenvalues --    2.37528   2.40544   2.47411   2.50207   2.53754
 Alpha virt. eigenvalues --    2.64096   2.65293   2.72754   2.74928   2.76413
 Alpha virt. eigenvalues --    2.79404   2.83030   2.90367   2.93975   2.95322
 Alpha virt. eigenvalues --    3.04945   3.07181   3.21169   3.33949   3.54599
 Alpha virt. eigenvalues --    4.24874   4.35963   4.38864   4.42374   4.46010
 Alpha virt. eigenvalues --    4.49575   4.57908   4.61878   4.88824
          Condensed to atoms (all electrons):
               1          2          3          4          5          6
     1  C   23.268845   6.976076   1.852617 -19.121890  -3.074743 -21.203313
     2  C    6.976076  18.835551   7.237264 -20.428736   9.559176 -24.615598
     3  C    1.852617   7.237264  33.622745 -34.209773  16.734346 -26.184114
     4  C  -19.121890 -20.428736 -34.209773  99.124567 -33.329850  54.984820
     5  C   -3.074743   9.559176  16.734346 -33.329850  80.192363 -33.272031
     6  C  -21.203313 -24.615598 -26.184114  54.984820 -33.272031  76.662588
     7  N   -0.832052  -0.261522  -3.271068   5.392079  -2.286780   2.850050
     8  C   29.021076  14.116024  19.989011 -81.985033 -56.324153 -36.373901
     9  C  -10.796214  -4.989787  -9.142187  35.256978  26.052960  12.468884
    10  H    0.015651  -0.044920  -0.012766   0.046886   0.443970  -0.058169
    11  H   -0.008661  -0.003635   0.004192   0.040285   0.110179  -0.010322
    12  H    0.001235   0.000221   0.022590   0.060820  -0.055330  -0.014313
    13  H    0.077533   0.173175  -0.087916   0.137650  -0.089757   0.110003
    14  H    0.025658   0.064296   0.117215   0.147649  -0.090791   0.038632
    15  H    0.286833   0.087851   0.028404  -0.055818   0.049755  -0.098751
    16  H   -0.093786  -0.068800  -0.035386   0.167174   0.166425   0.320746
               7          8          9         10         11         12
     1  C   -0.832052  29.021076 -10.796214   0.015651  -0.008661   0.001235
     2  C   -0.261522  14.116024  -4.989787  -0.044920  -0.003635   0.000221
     3  C   -3.271068  19.989011  -9.142187  -0.012766   0.004192   0.022590
     4  C    5.392079 -81.985033  35.256978   0.046886   0.040285   0.060820
     5  C   -2.286780 -56.324153  26.052960   0.443970   0.110179  -0.055330
     6  C    2.850050 -36.373901  12.468884  -0.058169  -0.010322  -0.014313
     7  N   15.189889 -25.816715  15.871624  -0.722574   0.008958  -0.042430
     8  C  -25.816715 288.472205-141.063351   1.673217   0.084532   0.036768
     9  C   15.871624-141.063351  79.964409  -1.129414   0.083638   0.319022
    10  H   -0.722574   1.673217  -1.129414   0.394466  -0.000094  -0.001371
    11  H    0.008958   0.084532   0.083638  -0.000094   0.413213  -0.000353
    12  H   -0.042430   0.036768   0.319022  -0.001371  -0.000353   0.373396
    13  H    0.003020  -0.024502   0.011160  -0.000017   0.000000  -0.000000
    14  H    0.022623  -0.055650   0.038122  -0.000546   0.000001   0.000002
    15  H   -0.000081   0.023362  -0.004795   0.000000  -0.000001  -0.000000
    16  H    0.001280  -0.227179   0.065786  -0.000002   0.001074  -0.000001
              13         14         15         16
     1  C    0.077533   0.025658   0.286833  -0.093786
     2  C    0.173175   0.064296   0.087851  -0.068800
     3  C   -0.087916   0.117215   0.028404  -0.035386
     4  C    0.137650   0.147649  -0.055818   0.167174
     5  C   -0.089757  -0.090791   0.049755   0.166425
     6  C    0.110003   0.038632  -0.098751   0.320746
     7  N    0.003020   0.022623  -0.000081   0.001280
     8  C   -0.024502  -0.055650   0.023362  -0.227179
     9  C    0.011160   0.038122  -0.004795   0.065786
    10  H   -0.000017  -0.000546   0.000000  -0.000002
    11  H    0.000000   0.000001  -0.000001   0.001074
    12  H   -0.000000   0.000002  -0.000000  -0.000001
    13  H    0.451144  -0.002256  -0.003120  -0.000096
    14  H   -0.002256   0.413447  -0.000102   0.000013
    15  H   -0.003120  -0.000102   0.459273  -0.003036
    16  H   -0.000096   0.000013  -0.003036   0.459827
 Mulliken charges:
               1
     1  C   -0.394864
     2  C   -0.636636
     3  C   -0.665174
     4  C   -0.227809
     5  C    1.214261
     6  C    0.394790
     7  N    0.893700
     8  C   -5.545712
     9  C    2.993167
    10  H    0.395684
    11  H    0.276997
    12  H    0.299744
    13  H    0.243978
    14  H    0.281687
    15  H    0.230226
    16  H    0.245961
 Sum of Mulliken charges =  -0.00000
 Mulliken charges with hydrogens summed into heavy atoms:
               1
     1  C   -0.164639
     2  C   -0.392657
     3  C   -0.383487
     4  C   -0.227809
     5  C    1.214261
     6  C    0.640750
     7  N    1.289384
     8  C   -5.268715
     9  C    3.292911
 Electronic spatial extent (au):  <R**2>=           1037.5525
 Charge=              0.0000 electrons
 Dipole moment (field-independent basis, Debye):
    X=             -5.4915    Y=              5.6212    Z=             -0.0010  Tot=              7.8584
 Quadrupole moment (field-independent basis, Debye-Ang):
   XX=            -61.7007   YY=            -62.8795   ZZ=            -67.5758
   XY=             13.5403   XZ=             -0.0046   YZ=              0.0023
 Traceless Quadrupole moment (field-independent basis, Debye-Ang):
   XX=              2.3513   YY=              1.1725   ZZ=             -3.5238
   XY=             13.5403   XZ=             -0.0046   YZ=              0.0023
 Octapole moment (field-independent basis, Debye-Ang**2):
  XXX=           -106.9722  YYY=             67.6587  ZZZ=             -0.0110  XYY=            -42.6829
  XXY=             42.9905  XXZ=             -0.0183  XZZ=            -21.0591  YZZ=             18.9876
  YYZ=             -0.0039  XYZ=              0.0083
 Hexadecapole moment (field-independent basis, Debye-Ang**3):
 XXXX=          -1287.6463 YYYY=           -678.6010 ZZZZ=           -157.5567 XXXY=            176.6560
 XXXZ=             -0.0793 YYYX=            119.8597 YYYZ=              0.0200 ZZZX=             -0.0304
 ZZZY=              0.0218 XXYY=           -336.5138 XXZZ=           -255.3084 YYZZ=           -154.7091
 XXYZ=              0.0329 YYXZ=             -0.0279 ZZXY=             35.5634
 N-N= 4.013294111108D+02 E-N=-1.641423097344D+03  KE= 3.603081578280D+02
 Calling FoFJK, ICntrl=  10005127 FMM=F ISym2X=0 I1Cent= 0 IOpClX= 0 NMat=1 NMatS=1 NMatT=0.
 ***** Axes restored to original set *****
 -------------------------------------------------------------------
 Center     Atomic                   Forces (Hartrees/Bohr)
 Number     Number              X              Y              Z
 -------------------------------------------------------------------
      1        6          -0.010200296   -0.012544346    0.000000815
      2        6          -0.012679941    0.023020250    0.000002592
      3        6           0.028837539   -0.007026866   -0.000012870
      4        6          -0.017825111    0.005023783   -0.000003280
      5        6          -0.000579504   -0.005239957   -0.000028400
      6        6           0.008563731    0.007077736   -0.000011918
      7        7           0.028199261    0.057444182    0.000082890
      8        6          -0.034607794    0.020414925    0.000041749
      9        6          -0.003777766   -0.067562086   -0.000091837
     10        1           0.011315342   -0.024702579    0.000000786
     11        1           0.002060440    0.004290128    0.000004058
     12        1           0.003419224   -0.002252054    0.000006010
     13        1          -0.001916459   -0.001184629    0.000000920
     14        1           0.001386541   -0.000271985    0.000001919
     15        1          -0.001930013    0.001274615    0.000002603
     16        1          -0.000265194    0.002238883    0.000003964
 -------------------------------------------------------------------
 Cartesian Forces:  Max     0.067562086 RMS     0.016715074

 GradGradGradGradGradGradGradGradGradGradGradGradGradGradGradGradGradGrad
 Berny optimization.
 FormGI is forming the generalized inverse of G from B-inverse, IUseBI=4.
 Internal  Forces:  Max     0.046185347 RMS     0.008415549
 Search for a local minimum.
 Step number   1 out of a maximum of   94
 All quantities printed in internal units (Hartrees-Bohrs-Radians)
 Mixed Optimization -- RFO/linear search
 Second derivative matrix not updated -- first step.
 ITU=  0
     Eigenvalues ---    0.01853   0.01931   0.01986   0.02012   0.02070
     Eigenvalues ---    0.02113   0.02148   0.02153   0.02172   0.02209
     Eigenvalues ---    0.02233   0.02248   0.02338   0.16000   0.16000
     Eigenvalues ---    0.16000   0.16000   0.16000   0.16000   0.16000
     Eigenvalues ---    0.22000   0.22188   0.22662   0.24011   0.24651
     Eigenvalues ---    0.35712   0.35717   0.35783   0.35790   0.36420
     Eigenvalues ---    0.36427   0.37009   0.38432   0.42633   0.43465
     Eigenvalues ---    0.45769   0.46692   0.47162   0.47468   0.47567
     Eigenvalues ---    0.48125   0.50955
 RFO step:  Lambda=-1.23700922D-02 EMin= 1.85287394D-02
 Linear search not attempted -- first point.
 Iteration  1 RMS(Cart)=  0.02426540 RMS(Int)=  0.00010983
 Iteration  2 RMS(Cart)=  0.00013491 RMS(Int)=  0.00003605
 Iteration  3 RMS(Cart)=  0.00000001 RMS(Int)=  0.00003605
 Variable       Old X    -DE/DX   Delta X   Delta X   Delta X     New X
                                 (Linear)    (Quad)   (Total)
    R1        2.65547  -0.00766   0.00000  -0.01526  -0.01528   2.64020
    R2        2.61291   0.00853   0.00000   0.01815   0.01815   2.63106
    R3        2.04421   0.00230   0.00000   0.00622   0.00622   2.05044
    R4        2.61557   0.02340   0.00000   0.04749   0.04748   2.66305
    R5        2.04411   0.00225   0.00000   0.00608   0.00608   2.05020
    R6        2.63373  -0.01323   0.00000  -0.02869  -0.02869   2.60504
    R7        2.04534   0.00029   0.00000   0.00079   0.00079   2.04613
    R8        2.68058  -0.00504   0.00000  -0.01309  -0.01302   2.66756
    R9        2.60126   0.01662   0.00000   0.03008   0.03018   2.63144
   R10        2.64771   0.00240   0.00000   0.00485   0.00487   2.65257
   R11        2.70839  -0.00993   0.00000  -0.02077  -0.02084   2.68755
   R12        2.04526   0.00225   0.00000   0.00608   0.00608   2.05134
   R13        2.60573  -0.04619   0.00000  -0.09284  -0.09283   2.51289
   R14        1.89542   0.02701   0.00000   0.05580   0.05580   1.95122
   R15        2.57870   0.03845   0.00000   0.07366   0.07357   2.65226
   R16        2.03419   0.00474   0.00000   0.01258   0.01258   2.04677
   R17        2.03430   0.00364   0.00000   0.00966   0.00966   2.04396
    A1        2.11420  -0.00499   0.00000  -0.01635  -0.01636   2.09784
    A2        2.07986   0.00271   0.00000   0.00943   0.00944   2.08930
    A3        2.08912   0.00228   0.00000   0.00692   0.00693   2.09605
    A4        2.11523   0.00269   0.00000   0.01507   0.01505   2.13028
    A5        2.08365  -0.00129   0.00000  -0.00722  -0.00721   2.07644
    A6        2.08430  -0.00140   0.00000  -0.00785  -0.00784   2.07646
    A7        2.05144  -0.00100   0.00000  -0.00576  -0.00576   2.04567
    A8        2.11267   0.00191   0.00000   0.01108   0.01108   2.12374
    A9        2.11908  -0.00091   0.00000  -0.00531  -0.00531   2.11377
   A10        2.13389  -0.00227   0.00000  -0.01006  -0.01009   2.12379
   A11        2.27895  -0.00296   0.00000  -0.00632  -0.00641   2.27255
   A12        1.87035   0.00523   0.00000   0.01637   0.01650   1.88685
   A13        2.07274   0.00851   0.00000   0.02788   0.02793   2.10068
   A14        1.86517  -0.00763   0.00000  -0.02429  -0.02433   1.84085
   A15        2.34527  -0.00088   0.00000  -0.00359  -0.00361   2.34166
   A16        2.07887  -0.00293   0.00000  -0.01079  -0.01077   2.06811
   A17        2.10306   0.00126   0.00000   0.00419   0.00418   2.10725
   A18        2.10125   0.00167   0.00000   0.00659   0.00658   2.10783
   A19        1.90743   0.00395   0.00000   0.00808   0.00818   1.91561
   A20        2.19023   0.00087   0.00000   0.01244   0.01239   2.20261
   A21        2.18553  -0.00481   0.00000  -0.02052  -0.02057   2.16496
   A22        1.86968   0.00092   0.00000   0.01114   0.01100   1.88069
   A23        2.21717  -0.00000   0.00000  -0.00290  -0.00283   2.21433
   A24        2.19633  -0.00092   0.00000  -0.00824  -0.00817   2.18816
   A25        1.91215  -0.00246   0.00000  -0.01130  -0.01136   1.90079
   A26        2.10250  -0.00068   0.00000  -0.00545  -0.00542   2.09708
   A27        2.26854   0.00315   0.00000   0.01675   0.01678   2.28532
    D1       -0.00001   0.00000   0.00000   0.00002   0.00002   0.00001
    D2       -3.14156  -0.00000   0.00000  -0.00001  -0.00001  -3.14157
    D3        3.14152   0.00000   0.00000   0.00007   0.00007   3.14159
    D4       -0.00002   0.00000   0.00000   0.00003   0.00003   0.00001
    D5       -0.00003  -0.00000   0.00000  -0.00004  -0.00004  -0.00007
    D6        3.14153   0.00000   0.00000   0.00008   0.00008  -3.14157
    D7       -3.14157  -0.00000   0.00000  -0.00008  -0.00008   3.14154
    D8       -0.00001   0.00000   0.00000   0.00004   0.00004   0.00003
    D9        0.00003   0.00000   0.00000   0.00004   0.00004   0.00007
   D10       -3.14154  -0.00000   0.00000  -0.00005  -0.00005  -3.14159
   D11        3.14158   0.00000   0.00000   0.00008   0.00008  -3.14153
   D12        0.00001  -0.00000   0.00000  -0.00002  -0.00002  -0.00001
   D13       -0.00001  -0.00000   0.00000  -0.00009  -0.00009  -0.00010
   D14       -3.14144  -0.00000   0.00000  -0.00007  -0.00006  -3.14150
   D15        3.14156  -0.00000   0.00000   0.00000   0.00000   3.14156
   D16        0.00013  -0.00000   0.00000   0.00003   0.00003   0.00016
   D17       -0.00004   0.00001   0.00000   0.00008   0.00008   0.00004
   D18       -3.14151   0.00000   0.00000  -0.00004  -0.00005  -3.14156
   D19        3.14143   0.00000   0.00000   0.00006   0.00005   3.14148
   D20       -0.00005   0.00000   0.00000  -0.00006  -0.00007  -0.00012
   D21       -3.14124  -0.00001   0.00000  -0.00048  -0.00049   3.14145
   D22       -0.00113   0.00001   0.00000   0.00026   0.00026  -0.00088
   D23        0.00049  -0.00001   0.00000  -0.00045  -0.00047   0.00003
   D24        3.14060   0.00001   0.00000   0.00028   0.00028   3.14089
   D25        0.00005  -0.00000   0.00000  -0.00001  -0.00001   0.00004
   D26       -3.14151  -0.00000   0.00000  -0.00013  -0.00013   3.14155
   D27        3.14150   0.00000   0.00000   0.00015   0.00016  -3.14153
   D28       -0.00007   0.00000   0.00000   0.00004   0.00004  -0.00003
   D29       -0.00041   0.00002   0.00000   0.00059   0.00058   0.00017
   D30        3.14139   0.00001   0.00000   0.00011   0.00011   3.14149
   D31        3.14132   0.00002   0.00000   0.00043   0.00043  -3.14144
   D32       -0.00006   0.00000   0.00000  -0.00004  -0.00005  -0.00011
   D33       -0.00077   0.00003   0.00000   0.00087   0.00085   0.00008
   D34        3.14133   0.00001   0.00000   0.00027   0.00026   3.14159
   D35       -3.14089   0.00001   0.00000   0.00010   0.00009  -3.14080
   D36        0.00121  -0.00002   0.00000  -0.00050  -0.00050   0.00071
   D37        0.00072  -0.00003   0.00000  -0.00087  -0.00088  -0.00016
   D38       -3.14144  -0.00001   0.00000  -0.00021  -0.00021   3.14153
   D39       -3.14107  -0.00001   0.00000  -0.00041  -0.00042  -3.14149
   D40       -0.00005   0.00001   0.00000   0.00026   0.00025   0.00020
         Item               Value     Threshold  Converged?
 Maximum Force            0.046185     0.000450     NO 
 RMS     Force            0.008416     0.000300     NO 
 Maximum Displacement     0.095838     0.001800     NO 
 RMS     Displacement     0.024281     0.001200     NO 
 Predicted change in Energy=-6.352626D-03
 GradGradGradGradGradGradGradGradGradGradGradGradGradGradGradGradGradGrad

                          Input orientation:                          
 ---------------------------------------------------------------------
 Center     Atomic      Atomic             Coordinates (Angstroms)
 Number     Number       Type             X           Y           Z
 ---------------------------------------------------------------------
      1          6           0       -2.173448    0.699473   -0.000004
      2          6           0       -2.126344   -0.696865    0.000012
      3          6           0       -0.907447   -1.404118    0.000007
      4          6           0        0.253022   -0.660039    0.000076
      5          6           0        0.228804    0.751364    0.000031
      6          6           0       -0.994382    1.439943   -0.000036
      7          7           0        1.583783   -1.070076   -0.000009
      8          6           0        1.592736    1.154239    0.000086
      9          6           0        2.381860   -0.006426   -0.000067
     10          1           0        1.921227   -2.045921    0.000586
     11          1           0        1.970559    2.169305   -0.000012
     12          1           0        3.456031   -0.133140   -0.000132
     13          1           0       -3.057238   -1.254073    0.000018
     14          1           0       -0.878016   -2.486481    0.000016
     15          1           0       -3.133472    1.205116   -0.000004
     16          1           0       -1.020773    2.525145   -0.000031
 ---------------------------------------------------------------------
                    Distance matrix (angstroms):
                    1          2          3          4          5
     1  C    0.000000
     2  C    1.397132   0.000000
     3  C    2.455168   1.409225   0.000000
     4  C    2.781372   2.379651   1.378529   0.000000
     5  C    2.402812   2.764794   2.436630   1.411611   0.000000
     6  C    1.392298   2.418116   2.845389   2.442528   1.403682
     7  N    4.153082   3.728851   2.513526   1.392499   2.270157
     8  C    3.793541   4.154291   3.577164   2.255313   1.422188
     9  C    4.609678   4.560769   3.573945   2.226917   2.282520
    10  H    4.929863   4.266472   2.900571   2.168773   3.269419
    11  H    4.396954   4.999954   4.588275   3.309852   2.245945
    12  H    5.690719   5.610766   4.544813   3.246057   3.346243
    13  H    2.144161   1.084917   2.155020   3.363138   3.849655
    14  H    3.439250   2.181982   1.082763   2.148287   3.421796
    15  H    1.085044   2.152171   3.429765   3.866154   3.392755
    16  H    2.159106   3.406411   3.930897   3.430445   2.169733
                    6          7          8          9         10
     6  C    0.000000
     7  N    3.598212   0.000000
     8  C    2.602845   2.224333   0.000000
     9  C    3.673009   1.329767   1.403517   0.000000
    10  H    4.544450   1.032541   3.216975   2.090866   0.000000
    11  H    3.053333   3.262390   1.083102   2.214266   4.215515
    12  H    4.720251   2.093600   2.264777   1.081619   2.452418
    13  H    3.393096   4.644667   5.236623   5.580359   5.041045
    14  H    3.928147   2.840186   4.399937   4.096030   2.833700
    15  H    2.151941   5.237270   4.726481   5.646833   6.009927
    16  H    1.085523   4.439519   2.951239   4.241081   5.435992
                   11         12         13         14         15
    11  H    0.000000
    12  H    2.740051   0.000000
    13  H    6.082619   6.609021   0.000000
    14  H    5.458087   4.931751   2.503565   0.000000
    15  H    5.194304   6.724023   2.460371   4.326080   0.000000
    16  H    3.012423   5.206559   4.292981   5.013659   2.491179
                   16
    16  H    0.000000
 Stoichiometry    C8H7N
 Framework group  C1[X(C8H7N)]
 Deg. of freedom    42
 Full point group                 C1      NOp   1
 Largest Abelian subgroup         C1      NOp   1
 Largest concise Abelian subgroup C1      NOp   1
                         Standard orientation:                         
 ---------------------------------------------------------------------
 Center     Atomic      Atomic             Coordinates (Angstroms)
 Number     Number       Type             X           Y           Z
 ---------------------------------------------------------------------
      1          6           0       -2.188674    0.640704   -0.000021
      2          6           0       -2.105549   -0.753953   -0.000005
      3          6           0       -0.868805   -1.429513   -0.000009
      4          6           0        0.272075   -0.655733    0.000060
      5          6           0        0.211439    0.754575    0.000015
      6          6           0       -1.029110    1.411357   -0.000053
      7          7           0        1.612974   -1.031290   -0.000025
      8          6           0        1.564519    1.192515    0.000070
      9          6           0        2.383335    0.052602   -0.000083
     10          1           0        1.975490   -1.998101    0.000570
     11          1           0        1.916020    2.216994   -0.000028
     12          1           0        3.460418   -0.046348   -0.000149
     13          1           0       -3.021752   -1.335000    0.000001
     14          1           0       -0.811451   -2.510756   -0.000000
     15          1           0       -3.161427    1.121403   -0.000020
     16          1           0       -1.083499    2.495516   -0.000047
 ---------------------------------------------------------------------
 Rotational constants (GHZ):           3.9228716           1.6373252           1.1551779
 Standard basis: 6-31+G(d) (6D, 7F)
 There are   185 symmetry adapted cartesian basis functions of A   symmetry.
 There are   185 symmetry adapted basis functions of A   symmetry.
   185 basis functions,   316 primitive gaussians,   185 cartesian basis functions
    31 alpha electrons       31 beta electrons
       nuclear repulsion energy       401.1296751595 Hartrees.
 NAtoms=   16 NActive=   16 NUniq=   16 SFac= 1.00D+00 NAtFMM=   60 NAOKFM=F Big=F
 Integral buffers will be    131072 words long.
 Raffenetti 1 integral format.
 Two-electron integral symmetry is turned on.
 Nuclear repulsion after empirical dispersion term =      401.1222278403 Hartrees.
 One-electron integrals computed using PRISM.
 NBasis=   185 RedAO= T EigKep=  1.18D-06  NBF=   185
 NBsUse=   185 1.00D-06 EigRej= -1.00D+00 NBFU=   185
 Initial guess from the checkpoint file:  "FuncsWB97XD-V-3rd.chk"
 B after Tr=     0.000000   -0.000000    0.000000
         Rot=    0.999919    0.000009    0.000008   -0.012701 Ang=   1.46 deg.
 ExpMin= 4.38D-02 ExpMax= 4.17D+03 ExpMxC= 6.27D+02 IAcc=3 IRadAn=         5 AccDes= 0.00D+00
 Harris functional with IExCor= 4639 and IRadAn=       5 diagonalized for initial guess.
 HarFok:  IExCor= 4639 AccDes= 0.00D+00 IRadAn=         5 IDoV= 1 UseB2=F ITyADJ=14
 ICtDFT=  3500011 ScaDFX=  1.000000  1.000000  1.000000  1.000000
 FoFCou: FMM=F IPFlag=           0 FMFlag=      100000 FMFlg1=           0
         NFxFlg=           0 DoJE=T BraDBF=F KetDBF=T FulRan=T
         wScrn=  0.000000 ICntrl=       500 IOpCl=  0 I1Cent=   200000004 NGrid=           0
         NMat0=    1 NMatS0=      1 NMatT0=    0 NMatD0=    1 NMtDS0=    0 NMtDT0=    0
 Petite list used in FoFCou.
 Keep R1 ints in memory in canonical form, NReq=303303409.
 Requested convergence on RMS density matrix=1.00D-08 within 128 cycles.
 Requested convergence on MAX density matrix=1.00D-06.
 Requested convergence on             energy=1.00D-06.
 No special actions if energy rises.
 SCF Done:  E(RwB97XD) =  -363.698108840     A.U. after   15 cycles
            NFock= 15  Conv=0.76D-08     -V/T= 2.0095
 DoSCS=F DFT=T ScalE2(SS,OS)=  1.000000  1.000000
 ExpMin= 4.38D-02 ExpMax= 4.17D+03 ExpMxC= 6.27D+02 IAcc=3 IRadAn=         5 AccDes= 0.00D+00
 HarFok:  IExCor=  205 AccDes= 0.00D+00 IRadAn=         5 IDoV=-2 UseB2=F ITyADJ=14
 ICtDFT= 12500011 ScaDFX=  1.000000  1.000000  1.000000  1.000000
 Range of M.O.s used for correlation:    10   185
 NBasis=   185 NAE=    31 NBE=    31 NFC=     9 NFV=     0
 NROrb=    176 NOA=    22 NOB=    22 NVA=   154 NVB=   154

 **** Warning!!: The largest alpha MO coefficient is  0.18973541D+03

 Orbital symmetries:
       Occupied  (A) (A) (A) (A) (A) (A) (A) (A) (A) (A) (A) (A)
                 (A) (A) (A) (A) (A) (A) (A) (A) (A) (A) (A) (A)
                 (A) (A) (A) (A) (A) (A) (A)
       Virtual   (A) (A) (A) (A) (A) (A) (A) (A) (A) (A) (A) (A)
                 (A) (A) (A) (A) (A) (A) (A) (A) (A) (A) (A) (A)
                 (A) (A) (A) (A) (A) (A) (A) (A) (A) (A) (A) (A)
                 (A) (A) (A) (A) (A) (A) (A) (A) (A) (A) (A) (A)
                 (A) (A) (A) (A) (A) (A) (A) (A) (A) (A) (A) (A)
                 (A) (A) (A) (A) (A) (A) (A) (A) (A) (A) (A) (A)
                 (A) (A) (A) (A) (A) (A) (A) (A) (A) (A) (A) (A)
                 (A) (A) (A) (A) (A) (A) (A) (A) (A) (A) (A) (A)
                 (A) (A) (A) (A) (A) (A) (A) (A) (A) (A) (A) (A)
                 (A) (A) (A) (A) (A) (A) (A) (A) (A) (A) (A) (A)
                 (A) (A) (A) (A) (A) (A) (A) (A) (A) (A) (A) (A)
                 (A) (A) (A) (A) (A) (A) (A) (A) (A) (A) (A) (A)
                 (A) (A) (A) (A) (A) (A) (A) (A) (A) (A)
 Generating guess from densities on rwf.
 Convergence on wavefunction:    0.000001000000000
 Iteration     1 Dimension    12 NMult     0 NNew     12
 CISAX will form    12 AO SS matrices at one time.
 New state      1 was old state      2
 New state      2 was old state      1
 New state      4 was old state      6
 New state      6 was old state      4
 Iteration     2 Dimension    24 NMult    12 NNew     12
 New state      4 was old state      5
 New state      5 was old state      4
 Iteration     3 Dimension    36 NMult    24 NNew     12
 Iteration     4 Dimension    48 NMult    36 NNew     12
 Iteration     5 Dimension    60 NMult    48 NNew     12
 Iteration     6 Dimension    72 NMult    60 NNew     12
 New state      5 was old state      6
 New state      6 was old state      5
 Iteration     7 Dimension    84 NMult    72 NNew     12
 Iteration     8 Dimension    96 NMult    84 NNew     12
 Iteration     9 Dimension   108 NMult    96 NNew     12
 Iteration    10 Dimension   120 NMult   108 NNew     12
 Iteration    11 Dimension   128 NMult   120 NNew      8
 Iteration    12 Dimension   136 NMult   128 NNew      8
 Iteration    13 Dimension   142 NMult   136 NNew      6
 Iteration    14 Dimension   148 NMult   142 NNew      6
 Iteration    15 Dimension   152 NMult   148 NNew      4
 Iteration    16 Dimension   156 NMult   152 NNew      4
 Iteration    17 Dimension   158 NMult   156 NNew      2
 ***********************************************************************
 Excited states from <AA,BB:AA,BB> singles matrix:
 ***********************************************************************
 
 Ground to excited state transition densities written to RWF  633
 Ground to excited state transition electric dipole moments (Au):
       state          X           Y           Z        Dip. S.      Osc.
         1        -0.9090      0.6502      0.0000      1.2490      0.1472
         2        -0.0763     -0.2220     -0.0000      0.0551      0.0069
         3         0.0001     -0.0000     -0.1750      0.0306      0.0040
         4         0.0003      0.0001     -0.1611      0.0259      0.0038
         5         0.0012      0.0004      0.1794      0.0322      0.0048
         6        -1.9000     -0.6899      0.0000      4.0858      0.6208
 Ground to excited state transition velocity dipole moments (Au):
       state          X           Y           Z        Dip. S.      Osc.
         1         0.1492     -0.1252     -0.0000      0.0379      0.1430
         2         0.0134      0.0445      0.0000      0.0022      0.0077
         3        -0.0000      0.0000      0.0263      0.0007      0.0024
         4        -0.0001     -0.0000      0.0351      0.0012      0.0037
         5        -0.0003     -0.0001     -0.0373      0.0014      0.0041
         6         0.4226      0.1578     -0.0000      0.2034      0.5951
 Ground to excited state transition magnetic dipole moments (Au):
       state          X           Y           Z
         1         0.0000      0.0001      0.1309
         2        -0.0001     -0.0001      0.0689
         3         0.1819     -0.1512      0.0001
         4         0.2122     -0.4607      0.0001
         5         0.2919      0.2193      0.0005
         6         0.0003     -0.0001     -0.8356
 Ground to excited state transition velocity quadrupole moments (Au):
       state          XX          YY          ZZ          XY          XZ          YZ
         1         0.2168     -0.1640      0.0188      0.0318     -0.0000     -0.0000
         2        -0.0439     -0.0547      0.0179      0.0261      0.0000     -0.0000
         3        -0.0000      0.0000      0.0001      0.0001      0.1158      0.0837
         4         0.0000     -0.0000     -0.0000      0.0000      0.4569      0.2331
         5        -0.0001      0.0001      0.0000      0.0003     -0.1467      0.1691
         6         0.2386     -0.1822     -0.0143     -0.5261      0.0001      0.0002
 <0|del|b> * <b|rxdel|0> + <0|del|b> * <b|delr+rdel|0>
 Rotatory Strengths (R) in cgs (10**-40 erg-esu-cm/Gauss)
       state          XX          YY          ZZ    R(velocity)    E-M Angle
         1        -0.0354     -0.0005     -0.0129     -0.0163       90.00
         2        -0.0064     -0.0014     -0.0046     -0.0041       90.00
         3         0.0093     -0.0031     -0.0020      0.0014       90.00
         4         0.0504     -0.0376      0.0021      0.0050       90.00
         5        -0.1028     -0.1999     -0.0601     -0.1209       90.48
         6        -0.0294      0.3236      0.1107      0.1350       89.98
 1/2[<0|r|b>*<b|rxdel|0> + (<0|rxdel|b>*<b|r|0>)*]
 Rotatory Strengths (R) in cgs (10**-40 erg-esu-cm/Gauss)
       state          XX          YY          ZZ     R(length)
         1         0.0047     -0.0457     -0.0033     -0.0148
         2        -0.0034     -0.0091      0.0004     -0.0041
         3        -0.0081     -0.0045      0.0176      0.0017
         4        -0.0394      0.0368      0.0148      0.0041
         5        -0.2425     -0.0625     -0.0686     -0.1245
         6         0.4418     -0.0393      0.0174      0.1399
  1/2[<0|del|b>*<b|r|0> + (<0|r|b>*<b|del|0>)*] (Au)
       state          X           Y           Z        Dip. S.   Osc.(frdel)
         1        -0.1356     -0.0814     -0.0000      0.2170      0.1447
         2        -0.0010     -0.0099     -0.0000      0.0109      0.0073
         3        -0.0000     -0.0000     -0.0046      0.0046      0.0031
         4        -0.0000     -0.0000     -0.0056      0.0056      0.0038
         5        -0.0000     -0.0000     -0.0067      0.0067      0.0045
         6        -0.8028     -0.1088     -0.0000      0.9117      0.6078

 Excitation energies and oscillator strengths:
 
 Excited State   1:      Singlet-A      4.8112 eV  257.70 nm  f=0.1472  <S**2>=0.000
      30 -> 36         0.14681
      31 -> 32         0.67994
 
 Excited State   2:      Singlet-A      5.1030 eV  242.96 nm  f=0.0069  <S**2>=0.000
      30 -> 32         0.53598
      31 -> 36        -0.42929
 
 Excited State   3:      Singlet-A      5.3199 eV  233.06 nm  f=0.0040  <S**2>=0.000
      31 -> 33         0.67851
 This state for optimization and/or second-order correction.
 Total Energy, E(TD-HF/TD-DFT) =  -363.502604401    
 Copying the excited state density for this state as the 1-particle RhoCI density.
 
 Excited State   4:      Singlet-A      6.0413 eV  205.23 nm  f=0.0038  <S**2>=0.000
      31 -> 34         0.55987
      31 -> 35        -0.35320
      31 -> 38        -0.10952
 
 Excited State   5:      Singlet-A      6.0924 eV  203.51 nm  f=0.0048  <S**2>=0.000
      31 -> 34         0.33989
      31 -> 35         0.52383
      31 -> 37         0.18001
      31 -> 40        -0.13239
      31 -> 43         0.15216
 
 Excited State   6:      Singlet-A      6.2015 eV  199.93 nm  f=0.6208  <S**2>=0.000
      30 -> 32         0.40223
      31 -> 36         0.52682
      31 -> 39         0.15125
 SavETr:  write IOETrn=   770 NScale= 10 NData=  16 NLR=1 NState=    6 LETran=     118.
          IDoAtm=1111111111111111
          Differentiating once with respect to electric field.
                with respect to dipole field.
          Differentiating once with respect to nuclear coordinates.
 Keep R1 ints in memory in canonical form, NReq=303315801.
          There are     1 degrees of freedom in the 1st order CPHF.  IDoFFX=0 NUNeed=     1.
 LinEq1:  Iter=  0 NonCon=     1 RMS=9.23D-03 Max=1.40D-01 NDo=     1
 AX will form     1 AO Fock derivatives at one time.
 LinEq1:  Iter=  1 NonCon=     1 RMS=3.10D-03 Max=5.63D-02 NDo=     1
 LinEq1:  Iter=  2 NonCon=     1 RMS=1.74D-03 Max=5.92D-02 NDo=     1
 LinEq1:  Iter=  3 NonCon=     1 RMS=6.92D-04 Max=1.86D-02 NDo=     1
 LinEq1:  Iter=  4 NonCon=     1 RMS=3.29D-04 Max=6.63D-03 NDo=     1
 LinEq1:  Iter=  5 NonCon=     1 RMS=1.30D-04 Max=2.28D-03 NDo=     1
 LinEq1:  Iter=  6 NonCon=     1 RMS=6.09D-05 Max=1.47D-03 NDo=     1
 LinEq1:  Iter=  7 NonCon=     1 RMS=2.72D-05 Max=5.47D-04 NDo=     1
 LinEq1:  Iter=  8 NonCon=     1 RMS=8.20D-06 Max=1.82D-04 NDo=     1
 LinEq1:  Iter=  9 NonCon=     1 RMS=3.55D-06 Max=7.73D-05 NDo=     1
 LinEq1:  Iter= 10 NonCon=     1 RMS=1.32D-06 Max=3.40D-05 NDo=     1
 LinEq1:  Iter= 11 NonCon=     1 RMS=4.63D-07 Max=1.07D-05 NDo=     1
 LinEq1:  Iter= 12 NonCon=     1 RMS=2.33D-07 Max=6.47D-06 NDo=     1
 LinEq1:  Iter= 13 NonCon=     1 RMS=7.86D-08 Max=1.72D-06 NDo=     1
 LinEq1:  Iter= 14 NonCon=     1 RMS=3.33D-08 Max=1.10D-06 NDo=     1
 LinEq1:  Iter= 15 NonCon=     1 RMS=1.87D-08 Max=3.95D-07 NDo=     1
 LinEq1:  Iter= 16 NonCon=     1 RMS=4.37D-09 Max=6.85D-08 NDo=     1
 LinEq1:  Iter= 17 NonCon=     1 RMS=1.36D-09 Max=2.21D-08 NDo=     1
 LinEq1:  Iter= 18 NonCon=     1 RMS=6.55D-10 Max=8.73D-09 NDo=     1
 LinEq1:  Iter= 19 NonCon=     1 RMS=1.47D-10 Max=1.88D-09 NDo=     1
 LinEq1:  Iter= 20 NonCon=     0 RMS=3.45D-11 Max=4.09D-10 NDo=     1
 Linear equations converged to 1.000D-10 1.000D-09 after    20 iterations.
 End of Minotr F.D. properties file   721 does not exist.
 End of Minotr F.D. properties file   722 does not exist.
 End of Minotr F.D. properties file   788 does not exist.
 Calling FoFJK, ICntrl=  10005127 FMM=F ISym2X=0 I1Cent= 0 IOpClX= 0 NMat=1 NMatS=1 NMatT=0.
 ***** Axes restored to original set *****
 -------------------------------------------------------------------
 Center     Atomic                   Forces (Hartrees/Bohr)
 Number     Number              X              Y              Z
 -------------------------------------------------------------------
      1        6           0.002432422    0.000941366   -0.000005388
      2        6           0.000998144   -0.000251868    0.000000110
      3        6           0.002539858   -0.001426267    0.000006988
      4        6          -0.011436401   -0.004924555   -0.000005768
      5        6           0.009717415    0.000626785    0.000004343
      6        6          -0.002004185    0.001994708    0.000012381
      7        7           0.007061572    0.018357298    0.000011832
      8        6          -0.010649680    0.014257123   -0.000032403
      9        6          -0.004639564   -0.020808260    0.000014229
     10        1           0.003322644   -0.008359581   -0.000013225
     11        1           0.000995221   -0.000098950    0.000004884
     12        1           0.001701512    0.000830194    0.000005331
     13        1           0.000337995   -0.000910710    0.000000004
     14        1          -0.001162953    0.000067949   -0.000001293
     15        1           0.000397083    0.000046781   -0.000000647
     16        1           0.000388917   -0.000342014   -0.000001378
 -------------------------------------------------------------------
 Cartesian Forces:  Max     0.020808260 RMS     0.005628224

 GradGradGradGradGradGradGradGradGradGradGradGradGradGradGradGradGradGrad
 Berny optimization.
 Using GEDIIS/GDIIS optimizer.
 FormGI is forming the generalized inverse of G from B-inverse, IUseBI=4.
 Internal  Forces:  Max     0.011089054 RMS     0.002419079
 Search for a local minimum.
 Step number   2 out of a maximum of   94
 All quantities printed in internal units (Hartrees-Bohrs-Radians)
 Mixed Optimization -- RFO/linear search
 Update second derivatives using D2CorX and points    1    2
 DE= -7.36D-03 DEPred=-6.35D-03 R= 1.16D+00
 TightC=F SS=  1.41D+00  RLast= 1.64D-01 DXNew= 5.0454D-01 4.9181D-01
 Trust test= 1.16D+00 RLast= 1.64D-01 DXMaxT set to 4.92D-01
 ITU=  1  0
 Use linear search instead of GDIIS.
     Eigenvalues ---    0.01855   0.01932   0.01987   0.02011   0.02069
     Eigenvalues ---    0.02113   0.02148   0.02157   0.02172   0.02210
     Eigenvalues ---    0.02233   0.02248   0.02342   0.15862   0.16000
     Eigenvalues ---    0.16000   0.16000   0.16000   0.16000   0.16170
     Eigenvalues ---    0.21830   0.22148   0.22505   0.24406   0.25072
     Eigenvalues ---    0.34968   0.35713   0.35731   0.35801   0.35819
     Eigenvalues ---    0.36449   0.36785   0.37398   0.39872   0.42666
     Eigenvalues ---    0.43986   0.45832   0.46824   0.47523   0.47786
     Eigenvalues ---    0.49170   0.51587
 RFO step:  Lambda=-1.24570295D-03 EMin= 1.85457959D-02
 Quartic linear search produced a step of  0.19951.
 Iteration  1 RMS(Cart)=  0.00820078 RMS(Int)=  0.00004170
 Iteration  2 RMS(Cart)=  0.00004836 RMS(Int)=  0.00001822
 Iteration  3 RMS(Cart)=  0.00000000 RMS(Int)=  0.00001822
 Variable       Old X    -DE/DX   Delta X   Delta X   Delta X     New X
                                 (Linear)    (Quad)   (Total)
    R1        2.64020   0.00184  -0.00305   0.00623   0.00317   2.64336
    R2        2.63106  -0.00137   0.00362  -0.00547  -0.00186   2.62921
    R3        2.05044  -0.00033   0.00124  -0.00183  -0.00059   2.04985
    R4        2.66305  -0.00137   0.00947  -0.00901   0.00046   2.66351
    R5        2.05020   0.00018   0.00121  -0.00011   0.00110   2.05130
    R6        2.60504  -0.00248  -0.00572  -0.00305  -0.00877   2.59627
    R7        2.04613  -0.00010   0.00016  -0.00042  -0.00026   2.04586
    R8        2.66756   0.00427  -0.00260   0.01443   0.01189   2.67945
    R9        2.63144   0.00367   0.00602   0.00469   0.01072   2.64217
   R10        2.65257  -0.00011   0.00097  -0.00050   0.00049   2.65306
   R11        2.68755  -0.00534  -0.00416  -0.01205  -0.01619   2.67135
   R12        2.05134  -0.00035   0.00121  -0.00189  -0.00068   2.05066
   R13        2.51289  -0.01069  -0.01852  -0.01661  -0.03517   2.47772
   R14        1.95122   0.00898   0.01113   0.01655   0.02768   1.97890
   R15        2.65226   0.01109   0.01468   0.01751   0.03215   2.68441
   R16        2.04677   0.00026   0.00251  -0.00062   0.00189   2.04866
   R17        2.04396   0.00159   0.00193   0.00410   0.00603   2.04999
    A1        2.09784   0.00154  -0.00326   0.00987   0.00660   2.10444
    A2        2.08930  -0.00054   0.00188  -0.00343  -0.00155   2.08775
    A3        2.09605  -0.00099   0.00138  -0.00643  -0.00505   2.09100
    A4        2.13028   0.00079   0.00300   0.00128   0.00426   2.13455
    A5        2.07644   0.00059  -0.00144   0.00665   0.00522   2.08166
    A6        2.07646  -0.00138  -0.00156  -0.00792  -0.00948   2.06698
    A7        2.04567  -0.00218  -0.00115  -0.01112  -0.01227   2.03341
    A8        2.12374  -0.00009   0.00221  -0.00439  -0.00218   2.12156
    A9        2.11377   0.00227  -0.00106   0.01551   0.01445   2.12821
   A10        2.12379   0.00253  -0.00201   0.01474   0.01272   2.13651
   A11        2.27255   0.00077  -0.00128   0.00396   0.00264   2.27519
   A12        1.88685  -0.00330   0.00329  -0.01870  -0.01536   1.87148
   A13        2.10068  -0.00127   0.00557  -0.00949  -0.00391   2.09676
   A14        1.84085   0.00330  -0.00485   0.02123   0.01643   1.85728
   A15        2.34166  -0.00203  -0.00072  -0.01174  -0.01252   2.32914
   A16        2.06811  -0.00141  -0.00215  -0.00527  -0.00740   2.06071
   A17        2.10725   0.00109   0.00083   0.00567   0.00649   2.11374
   A18        2.10783   0.00032   0.00131  -0.00040   0.00091   2.10874
   A19        1.91561   0.00185   0.00163   0.00572   0.00732   1.92293
   A20        2.20261  -0.00052   0.00247  -0.00218   0.00030   2.20292
   A21        2.16496  -0.00133  -0.00410  -0.00354  -0.00763   2.15733
   A22        1.88069  -0.00412   0.00220  -0.02076  -0.01857   1.86212
   A23        2.21433   0.00305  -0.00057   0.01732   0.01676   2.23110
   A24        2.18816   0.00108  -0.00163   0.00343   0.00181   2.18997
   A25        1.90079   0.00228  -0.00227   0.01251   0.01018   1.91096
   A26        2.09708  -0.00008  -0.00108   0.00314   0.00209   2.09917
   A27        2.28532  -0.00219   0.00335  -0.01566  -0.01227   2.27305
    D1        0.00001  -0.00000   0.00000  -0.00004  -0.00003  -0.00002
    D2       -3.14157  -0.00000  -0.00000  -0.00003  -0.00003   3.14158
    D3        3.14159  -0.00000   0.00001  -0.00003  -0.00002   3.14157
    D4        0.00001  -0.00000   0.00001  -0.00002  -0.00002  -0.00001
    D5       -0.00007   0.00000  -0.00001   0.00016   0.00015   0.00008
    D6       -3.14157  -0.00000   0.00002  -0.00009  -0.00007   3.14154
    D7        3.14154   0.00000  -0.00002   0.00015   0.00013  -3.14151
    D8        0.00003  -0.00000   0.00001  -0.00009  -0.00009  -0.00005
    D9        0.00007  -0.00000   0.00001  -0.00007  -0.00007   0.00001
   D10       -3.14159   0.00000  -0.00001   0.00002   0.00001  -3.14158
   D11       -3.14153  -0.00000   0.00002  -0.00008  -0.00006   3.14159
   D12       -0.00001   0.00000  -0.00000   0.00001   0.00001   0.00000
   D13       -0.00010   0.00000  -0.00002   0.00006   0.00004  -0.00005
   D14       -3.14150   0.00000  -0.00001   0.00000  -0.00001  -3.14151
   D15        3.14156  -0.00000   0.00000  -0.00003  -0.00003   3.14153
   D16        0.00016  -0.00000   0.00001  -0.00009  -0.00008   0.00008
   D17        0.00004   0.00000   0.00001   0.00006   0.00007   0.00011
   D18       -3.14156   0.00000  -0.00001   0.00016   0.00015  -3.14141
   D19        3.14148   0.00000   0.00001   0.00011   0.00012  -3.14159
   D20       -0.00012   0.00000  -0.00001   0.00021   0.00020   0.00007
   D21        3.14145   0.00000  -0.00010   0.00038   0.00028  -3.14145
   D22       -0.00088   0.00001   0.00005   0.00027   0.00032  -0.00056
   D23        0.00003   0.00000  -0.00009   0.00032   0.00023   0.00026
   D24        3.14089   0.00001   0.00006   0.00021   0.00027   3.14116
   D25        0.00004  -0.00000  -0.00000  -0.00017  -0.00017  -0.00012
   D26        3.14155   0.00000  -0.00003   0.00008   0.00005  -3.14158
   D27       -3.14153  -0.00000   0.00003  -0.00030  -0.00027   3.14138
   D28       -0.00003  -0.00000   0.00001  -0.00006  -0.00005  -0.00008
   D29        0.00017  -0.00001   0.00012  -0.00064  -0.00052  -0.00035
   D30        3.14149   0.00000   0.00002   0.00004   0.00006   3.14156
   D31       -3.14144  -0.00001   0.00008  -0.00052  -0.00043   3.14132
   D32       -0.00011   0.00000  -0.00001   0.00016   0.00015   0.00004
   D33        0.00008  -0.00001   0.00017  -0.00073  -0.00057  -0.00049
   D34        3.14159  -0.00000   0.00005  -0.00027  -0.00022   3.14137
   D35       -3.14080  -0.00001   0.00002  -0.00063  -0.00061  -3.14141
   D36        0.00071  -0.00001  -0.00010  -0.00016  -0.00026   0.00045
   D37       -0.00016   0.00001  -0.00018   0.00086   0.00068   0.00052
   D38        3.14153   0.00000  -0.00004   0.00033   0.00028  -3.14137
   D39       -3.14149   0.00000  -0.00008   0.00019   0.00011  -3.14137
   D40        0.00020  -0.00000   0.00005  -0.00034  -0.00028  -0.00008
         Item               Value     Threshold  Converged?
 Maximum Force            0.011089     0.000450     NO 
 RMS     Force            0.002419     0.000300     NO 
 Maximum Displacement     0.026653     0.001800     NO 
 RMS     Displacement     0.008209     0.001200     NO 
 Predicted change in Energy=-8.607036D-04
 GradGradGradGradGradGradGradGradGradGradGradGradGradGradGradGradGradGrad

                          Input orientation:                          
 ---------------------------------------------------------------------
 Center     Atomic      Atomic             Coordinates (Angstroms)
 Number     Number       Type             X           Y           Z
[...]
 ! D11   D(13,2,3,4)          -180.0034         -DE/DX =    0.0                 !
 ! D12   D(13,2,3,14)           -0.0027         -DE/DX =    0.0                 !
 ! D13   D(2,3,4,5)              0.002          -DE/DX =    0.0                 !
 ! D14   D(2,3,4,7)           -180.0078         -DE/DX =    0.0                 !
 ! D15   D(14,3,4,5)           180.0012         -DE/DX =    0.0                 !
 ! D16   D(14,3,4,7)            -0.0086         -DE/DX =    0.0                 !
 ! D17   D(3,4,5,6)              0.004          -DE/DX =    0.0                 !
 ! D18   D(3,4,5,8)            180.0153         -DE/DX =    0.0                 !
 ! D19   D(7,4,5,6)            180.0118         -DE/DX =    0.0                 !
 ! D20   D(7,4,5,8)              0.0231         -DE/DX =    0.0                 !
 ! D21   D(3,4,7,9)            180.0215         -DE/DX =    0.0                 !
 ! D22   D(3,4,7,10)            -0.0045         -DE/DX =    0.0                 !
 ! D23   D(5,4,7,9)              0.0129         -DE/DX =    0.0                 !
 ! D24   D(5,4,7,10)          -180.0132         -DE/DX =    0.0                 !
 ! D25   D(4,5,6,1)             -0.0119         -DE/DX =    0.0                 !
 ! D26   D(4,5,6,16)           180.0085         -DE/DX =    0.0                 !
 ! D27   D(8,5,6,1)           -180.0268         -DE/DX =    0.0                 !
 ! D28   D(8,5,6,16)            -0.0065         -DE/DX =    0.0                 !
 ! D29   D(4,5,8,9)             -0.0477         -DE/DX =    0.0                 !
 ! D30   D(4,5,8,11)          -180.0058         -DE/DX =    0.0                 !
 ! D31   D(6,5,8,9)           -180.0342         -DE/DX =    0.0                 !
 ! D32   D(6,5,8,11)             0.0078         -DE/DX =    0.0                 !
 ! D33   D(4,7,9,8)             -0.0437         -DE/DX =    0.0                 !
 ! D34   D(4,7,9,12)          -180.0111         -DE/DX =    0.0                 !
 ! D35   D(10,7,9,8)          -180.0185         -DE/DX =    0.0                 !
 ! D36   D(10,7,9,12)            0.0141         -DE/DX =    0.0                 !
 ! D37   D(5,8,9,7)              0.0574         -DE/DX =    0.0                 !
 ! D38   D(5,8,9,12)           180.0209         -DE/DX =    0.0                 !
 ! D39   D(11,8,9,7)           180.0171         -DE/DX =    0.0                 !
 ! D40   D(11,8,9,12)           -0.0194         -DE/DX =    0.0                 !
 --------------------------------------------------------------------------------
 GradGradGradGradGradGradGradGradGradGradGradGradGradGradGradGradGradGrad

                          Input orientation:                          
 ---------------------------------------------------------------------
 Center     Atomic      Atomic             Coordinates (Angstroms)
 Number     Number       Type             X           Y           Z
 ---------------------------------------------------------------------
      1          6           0       -2.165377    0.702726    0.000089
      2          6           0       -2.121212   -0.697955    0.000060
      3          6           0       -0.909528   -1.412316   -0.000023
      4          6           0        0.245072   -0.665238   -0.000073
      5          6           0        0.232745    0.754332   -0.000000
      6          6           0       -0.993743    1.445999    0.000211
      7          7           0        1.585652   -1.066811   -0.000011
      8          6           0        1.580394    1.168227   -0.000441
      9          6           0        2.372615   -0.016174    0.000368
     10          1           0        1.938965   -2.058426    0.000155
     11          1           0        1.969018    2.178948   -0.000611
     12          1           0        3.451146   -0.132460    0.000654
     13          1           0       -3.051989   -1.255993    0.000043
     14          1           0       -0.891952   -2.494290   -0.000060
     15          1           0       -3.126176    1.206290    0.000044
     16          1           0       -1.018727    2.530586    0.000130
 ---------------------------------------------------------------------
                    Distance matrix (angstroms):
                    1          2          3          4          5
     1  C    0.000000
     2  C    1.401378   0.000000
     3  C    2.459789   1.406588   0.000000
     4  C    2.771569   2.366510   1.375219   0.000000
     5  C    2.398678   2.765910   2.449317   1.419624   0.000000
     6  C    1.387509   2.422339   2.859555   2.447853   1.408076
     7  N    4.147467   3.725171   2.518987   1.399434   2.268682
     8  C    3.774586   4.145423   3.585933   2.268189   1.409775
     9  C    4.594583   4.545251   3.566746   2.224348   2.274362
    10  H    4.946674   4.282046   2.920851   2.193227   3.289801
    11  H    4.390041   5.000656   4.602522   3.325866   2.245924
    12  H    5.678281   5.600979   4.544613   3.250041   3.338338
    13  H    2.150037   1.085242   2.148156   3.349567   3.851089
    14  H    3.441297   2.176672   1.082117   2.153660   3.437803
    15  H    1.084763   2.153161   3.430834   3.855895   3.389191
    16  H    2.157748   3.411591   3.944414   3.436638   2.172846
                    6          7          8          9         10
     6  C    0.000000
     7  N    3.601041   0.000000
     8  C    2.589081   2.235044   0.000000
     9  C    3.670193   1.312688   1.424928   0.000000
    10  H    4.569657   1.052678   3.246516   2.087785   0.000000
    11  H    3.052076   3.268321   1.082860   2.231917   4.237480
    12  H    4.716839   2.086403   2.278487   1.084782   2.448680
    13  H    3.396636   4.641498   5.228366   5.564484   5.055049
    14  H    3.941603   2.859408   4.418883   4.098592   2.864274
    15  H    2.145864   5.231473   4.706724   5.633038   6.026112
    16  H    1.084875   4.441177   2.934527   4.241130   5.459576
                   11         12         13         14         15
    11  H    0.000000
    12  H    2.745781   0.000000
    13  H    6.083529   6.599476   0.000000
    14  H    5.479443   4.943757   2.489807   0.000000
    15  H    5.187203   6.712184   2.463400   4.322736   0.000000
    16  H    3.008367   5.203035   4.297945   5.026475   2.488996
                   16
    16  H    0.000000
 Stoichiometry    C8H7N
 Framework group  C1[X(C8H7N)]
 Deg. of freedom    42
 Full point group                 C1      NOp   1
 Largest Abelian subgroup         C1      NOp   1
 Largest concise Abelian subgroup C1      NOp   1
                         Standard orientation:                         
 ---------------------------------------------------------------------
 Center     Atomic      Atomic             Coordinates (Angstroms)
 Number     Number       Type             X           Y           Z
 ---------------------------------------------------------------------
      1          6           0       -2.180022    0.642761    0.000066
      2          6           0       -2.099115   -0.756279    0.000037
      3          6           0       -0.869102   -1.438596   -0.000047
      4          6           0        0.265496   -0.661476   -0.000096
      5          6           0        0.215920    0.757282   -0.000023
      6          6           0       -1.028297    1.416524    0.000188
      7          7           0        1.616152   -1.027730   -0.000034
      8          6           0        1.552243    1.206400   -0.000464
      9          6           0        2.375273    0.043197    0.000345
     10          1           0        1.995366   -2.009732    0.000132
     11          1           0        1.914210    2.226971   -0.000634
     12          1           0        3.456484   -0.044746    0.000631
     13          1           0       -3.014927   -1.338550    0.000020
     14          1           0       -0.823137   -2.519736   -0.000083
     15          1           0       -3.153705    1.120937    0.000021
     16          1           0       -1.081734    2.500082    0.000107
 ---------------------------------------------------------------------
 Rotational constants (GHZ):           3.8879690           1.6459490           1.1563957

 **********************************************************************

            Population analysis using the CI Density.

 **********************************************************************

 Orbital symmetries:
       Occupied  (A) (A) (A) (A) (A) (A) (A) (A) (A) (A) (A) (A)
                 (A) (A) (A) (A) (A) (A) (A) (A) (A) (A) (A) (A)
                 (A) (A) (A) (A) (A) (A) (A)
       Virtual   (A) (A) (A) (A) (A) (A) (A) (A) (A) (A) (A) (A)
                 (A) (A) (A) (A) (A) (A) (A) (A) (A) (A) (A) (A)
                 (A) (A) (A) (A) (A) (A) (A) (A) (A) (A) (A) (A)
                 (A) (A) (A) (A) (A) (A) (A) (A) (A) (A) (A) (A)
                 (A) (A) (A) (A) (A) (A) (A) (A) (A) (A) (A) (A)
                 (A) (A) (A) (A) (A) (A) (A) (A) (A) (A) (A) (A)
                 (A) (A) (A) (A) (A) (A) (A) (A) (A) (A) (A) (A)
                 (A) (A) (A) (A) (A) (A) (A) (A) (A) (A) (A) (A)
                 (A) (A) (A) (A) (A) (A) (A) (A) (A) (A) (A) (A)
                 (A) (A) (A) (A) (A) (A) (A) (A) (A) (A) (A) (A)
                 (A) (A) (A) (A) (A) (A) (A) (A) (A) (A) (A) (A)
                 (A) (A) (A) (A) (A) (A) (A) (A) (A) (A) (A) (A)
                 (A) (A) (A) (A) (A) (A) (A) (A) (A) (A)
 The electronic state is 1-A.
 Alpha  occ. eigenvalues --  -14.51204 -10.33825 -10.33283 -10.30534 -10.29865
 Alpha  occ. eigenvalues --  -10.29798 -10.29787 -10.29476 -10.28729  -1.09694
 Alpha  occ. eigenvalues --   -0.94536  -0.87838  -0.84343  -0.80778  -0.72310
 Alpha  occ. eigenvalues --   -0.68894  -0.67509  -0.63389  -0.57162  -0.56157
 Alpha  occ. eigenvalues --   -0.52848  -0.52018  -0.51964  -0.48820  -0.47327
 Alpha  occ. eigenvalues --   -0.43728  -0.42653  -0.41983  -0.35863  -0.30625
 Alpha  occ. eigenvalues --   -0.26637
 Alpha virt. eigenvalues --    0.04647   0.05359   0.07523   0.08096   0.08778
 Alpha virt. eigenvalues --    0.09290   0.09681   0.11131   0.11725   0.12123
 Alpha virt. eigenvalues --    0.12128   0.12521   0.14630   0.15010   0.16040
 Alpha virt. eigenvalues --    0.16225   0.17207   0.18665   0.19605   0.19741
 Alpha virt. eigenvalues --    0.21036   0.21591   0.22411   0.22861   0.23428
 Alpha virt. eigenvalues --    0.24144   0.24954   0.25168   0.25557   0.26344
 Alpha virt. eigenvalues --    0.26743   0.27743   0.28121   0.28706   0.29706
 Alpha virt. eigenvalues --    0.29760   0.29981   0.30622   0.31616   0.32358
 Alpha virt. eigenvalues --    0.33405   0.33671   0.34972   0.36568   0.36951
 Alpha virt. eigenvalues --    0.38146   0.39178   0.40778   0.42408   0.43913
 Alpha virt. eigenvalues --    0.44932   0.47435   0.51592   0.52896   0.60112
 Alpha virt. eigenvalues --    0.66584   0.70877   0.75716   0.75774   0.78167
 Alpha virt. eigenvalues --    0.80513   0.80593   0.81615   0.81881   0.83033
 Alpha virt. eigenvalues --    0.83974   0.85227   0.86158   0.87757   0.88371
 Alpha virt. eigenvalues --    0.90323   0.93977   0.97392   0.98471   0.99770
 Alpha virt. eigenvalues --    1.02877   1.03460   1.04359   1.04457   1.07511
 Alpha virt. eigenvalues --    1.09176   1.11210   1.12973   1.13426   1.17677
 Alpha virt. eigenvalues --    1.19919   1.20678   1.26161   1.26627   1.29243
 Alpha virt. eigenvalues --    1.30878   1.32290   1.33559   1.40261   1.41667
 Alpha virt. eigenvalues --    1.43446   1.45297   1.50141   1.50449   1.53513
 Alpha virt. eigenvalues --    1.55374   1.55631   1.58355   1.59148   1.63190
 Alpha virt. eigenvalues --    1.66929   1.74135   1.85762   1.92762   1.97693
 Alpha virt. eigenvalues --    1.98512   2.00706   2.02976   2.07640   2.08803
 Alpha virt. eigenvalues --    2.09918   2.14941   2.18478   2.23864   2.25325
 Alpha virt. eigenvalues --    2.26281   2.27888   2.33173   2.35002   2.36587
 Alpha virt. eigenvalues --    2.39151   2.41277   2.47191   2.51005   2.54893
 Alpha virt. eigenvalues --    2.62240   2.65618   2.72881   2.73769   2.76045
 Alpha virt. eigenvalues --    2.78487   2.82592   2.90071   2.93372   2.94685
 Alpha virt. eigenvalues --    3.04384   3.07400   3.19462   3.33961   3.53844
 Alpha virt. eigenvalues --    4.25211   4.35468   4.38872   4.41183   4.45746
 Alpha virt. eigenvalues --    4.49706   4.57772   4.61928   4.88583
          Condensed to atoms (all electrons):
               1          2          3          4          5          6
     1  C   19.991986   4.878994  -1.081234 -13.109566  -5.286073 -12.445387
     2  C    4.878994  21.036234   7.544170 -23.111127  10.746994 -23.620671
     3  C   -1.081234   7.544170  25.396408 -22.067168  10.768277 -19.610535
     4  C  -13.109566 -23.111127 -22.067168  92.225582 -31.257412  42.071012
     5  C   -5.286073  10.746994  10.768277 -31.257412  71.294250 -28.280229
     6  C  -12.445387 -23.620671 -19.610535  42.071012 -28.280229  61.859229
     7  N   -0.265693  -0.358503  -0.960498   4.519808  -3.637722   1.650884
     8  C   21.110603  14.916277  10.044152 -78.855036 -35.927342 -23.109046
     9  C   -7.881012  -5.691655  -3.729664  35.664141  16.092258   7.141521
    10  H   -0.005554  -0.043139  -0.246046   0.122454   0.657059  -0.016134
    11  H    0.003250  -0.000590   0.005542   0.006010   0.014448   0.005249
    12  H    0.003341   0.000876   0.015014   0.051516  -0.084743  -0.003636
    13  H    0.089820   0.170720  -0.067200   0.113165  -0.077646   0.089959
    14  H    0.026225   0.048476   0.166288   0.117813  -0.081795   0.028184
    15  H    0.276165   0.099110   0.023838  -0.055399   0.047798  -0.092898
    16  H   -0.080323  -0.074456  -0.029273   0.168205   0.153317   0.307384
               7          8          9         10         11         12
     1  C   -0.265693  21.110603  -7.881012  -0.005554   0.003250   0.003341
     2  C   -0.358503  14.916277  -5.691655  -0.043139  -0.000590   0.000876
     3  C   -0.960498  10.044152  -3.729664  -0.246046   0.005542   0.015014
     4  C    4.519808 -78.855036  35.664141   0.122454   0.006010   0.051516
     5  C   -3.637722 -35.927342  16.092258   0.657059   0.014448  -0.084743
     6  C    1.650884 -23.109046   7.141521  -0.016134   0.005249  -0.003636
     7  N   14.671625 -22.443748  13.913838  -0.924819   0.006197  -0.073134
     8  C  -22.443748 245.191588-122.386221   1.819280   0.282517   0.241460
     9  C   13.913838-122.386221  71.317300  -1.203536  -0.009116   0.179364
    10  H   -0.924819   1.819280  -1.203536   0.483191  -0.000051   0.001631
    11  H    0.006197   0.282517  -0.009116  -0.000051   0.415497  -0.000293
    12  H   -0.073134   0.241460   0.179364   0.001631  -0.000293   0.370804
    13  H    0.002389  -0.021039   0.010251  -0.000016   0.000000  -0.000000
    14  H    0.018628  -0.045852   0.032113  -0.000677   0.000001   0.000002
    15  H   -0.000042   0.022727  -0.004934   0.000000  -0.000001  -0.000000
    16  H    0.000701  -0.210479   0.062417  -0.000003   0.001052  -0.000001
              13         14         15         16
     1  C    0.089820   0.026225   0.276165  -0.080323
     2  C    0.170720   0.048476   0.099110  -0.074456
     3  C   -0.067200   0.166288   0.023838  -0.029273
     4  C    0.113165   0.117813  -0.055399   0.168205
     5  C   -0.077646  -0.081795   0.047798   0.153317
     6  C    0.089959   0.028184  -0.092898   0.307384
     7  N    0.002389   0.018628  -0.000042   0.000701
     8  C   -0.021039  -0.045852   0.022727  -0.210479
     9  C    0.010251   0.032113  -0.004934   0.062417
    10  H   -0.000016  -0.000677   0.000000  -0.000003
    11  H    0.000000   0.000001  -0.000001   0.001052
    12  H   -0.000000   0.000002  -0.000000  -0.000001
    13  H    0.455694  -0.002223  -0.003160  -0.000096
    14  H   -0.002223   0.414781  -0.000090   0.000012
    15  H   -0.003160  -0.000090   0.459160  -0.002753
    16  H   -0.000096   0.000012  -0.002753   0.460272
 Mulliken charges:
               1
     1  C   -0.225540
     2  C   -0.541710
     3  C   -0.172070
     4  C   -0.603997
     5  C    0.858562
     6  C    0.025114
     7  N    0.880092
     8  C   -4.629841
     9  C    2.492937
    10  H    0.356361
    11  H    0.270290
    12  H    0.297803
    13  H    0.239382
    14  H    0.278116
    15  H    0.230479
    16  H    0.244023
 Sum of Mulliken charges =  -0.00000
 Mulliken charges with hydrogens summed into heavy atoms:
               1
     1  C    0.004939
     2  C   -0.302328
     3  C    0.106046
     4  C   -0.603997
     5  C    0.858562
     6  C    0.269138
     7  N    1.236453
     8  C   -4.359551
     9  C    2.790740
 Electronic spatial extent (au):  <R**2>=           1038.9496
 Charge=             -0.0000 electrons
 Dipole moment (field-independent basis, Debye):
    X=             -6.1938    Y=              5.7641    Z=             -0.0009  Tot=              8.4609
 Quadrupole moment (field-independent basis, Debye-Ang):
   XX=            -64.7729   YY=            -61.7160   ZZ=            -66.2006
   XY=             15.6743   XZ=             -0.0060   YZ=              0.0005
 Traceless Quadrupole moment (field-independent basis, Debye-Ang):
   XX=             -0.5431   YY=              2.5138   ZZ=             -1.9708
   XY=             15.6743   XZ=             -0.0060   YZ=              0.0005
 Octapole moment (field-independent basis, Debye-Ang**2):
  XXX=           -123.1462  YYY=             65.5909  ZZZ=             -0.0091  XYY=            -47.3491
  XXY=             50.5324  XXZ=             -0.0261  XZZ=            -21.3881  YZZ=             17.7818
  YYZ=             -0.0016  XYZ=              0.0092
 Hexadecapole moment (field-independent basis, Debye-Ang**3):
 XXXX=          -1359.0120 YYYY=           -643.1894 ZZZZ=           -144.8138 XXXY=            208.7755
 XXXZ=             -0.1186 YYYX=            137.5970 YYYZ=             -0.0012 ZZZX=             -0.0424
 ZZZY=              0.0186 XXYY=           -347.9579 XXZZ=           -256.9494 YYZZ=           -147.8051
 XXYZ=              0.0311 YYXZ=             -0.0338 ZZXY=             38.5015
 N-N= 4.009818725732D+02 E-N=-1.640787046108D+03  KE= 3.602157258567D+02
 Unable to Open any file for archive entry.
 1\1\GINC-EXP-2-22\FOpt\RwB97XD TD-FC\6-31+G(d)\C8H7N1\CWALDT\23-Jun-20
 21\0\\# td= (nstates=6, root=3) WB97XD/6-31+G* Opt density=current\\Fu
 ncsWB97XD-V-3rd\\0,1\C,-2.1653774264,0.7027263141,0.0000891899\C,-2.12
 12124461,-0.6979553839,0.0000599153\C,-0.9095281023,-1.4123159618,-0.0
 000234921\C,0.24507186,-0.6652380759,-0.0000725101\C,0.2327453264,0.75
 43321627,-0.0000001383\C,-0.9937432335,1.4459989475,0.00021086\N,1.585
 6520579,-1.0668107819,-0.0000108886\C,1.580394185,1.1682273453,-0.0004
 406163\C,2.3726149963,-0.0161739742,0.0003680911\H,1.9389650064,-2.058
 4256747,0.0001550884\H,1.9690182339,2.1789479154,-0.0006107143\H,3.451
 1459016,-0.1324601787,0.0006539166\H,-3.0519888365,-1.2559925057,0.000
 0430505\H,-0.8919515553,-2.4942897133,-0.0000601402\H,-3.1261761104,1.
 2062896713,0.0000442442\H,-1.018726857,2.5305858938,0.0001301439\\Vers
 ion=AS64L-G16RevC.01\State=1-A\HF=-363.6941126\RMSD=4.359e-09\RMSF=2.2
 27e-04\Dipole=-2.4368211,2.2677588,-0.0003565\Quadrupole=-0.4037578,1.
 8689681,-1.4652102,11.6534295,-0.0044859,0.0003398\PG=C01 [X(C8H7N1)]\
 \@
 The archive entry for this job was punched.


 IT IS THE GODS' CUSTOM TO BRING LOW ALL THINGS OF SURPASSING GREATNESS.
     -- HERODOTUS
 IT IS THE LOFTY PINE THAT BY THE STORM IS OFTENER TOSSED;
 TOWERS FALL WITH HEAVIER CRASH WHICH HIGHER SOAR.
     -- HORACE
 THE BIGGER THEY COME, THE HARDER THEY FALL.
     -- BOB FITZSIMONS HEAVYWEIGHT CHAMPION, 1897-1899
 Job cpu time:       0 days  3 hours 11 minutes  5.2 seconds.
 Elapsed time:       0 days  0 hours 48 minutes 33.0 seconds.
 File lengths (MBytes):  RWF=    239 Int=      0 D2E=      0 Chk=     11 Scr=      1
 Normal termination of Gaussian 16 at Wed Jun 23 12:48:27 2021.
