 Entering Gaussian System, Link 0=/cm/shared/apps/spack/cpu/opt/spack/linux-centos8-zen/gcc-8.3.1/gaussian-16.C.01-po5bqktfeugvmjyga3v7eigbecnokxng/g16/g16
 Initial command:
 /cm/shared/apps/spack/cpu/opt/spack/linux-centos8-zen/gcc-8.3.1/gaussian-16.C.01-po5bqktfeugvmjyga3v7eigbecnokxng/g16/l1.exe "/scratch/cwaldt/job_3581961/Gau-59127.inp" -scrdir="/scratch/cwaldt/job_3581961/"
 Entering Link 1 = /cm/shared/apps/spack/cpu/opt/spack/linux-centos8-zen/gcc-8.3.1/gaussian-16.C.01-po5bqktfeugvmjyga3v7eigbecnokxng/g16/l1.exe PID=     59128.
  
 Copyright (c) 1988-2019, Gaussian, Inc.  All Rights Reserved.
  
 This is part of the Gaussian(R) 16 program.  It is based on
 the Gaussian(R) 09 system (copyright 2009, Gaussian, Inc.),
 the Gaussian(R) 03 system (copyright 2003, Gaussian, Inc.),
 the Gaussian(R) 98 system (copyright 1998, Gaussian, Inc.),
 the Gaussian(R) 94 system (copyright 1995, Gaussian, Inc.),
 the Gaussian 92(TM) system (copyright 1992, Gaussian, Inc.),
 the Gaussian 90(TM) system (copyright 1990, Gaussian, Inc.),
 the Gaussian 88(TM) system (copyright 1988, Gaussian, Inc.),
 the Gaussian 86(TM) system (copyright 1986, Carnegie Mellon
 University), and the Gaussian 82(TM) system (copyright 1983,
 Carnegie Mellon University). Gaussian is a federally registered
 trademark of Gaussian, Inc.
  
 This software contains proprietary and confidential information,
 including trade secrets, belonging to Gaussian, Inc.
  
 This software is provided under written license and may be
 used, copied, transmitted, or stored only in accord with that
 written license.
  
 The following legend is applicable only to US Government
 contracts under FAR:
  
                    RESTRICTED RIGHTS LEGEND
  
 Use, reproduction and disclosure by the US Government is
 subject to restrictions as set forth in subparagraphs (a)
 and (c) of the Commercial Computer Software - Restricted
 Rights clause in FAR 52.227-19.
  
 Gaussian, Inc.
 340 Quinnipiac St., Bldg. 40, Wallingford CT 06492
  
  
 ---------------------------------------------------------------
 Warning -- This program may not be used in any manner that
 competes with the business of Gaussian, Inc. or will provide
 assistance to any competitor of Gaussian, Inc.  The licensee
 of this program is prohibited from giving any competitor of
 Gaussian, Inc. access to this program.  By using this program,
 the user acknowledges that Gaussian, Inc. is engaged in the
 business of creating and licensing software in the field of
 computational chemistry and represents and warrants to the
 licensee that it is not a competitor of Gaussian, Inc. and that
 it will not use this program in any manner prohibited above.
 ---------------------------------------------------------------
  

 Cite this work as:
 Gaussian 16, Revision C.01,
 M. J. Frisch, G. W. Trucks, H. B. Schlegel, G. E. Scuseria, 
 M. A. Robb, J. R. Cheeseman, G. Scalmani, V. Barone, 
 G. A. Petersson, H. Nakatsuji, X. Li, M. Caricato, A. V. Marenich, 
 J. Bloino, B. G. Janesko, R. Gomperts, B. Mennucci, H. P. Hratchian, 
 J. V. Ortiz, A. F. Izmaylov, J. L. Sonnenberg, D. Williams-Young, 
 F. Ding, F. Lipparini, F. Egidi, J. Goings, B. Peng, A. Petrone, 
 T. Henderson, D. Ranasinghe, V. G. Zakrzewski, J. Gao, N. Rega, 
 G. Zheng, W. Liang, M. Hada, M. Ehara, K. Toyota, R. Fukuda, 
 J. Hasegawa, M. Ishida, T. Nakajima, Y. Honda, O. Kitao, H. Nakai, 
 T. Vreven, K. Throssell, J. A. Montgomery, Jr., J. E. Peralta, 
 F. Ogliaro, M. J. Bearpark, J. J. Heyd, E. N. Brothers, K. N. Kudin, 
 V. N. Staroverov, T. A. Keith, R. Kobayashi, J. Normand, 
 K. Raghavachari, A. P. Rendell, J. C. Burant, S. S. Iyengar, 
 J. Tomasi, M. Cossi, J. M. Millam, M. Klene, C. Adamo, R. Cammi, 
 J. W. Ochterski, R. L. Martin, K. Morokuma, O. Farkas, 
 J. B. Foresman, and D. J. Fox, Gaussian, Inc., Wallingford CT, 2019.
 
 ******************************************
 Gaussian 16:  AS64L-G16RevC.01  3-Jul-2019
                23-Jun-2021 
 ******************************************
 %nprocshared=4
 Will use up to    4 processors via shared memory.
 %chk=FuncsWB97XD-V-1st.chk
 %Mem=3GB
 ------------------------------------------------------------
 # td= (nstates=6, root=1) WB97XD/6-31+G* Opt density=current
 ------------------------------------------------------------
 1/18=20,19=15,26=3,38=1/1,3;
 2/9=110,12=2,17=6,18=5,40=1/2;
 3/5=1,6=6,7=11,11=9,25=1,30=1,71=1,74=-58/1,2,3,8;
 4//1;
 5/5=2,38=5/2;
 8/6=1,10=2,107=1,108=6/1;
 9/8=1,15=2,41=6,42=1,70=2/14;
 10/5=4,28=1/2;
 6/7=2,8=2,9=2,10=2,22=-1/1;
 7/12=6,13=5,14=1/1,2,3,16;
 1/18=20,19=15,26=3/3(2);
 2/9=110/2;
 99//99;
 2/9=110/2;
 3/5=1,6=6,7=11,11=9,25=1,30=1,71=1,74=-58/1,2,3,8;
 4/5=5,16=3,69=1/1;
 5/5=2,38=5/2;
 8/6=1,10=2,107=1,108=6/1;
 9/8=1,15=2,41=6,42=1,49=4,70=2/14;
 10/5=4,28=1/2;
 7/12=6,13=5,14=1/1,2,3,16;
 1/18=20,19=15,26=3/3(-8);
 2/9=110/2;
 6/7=2,8=2,9=2,10=2,22=-1/1;
 99/9=10/99;
 -----------------
 FuncsWB97XD-V-1st
 -----------------
 Symbolic Z-matrix:
 Charge =  0 Multiplicity = 1
 C                    -2.15106   0.68921   0.00009 
 C                    -2.12793  -0.71582   0.00008 
 C                    -0.9323   -1.4131   -0.00001 
 C                     0.24691  -0.6702   -0.00004 
 C                     0.24819   0.7483    0. 
 C                    -0.97947   1.42353   0.00003 
 N                     1.56177  -1.07759  -0.00029 
 C                     1.62013   1.1629   -0.00016 
 C                     2.38201   0.03081   0.00025 
 H                     1.87632  -2.03001   0.00044 
 H                     1.99217   2.17301  -0.00035 
 H                     3.45255  -0.08243   0.00041 
 H                    -3.06159  -1.26202   0.00009 
 H                    -0.91725  -2.49534  -0.00007 
 H                    -3.1042    1.20079   0.00009 
 H                    -1.00935   2.50542  -0.00002 
 

 GradGradGradGradGradGradGradGradGradGradGradGradGradGradGradGradGradGrad
 Berny optimization.
 Initialization pass.
                           ----------------------------
                           !    Initial Parameters    !
                           ! (Angstroms and Degrees)  !
 --------------------------                            --------------------------
 ! Name  Definition              Value          Derivative Info.                !
 --------------------------------------------------------------------------------
 ! R1    R(1,2)                  1.4052         estimate D2E/DX2                !
 ! R2    R(1,6)                  1.3827         estimate D2E/DX2                !
 ! R3    R(1,15)                 1.0818         estimate D2E/DX2                !
 ! R4    R(2,3)                  1.3841         estimate D2E/DX2                !
 ! R5    R(2,13)                 1.0817         estimate D2E/DX2                !
 ! R6    R(3,4)                  1.3937         estimate D2E/DX2                !
 ! R7    R(3,14)                 1.0823         estimate D2E/DX2                !
 ! R8    R(4,5)                  1.4185         estimate D2E/DX2                !
 ! R9    R(4,7)                  1.3765         estimate D2E/DX2                !
 ! R10   R(5,6)                  1.4011         estimate D2E/DX2                !
 ! R11   R(5,8)                  1.4332         estimate D2E/DX2                !
 ! R12   R(6,16)                 1.0823         estimate D2E/DX2                !
 ! R13   R(7,9)                  1.3789         estimate D2E/DX2                !
 ! R14   R(7,10)                 1.003          estimate D2E/DX2                !
 ! R15   R(8,9)                  1.3646         estimate D2E/DX2                !
 ! R16   R(8,11)                 1.0764         estimate D2E/DX2                !
 ! R17   R(9,12)                 1.0765         estimate D2E/DX2                !
 ! A1    A(2,1,6)              121.1349         estimate D2E/DX2                !
 ! A2    A(2,1,15)             119.1671         estimate D2E/DX2                !
 ! A3    A(6,1,15)             119.698          estimate D2E/DX2                !
 ! A4    A(1,2,3)              121.1938         estimate D2E/DX2                !
 ! A5    A(1,2,13)             119.3846         estimate D2E/DX2                !
 ! A6    A(3,2,13)             119.4217         estimate D2E/DX2                !
 ! A7    A(2,3,4)              117.5387         estimate D2E/DX2                !
 ! A8    A(2,3,14)             121.0469         estimate D2E/DX2                !
 ! A9    A(4,3,14)             121.4144         estimate D2E/DX2                !
 ! A10   A(3,4,5)              122.2626         estimate D2E/DX2                !
 ! A11   A(3,4,7)              130.5743         estimate D2E/DX2                !
 ! A12   A(5,4,7)              107.163          estimate D2E/DX2                !
 ! A13   A(4,5,6)              118.7594         estimate D2E/DX2                !
 ! A14   A(4,5,8)              106.8666         estimate D2E/DX2                !
 ! A15   A(6,5,8)              134.374          estimate D2E/DX2                !
 ! A16   A(1,6,5)              119.1105         estimate D2E/DX2                !
 ! A17   A(1,6,16)             120.4966         estimate D2E/DX2                !
 ! A18   A(5,6,16)             120.3928         estimate D2E/DX2                !
 ! A19   A(4,7,9)              109.2874         estimate D2E/DX2                !
 ! A20   A(4,7,10)             125.4909         estimate D2E/DX2                !
 ! A21   A(9,7,10)             125.2217         estimate D2E/DX2                !
 ! A22   A(5,8,9)              107.125          estimate D2E/DX2                !
 ! A23   A(5,8,11)             127.0344         estimate D2E/DX2                !
 ! A24   A(9,8,11)             125.8405         estimate D2E/DX2                !
 ! A25   A(7,9,8)              109.5578         estimate D2E/DX2                !
 ! A26   A(7,9,12)             120.4645         estimate D2E/DX2                !
 ! A27   A(8,9,12)             129.9776         estimate D2E/DX2                !
 ! D1    D(6,1,2,3)             -0.0008         estimate D2E/DX2                !
 ! D2    D(6,1,2,13)          -179.9981         estimate D2E/DX2                !
 ! D3    D(15,1,2,3)           179.996          estimate D2E/DX2                !
 ! D4    D(15,1,2,13)           -0.0013         estimate D2E/DX2                !
 ! D5    D(2,1,6,5)             -0.0018         estimate D2E/DX2                !
 ! D6    D(2,1,6,16)           179.9965         estimate D2E/DX2                !
 ! D7    D(15,1,6,5)          -179.9986         estimate D2E/DX2                !
 ! D8    D(15,1,6,16)           -0.0003         estimate D2E/DX2                !
 ! D9    D(1,2,3,4)              0.002          estimate D2E/DX2                !
 ! D10   D(1,2,3,14)          -179.9968         estimate D2E/DX2                !
 ! D11   D(13,2,3,4)           179.9992         estimate D2E/DX2                !
 ! D12   D(13,2,3,14)            0.0005         estimate D2E/DX2                !
 ! D13   D(2,3,4,5)             -0.0005         estimate D2E/DX2                !
 ! D14   D(2,3,4,7)           -179.9911         estimate D2E/DX2                !
 ! D15   D(14,3,4,5)           179.9982         estimate D2E/DX2                !
 ! D16   D(14,3,4,7)             0.0076         estimate D2E/DX2                !
 ! D17   D(3,4,5,6)             -0.002          estimate D2E/DX2                !
 ! D18   D(3,4,5,8)           -179.9955         estimate D2E/DX2                !
 ! D19   D(7,4,5,6)            179.9905         estimate D2E/DX2                !
 ! D20   D(7,4,5,8)             -0.003          estimate D2E/DX2                !
 ! D21   D(3,4,7,9)           -179.98           estimate D2E/DX2                !
 ! D22   D(3,4,7,10)            -0.0649         estimate D2E/DX2                !
 ! D23   D(5,4,7,9)              0.0284         estimate D2E/DX2                !
 ! D24   D(5,4,7,10)           179.9434         estimate D2E/DX2                !
 ! D25   D(4,5,6,1)              0.0031         estimate D2E/DX2                !
 ! D26   D(4,5,6,16)          -179.9951         estimate D2E/DX2                !
 ! D27   D(8,5,6,1)            179.9944         estimate D2E/DX2                !
 ! D28   D(8,5,6,16)            -0.0038         estimate D2E/DX2                !
 ! D29   D(4,5,8,9)             -0.0234         estimate D2E/DX2                !
 ! D30   D(4,5,8,11)           179.9883         estimate D2E/DX2                !
 ! D31   D(6,5,8,9)            179.9846         estimate D2E/DX2                !
 ! D32   D(6,5,8,11)            -0.0037         estimate D2E/DX2                !
 ! D33   D(4,7,9,8)             -0.0444         estimate D2E/DX2                !
 ! D34   D(4,7,9,12)           179.9847         estimate D2E/DX2                !
 ! D35   D(10,7,9,8)          -179.9597         estimate D2E/DX2                !
 ! D36   D(10,7,9,12)            0.0693         estimate D2E/DX2                !
 ! D37   D(5,8,9,7)              0.0414         estimate D2E/DX2                !
 ! D38   D(5,8,9,12)          -179.9913         estimate D2E/DX2                !
 ! D39   D(11,8,9,7)          -179.9702         estimate D2E/DX2                !
 ! D40   D(11,8,9,12)           -0.0029         estimate D2E/DX2                !
 --------------------------------------------------------------------------------
 Trust Radius=3.00D-01 FncErr=1.00D-07 GrdErr=1.00D-06 EigMax=2.50D+02 EigMin=1.00D-04
 Number of steps in this run=     94 maximum allowed number of steps=    100.
 GradGradGradGradGradGradGradGradGradGradGradGradGradGradGradGradGradGrad

                          Input orientation:                          
 ---------------------------------------------------------------------
 Center     Atomic      Atomic             Coordinates (Angstroms)
 Number     Number       Type             X           Y           Z
 ---------------------------------------------------------------------
      1          6           0       -2.151063    0.689208    0.000088
      2          6           0       -2.127927   -0.715818    0.000075
      3          6           0       -0.932297   -1.413100   -0.000011
      4          6           0        0.246911   -0.670201   -0.000042
      5          6           0        0.248193    0.748299    0.000000
      6          6           0       -0.979474    1.423526    0.000032
      7          7           0        1.561774   -1.077592   -0.000285
      8          6           0        1.620133    1.162900   -0.000157
      9          6           0        2.382013    0.030806    0.000248
     10          1           0        1.876315   -2.030011    0.000438
     11          1           0        1.992173    2.173010   -0.000348
     12          1           0        3.452549   -0.082425    0.000408
     13          1           0       -3.061594   -1.262020    0.000088
     14          1           0       -0.917252   -2.495342   -0.000073
     15          1           0       -3.104203    1.200785    0.000090
     16          1           0       -1.009348    2.505421   -0.000015
 ---------------------------------------------------------------------
                    Distance matrix (angstroms):
                    1          2          3          4          5
     1  C    0.000000
     2  C    1.405216   0.000000
     3  C    2.430039   1.384100   0.000000
     4  C    2.756496   2.375276   1.393711   0.000000
     5  C    2.399984   2.790983   2.462763   1.418501   0.000000
     6  C    1.382694   2.428114   2.837018   2.426461   1.401106
     7  N    4.111781   3.707395   2.516536   1.376529   2.249305
     8  C    3.800829   4.192557   3.626386   2.290414   1.433218
     9  C    4.580641   4.571324   3.615178   2.247236   2.251218
    10  H    4.859416   4.214387   2.875566   2.122273   3.220216
    11  H    4.400917   5.031953   4.627387   3.336134   2.251948
    12  H    5.656491   5.616307   4.582311   3.259079   3.310287
    13  H    2.153220   1.081698   2.134650   3.361020   3.872476
    14  H    3.415208   2.152310   1.082347   2.164813   3.446661
    15  H    1.081752   2.150926   3.398466   3.838040   3.382795
    16  H    2.145261   3.409927   3.919278   3.415079   2.160761
                    6          7          8          9         10
     6  C    0.000000
     7  N    3.565604   0.000000
     8  C    2.612639   2.241252   0.000000
     9  C    3.638580   1.378890   1.364587   0.000000
    10  H    4.481345   1.003015   3.203172   2.121956   0.000000
    11  H    3.064704   3.278972   1.076446   2.177387   4.204618
    12  H    4.680888   2.136677   2.215532   1.076508   2.505515
    13  H    3.398144   4.627045   5.272457   5.595021   4.997275
    14  H    3.919362   2.855798   4.452085   4.155307   2.832058
    15  H    2.136372   5.192528   4.724488   5.609583   5.936632
    16  H    1.082307   4.410062   2.952378   4.198220   5.375611
                   11         12         13         14         15
    11  H    0.000000
    12  H    2.686947   0.000000
    13  H    6.110646   6.620083   0.000000
    14  H    5.500751   4.991726   2.473719   0.000000
    15  H    5.188282   6.681139   2.463174   4.294661   0.000000
    16  H    3.019872   5.158049   4.290143   5.001611   2.467892
                   16
    16  H    0.000000
 Stoichiometry    C8H7N
 Framework group  C1[X(C8H7N)]
 Deg. of freedom    42
 Full point group                 C1      NOp   1
 Largest Abelian subgroup         C1      NOp   1
 Largest concise Abelian subgroup C1      NOp   1
                         Standard orientation:                         
 ---------------------------------------------------------------------
 Center     Atomic      Atomic             Coordinates (Angstroms)
 Number     Number       Type             X           Y           Z
 ---------------------------------------------------------------------
      1          6           0       -2.151063    0.689208    0.000088
      2          6           0       -2.127927   -0.715818    0.000075
      3          6           0       -0.932297   -1.413100   -0.000011
      4          6           0        0.246911   -0.670201   -0.000042
      5          6           0        0.248193    0.748299    0.000000
      6          6           0       -0.979474    1.423526    0.000032
      7          7           0        1.561774   -1.077592   -0.000285
      8          6           0        1.620133    1.162900   -0.000157
      9          6           0        2.382013    0.030806    0.000248
     10          1           0        1.876315   -2.030011    0.000438
     11          1           0        1.992173    2.173010   -0.000348
     12          1           0        3.452549   -0.082425    0.000408
     13          1           0       -3.061594   -1.262020    0.000088
     14          1           0       -0.917252   -2.495342   -0.000073
     15          1           0       -3.104203    1.200785    0.000090
     16          1           0       -1.009348    2.505421   -0.000015
 ---------------------------------------------------------------------
 Rotational constants (GHZ):           3.9080822           1.6429452           1.1566805
 Standard basis: 6-31+G(d) (6D, 7F)
 There are   185 symmetry adapted cartesian basis functions of A   symmetry.
 There are   185 symmetry adapted basis functions of A   symmetry.
   185 basis functions,   316 primitive gaussians,   185 cartesian basis functions
    31 alpha electrons       31 beta electrons
       nuclear repulsion energy       401.3368668897 Hartrees.
 NAtoms=   16 NActive=   16 NUniq=   16 SFac= 1.00D+00 NAtFMM=   60 NAOKFM=F Big=F
 Integral buffers will be    131072 words long.
 Raffenetti 1 integral format.
 Two-electron integral symmetry is turned on.
 Nuclear repulsion after empirical dispersion term =      401.3294111108 Hartrees.
 One-electron integrals computed using PRISM.
 NBasis=   185 RedAO= T EigKep=  1.26D-06  NBF=   185
 NBsUse=   185 1.00D-06 EigRej= -1.00D+00 NBFU=   185
 ExpMin= 4.38D-02 ExpMax= 4.17D+03 ExpMxC= 6.27D+02 IAcc=3 IRadAn=         5 AccDes= 0.00D+00
 Harris functional with IExCor= 4639 and IRadAn=       5 diagonalized for initial guess.
 HarFok:  IExCor= 4639 AccDes= 0.00D+00 IRadAn=         5 IDoV= 1 UseB2=F ITyADJ=14
 ICtDFT=  3500011 ScaDFX=  1.000000  1.000000  1.000000  1.000000
 FoFCou: FMM=F IPFlag=           0 FMFlag=      100000 FMFlg1=           0
         NFxFlg=           0 DoJE=T BraDBF=F KetDBF=T FulRan=T
         wScrn=  0.000000 ICntrl=       500 IOpCl=  0 I1Cent=   200000004 NGrid=           0
         NMat0=    1 NMatS0=      1 NMatT0=    0 NMatD0=    1 NMtDS0=    0 NMtDT0=    0
 Petite list used in FoFCou.
 Keep R1 ints in memory in canonical form, NReq=303303409.
 Requested convergence on RMS density matrix=1.00D-08 within 128 cycles.
 Requested convergence on MAX density matrix=1.00D-06.
 Requested convergence on             energy=1.00D-06.
 No special actions if energy rises.
 SCF Done:  E(RwB97XD) =  -363.703484374     A.U. after   15 cycles
            NFock= 15  Conv=0.67D-08     -V/T= 2.0093
 DoSCS=F DFT=T ScalE2(SS,OS)=  1.000000  1.000000
 ExpMin= 4.38D-02 ExpMax= 4.17D+03 ExpMxC= 6.27D+02 IAcc=3 IRadAn=         5 AccDes= 0.00D+00
 HarFok:  IExCor=  205 AccDes= 0.00D+00 IRadAn=         5 IDoV=-2 UseB2=F ITyADJ=14
 ICtDFT= 12500011 ScaDFX=  1.000000  1.000000  1.000000  1.000000
 Range of M.O.s used for correlation:    10   185
 NBasis=   185 NAE=    31 NBE=    31 NFC=     9 NFV=     0
 NROrb=    176 NOA=    22 NOB=    22 NVA=   154 NVB=   154

 **** Warning!!: The largest alpha MO coefficient is  0.16859342D+03

 Orbital symmetries:
       Occupied  (A) (A) (A) (A) (A) (A) (A) (A) (A) (A) (A) (A)
                 (A) (A) (A) (A) (A) (A) (A) (A) (A) (A) (A) (A)
                 (A) (A) (A) (A) (A) (A) (A)
       Virtual   (A) (A) (A) (A) (A) (A) (A) (A) (A) (A) (A) (A)
                 (A) (A) (A) (A) (A) (A) (A) (A) (A) (A) (A) (A)
                 (A) (A) (A) (A) (A) (A) (A) (A) (A) (A) (A) (A)
                 (A) (A) (A) (A) (A) (A) (A) (A) (A) (A) (A) (A)
                 (A) (A) (A) (A) (A) (A) (A) (A) (A) (A) (A) (A)
                 (A) (A) (A) (A) (A) (A) (A) (A) (A) (A) (A) (A)
                 (A) (A) (A) (A) (A) (A) (A) (A) (A) (A) (A) (A)
                 (A) (A) (A) (A) (A) (A) (A) (A) (A) (A) (A) (A)
                 (A) (A) (A) (A) (A) (A) (A) (A) (A) (A) (A) (A)
                 (A) (A) (A) (A) (A) (A) (A) (A) (A) (A) (A) (A)
                 (A) (A) (A) (A) (A) (A) (A) (A) (A) (A) (A) (A)
                 (A) (A) (A) (A) (A) (A) (A) (A) (A) (A) (A) (A)
                 (A) (A) (A) (A) (A) (A) (A) (A) (A) (A)
    24 initial guesses have been made.
 Convergence on wavefunction:    0.000001000000000
 Iteration     1 Dimension    24 NMult     0 NNew     24
 CISAX will form    24 AO SS matrices at one time.
 New state      1 was old state      3
 New state      2 was old state      1
 New state      3 was old state      2
 New state      5 was old state      6
 New state      6 was old state      5
 Iteration     2 Dimension    36 NMult    24 NNew     12
 Iteration     3 Dimension    48 NMult    36 NNew     12
 Iteration     4 Dimension    60 NMult    48 NNew     12
 Iteration     5 Dimension    72 NMult    60 NNew     12
 Iteration     6 Dimension    84 NMult    72 NNew     12
 Iteration     7 Dimension    96 NMult    84 NNew     12
 Iteration     8 Dimension   108 NMult    96 NNew     12
 No map to state      6
 Iteration     9 Dimension   120 NMult   108 NNew     12
 Iteration    10 Dimension   132 NMult   120 NNew     12
 Iteration    11 Dimension   140 NMult   132 NNew      8
 Iteration    12 Dimension   144 NMult   140 NNew      4
 Iteration    13 Dimension   146 NMult   144 NNew      2
 Iteration    14 Dimension   148 NMult   146 NNew      2
 Iteration    15 Dimension   150 NMult   148 NNew      2
 Iteration    16 Dimension   152 NMult   150 NNew      2
 ***********************************************************************
 Excited states from <AA,BB:AA,BB> singles matrix:
 ***********************************************************************
 
 Ground to excited state transition densities written to RWF  633
 Ground to excited state transition electric dipole moments (Au):
       state          X           Y           Z        Dip. S.      Osc.
         1        -0.0276     -0.5654      0.0000      0.3205      0.0399
         2        -0.8621      0.4139     -0.0002      0.9145      0.1150
         3         0.0004     -0.0003     -0.1750      0.0306      0.0043
         4        -0.0014     -0.0004     -0.1729      0.0299      0.0045
         5         0.0035      0.0010     -0.0527      0.0028      0.0004
         6        -1.8936     -0.6847     -0.0019      4.0546      0.6303
 Ground to excited state transition velocity dipole moments (Au):
       state          X           Y           Z        Dip. S.      Osc.
         1         0.0075      0.1129     -0.0000      0.0128      0.0457
         2         0.1518     -0.0843      0.0000      0.0301      0.1066
         3        -0.0001      0.0001      0.0278      0.0008      0.0025
         4         0.0003      0.0001      0.0399      0.0016      0.0047
         5        -0.0008     -0.0002      0.0118      0.0001      0.0004
         6         0.4315      0.1596      0.0004      0.2117      0.6052
 Ground to excited state transition magnetic dipole moments (Au):
       state          X           Y           Z
         1        -0.0002     -0.0001     -0.1576
         2         0.0002     -0.0002      0.0572
         3         0.1417     -0.1361     -0.0000
         4         0.1271     -0.3268     -0.0004
         5         0.1980     -0.3756      0.0012
         6        -0.0049     -0.0048     -0.8086
 Ground to excited state transition velocity quadrupole moments (Au):
       state          XX          YY          ZZ          XY          XZ          YZ
         1        -0.1064     -0.0009      0.0079     -0.0207     -0.0000     -0.0001
         2         0.2177     -0.1827      0.0250      0.0026      0.0002      0.0000
         3        -0.0002      0.0001      0.0001     -0.0000      0.1156      0.0662
         4         0.0001     -0.0001      0.0000     -0.0002      0.2485      0.0751
         5        -0.0006      0.0004      0.0000      0.0009      0.4067      0.2455
         6         0.1548     -0.1441     -0.0332     -0.5402      0.0035     -0.0031
 <0|del|b> * <b|rxdel|0> + <0|del|b> * <b|delr+rdel|0>
 Rotatory Strengths (R) in cgs (10**-40 erg-esu-cm/Gauss)
       state          XX          YY          ZZ    R(velocity)    E-M Angle
         1        -0.0168     -0.0040     -0.0218     -0.0142       90.00
         2         0.0649      0.0593      0.0414      0.0552       90.00
         3        -0.0313     -0.0213     -0.0100     -0.0209       90.00
         4        -0.1117      0.0856      0.0155     -0.0035       90.00
         5         0.3339     -0.5352      0.0462     -0.0517       90.00
         6        -2.9329     -5.3931     -1.5042     -3.2767       90.50
 1/2[<0|r|b>*<b|rxdel|0> + (<0|rxdel|b>*<b|r|0>)*]
 Rotatory Strengths (R) in cgs (10**-40 erg-esu-cm/Gauss)
       state          XX          YY          ZZ     R(length)
         1        -0.0045     -0.0346      0.0031     -0.0120
         2         0.0981      0.0626      0.0075      0.0561
         3        -0.0357     -0.0269     -0.0058     -0.0228
         4         0.1252     -0.0882     -0.0507     -0.0046
         5        -0.4928      0.2726      0.0463     -0.0580
         6        -6.5443     -2.3365     -1.0932     -3.3247
  1/2[<0|del|b>*<b|r|0> + (<0|r|b>*<b|del|0>)*] (Au)
       state          X           Y           Z        Dip. S.   Osc.(frdel)
         1        -0.0002     -0.0638     -0.0000      0.0640      0.0427
         2        -0.1308     -0.0349     -0.0000      0.1658      0.1105
         3        -0.0000     -0.0000     -0.0049      0.0049      0.0032
         4        -0.0000     -0.0000     -0.0069      0.0069      0.0046
         5        -0.0000     -0.0000     -0.0006      0.0006      0.0004
         6        -0.8171     -0.1093     -0.0000      0.9264      0.6176

 Excitation energies and oscillator strengths:
 
 Excited State   1:      Singlet-A      5.0785 eV  244.13 nm  f=0.0399  <S**2>=0.000
      30 -> 32         0.50533
      30 -> 36        -0.10996
      31 -> 32        -0.36683
      31 -> 36        -0.27912
 This state for optimization and/or second-order correction.
 Total Energy, E(TD-HF/TD-DFT) =  -363.516851508    
 Copying the excited state density for this state as the 1-particle RhoCI density.
 
 Excited State   2:      Singlet-A      5.1328 eV  241.55 nm  f=0.1150  <S**2>=0.000
      30 -> 32         0.29983
      30 -> 36         0.16044
      31 -> 32         0.56133
      31 -> 36        -0.23839
 
 Excited State   3:      Singlet-A      5.6664 eV  218.81 nm  f=0.0043  <S**2>=0.000
      29 -> 33         0.10025
      31 -> 33         0.67219
      31 -> 40         0.11141
 
 Excited State   4:      Singlet-A      6.1617 eV  201.22 nm  f=0.0045  <S**2>=0.000
      30 -> 33         0.60740
      30 -> 34        -0.11494
      30 -> 40         0.12311
      31 -> 34         0.24629
 
 Excited State   5:      Singlet-A      6.3226 eV  196.10 nm  f=0.0004  <S**2>=0.000
      30 -> 33        -0.24585
      31 -> 34         0.53718
      31 -> 35        -0.30405
 
 Excited State   6:      Singlet-A      6.3456 eV  195.39 nm  f=0.6303  <S**2>=0.000
      30 -> 32         0.34506
      31 -> 36         0.57707
      31 -> 39         0.11352
 SavETr:  write IOETrn=   770 NScale= 10 NData=  16 NLR=1 NState=    6 LETran=     118.
          IDoAtm=1111111111111111
          Differentiating once with respect to electric field.
                with respect to dipole field.
          Differentiating once with respect to nuclear coordinates.
 Keep R1 ints in memory in canonical form, NReq=303315801.
          There are     1 degrees of freedom in the 1st order CPHF.  IDoFFX=0 NUNeed=     1.
 LinEq1:  Iter=  0 NonCon=     1 RMS=4.38D-03 Max=1.03D-01 NDo=     1
 AX will form     1 AO Fock derivatives at one time.
 LinEq1:  Iter=  1 NonCon=     1 RMS=1.64D-03 Max=3.95D-02 NDo=     1
 LinEq1:  Iter=  2 NonCon=     1 RMS=8.33D-04 Max=1.67D-02 NDo=     1
 LinEq1:  Iter=  3 NonCon=     1 RMS=3.95D-04 Max=1.34D-02 NDo=     1
 LinEq1:  Iter=  4 NonCon=     1 RMS=1.74D-04 Max=5.05D-03 NDo=     1
 LinEq1:  Iter=  5 NonCon=     1 RMS=9.83D-05 Max=3.67D-03 NDo=     1
 LinEq1:  Iter=  6 NonCon=     1 RMS=3.58D-05 Max=8.30D-04 NDo=     1
 LinEq1:  Iter=  7 NonCon=     1 RMS=1.57D-05 Max=3.17D-04 NDo=     1
 LinEq1:  Iter=  8 NonCon=     1 RMS=7.22D-06 Max=1.57D-04 NDo=     1
 LinEq1:  Iter=  9 NonCon=     1 RMS=3.18D-06 Max=5.53D-05 NDo=     1
 LinEq1:  Iter= 10 NonCon=     1 RMS=1.11D-06 Max=1.81D-05 NDo=     1
 LinEq1:  Iter= 11 NonCon=     1 RMS=5.64D-07 Max=1.93D-05 NDo=     1
 LinEq1:  Iter= 12 NonCon=     1 RMS=2.30D-07 Max=3.83D-06 NDo=     1
 LinEq1:  Iter= 13 NonCon=     1 RMS=7.01D-08 Max=1.50D-06 NDo=     1
 LinEq1:  Iter= 14 NonCon=     1 RMS=3.34D-08 Max=7.01D-07 NDo=     1
 LinEq1:  Iter= 15 NonCon=     1 RMS=1.18D-08 Max=1.75D-07 NDo=     1
 LinEq1:  Iter= 16 NonCon=     1 RMS=3.39D-09 Max=7.24D-08 NDo=     1
 LinEq1:  Iter= 17 NonCon=     1 RMS=1.51D-09 Max=1.82D-08 NDo=     1
 LinEq1:  Iter= 18 NonCon=     1 RMS=3.53D-10 Max=4.82D-09 NDo=     1
 LinEq1:  Iter= 19 NonCon=     1 RMS=9.16D-11 Max=1.16D-09 NDo=     1
 LinEq1:  Iter= 20 NonCon=     0 RMS=4.48D-11 Max=8.52D-10 NDo=     1
 Linear equations converged to 1.000D-10 1.000D-09 after    20 iterations.
 End of Minotr F.D. properties file   721 does not exist.
 End of Minotr F.D. properties file   722 does not exist.
 End of Minotr F.D. properties file   788 does not exist.

 **********************************************************************

            Population analysis using the CI Density.

 **********************************************************************

 Orbital symmetries:
       Occupied  (A) (A) (A) (A) (A) (A) (A) (A) (A) (A) (A) (A)
                 (A) (A) (A) (A) (A) (A) (A) (A) (A) (A) (A) (A)
                 (A) (A) (A) (A) (A) (A) (A)
       Virtual   (A) (A) (A) (A) (A) (A) (A) (A) (A) (A) (A) (A)
                 (A) (A) (A) (A) (A) (A) (A) (A) (A) (A) (A) (A)
                 (A) (A) (A) (A) (A) (A) (A) (A) (A) (A) (A) (A)
                 (A) (A) (A) (A) (A) (A) (A) (A) (A) (A) (A) (A)
                 (A) (A) (A) (A) (A) (A) (A) (A) (A) (A) (A) (A)
                 (A) (A) (A) (A) (A) (A) (A) (A) (A) (A) (A) (A)
                 (A) (A) (A) (A) (A) (A) (A) (A) (A) (A) (A) (A)
                 (A) (A) (A) (A) (A) (A) (A) (A) (A) (A) (A) (A)
                 (A) (A) (A) (A) (A) (A) (A) (A) (A) (A) (A) (A)
                 (A) (A) (A) (A) (A) (A) (A) (A) (A) (A) (A) (A)
                 (A) (A) (A) (A) (A) (A) (A) (A) (A) (A) (A) (A)
                 (A) (A) (A) (A) (A) (A) (A) (A) (A) (A) (A) (A)
                 (A) (A) (A) (A) (A) (A) (A) (A) (A) (A)
 The electronic state is 1-A.
 Alpha  occ. eigenvalues --  -14.50216 -10.33554 -10.33314 -10.30296 -10.29832
 Alpha  occ. eigenvalues --  -10.29776 -10.29772 -10.29227 -10.28912  -1.08716
 Alpha  occ. eigenvalues --   -0.94360  -0.88517  -0.83680  -0.81815  -0.72127
 Alpha  occ. eigenvalues --   -0.69061  -0.67706  -0.63364  -0.57351  -0.56185
 Alpha  occ. eigenvalues --   -0.52510  -0.51751  -0.51461  -0.49803  -0.47736
 Alpha  occ. eigenvalues --   -0.43909  -0.42344  -0.41757  -0.36207  -0.29768
 Alpha  occ. eigenvalues --   -0.28000
 Alpha virt. eigenvalues --    0.04897   0.05772   0.07557   0.08012   0.08771
 Alpha virt. eigenvalues --    0.09303   0.09651   0.11127   0.11769   0.12158
 Alpha virt. eigenvalues --    0.12165   0.12680   0.14584   0.15136   0.16046
 Alpha virt. eigenvalues --    0.16243   0.17316   0.18646   0.19791   0.20144
 Alpha virt. eigenvalues --    0.21404   0.21610   0.22661   0.22874   0.23286
 Alpha virt. eigenvalues --    0.24436   0.24920   0.25095   0.25759   0.26320
 Alpha virt. eigenvalues --    0.26749   0.27722   0.28125   0.28944   0.29448
 Alpha virt. eigenvalues --    0.30045   0.30121   0.30752   0.32049   0.32447
 Alpha virt. eigenvalues --    0.33439   0.33619   0.34909   0.36507   0.37551
 Alpha virt. eigenvalues --    0.38574   0.38745   0.40337   0.42262   0.44387
 Alpha virt. eigenvalues --    0.45382   0.47720   0.52092   0.52976   0.59809
 Alpha virt. eigenvalues --    0.66716   0.71344   0.75682   0.75783   0.78331
 Alpha virt. eigenvalues --    0.80042   0.80430   0.81843   0.82032   0.82823
 Alpha virt. eigenvalues --    0.83719   0.84349   0.86261   0.87719   0.88658
 Alpha virt. eigenvalues --    0.90205   0.93939   0.98081   0.99068   1.00262
 Alpha virt. eigenvalues --    1.02576   1.03297   1.04173   1.04732   1.07299
 Alpha virt. eigenvalues --    1.09131   1.11871   1.13554   1.15657   1.18066
 Alpha virt. eigenvalues --    1.20055   1.20514   1.25749   1.26672   1.29242
 Alpha virt. eigenvalues --    1.31124   1.32273   1.34053   1.40589   1.40894
 Alpha virt. eigenvalues --    1.42889   1.45549   1.50335   1.50513   1.53940
 Alpha virt. eigenvalues --    1.54986   1.55449   1.58652   1.59280   1.62741
 Alpha virt. eigenvalues --    1.67782   1.73978   1.87670   1.93671   1.97703
 Alpha virt. eigenvalues --    1.98206   2.01496   2.03439   2.08735   2.09121
 Alpha virt. eigenvalues --    2.09608   2.15649   2.19266   2.23360   2.26490
 Alpha virt. eigenvalues --    2.26500   2.29017   2.34137   2.35240   2.35769
 Alpha virt. eigenvalues --    2.37528   2.40544   2.47411   2.50207   2.53754
 Alpha virt. eigenvalues --    2.64096   2.65293   2.72754   2.74928   2.76413
 Alpha virt. eigenvalues --    2.79404   2.83030   2.90367   2.93975   2.95322
 Alpha virt. eigenvalues --    3.04945   3.07181   3.21169   3.33949   3.54599
 Alpha virt. eigenvalues --    4.24874   4.35963   4.38864   4.42374   4.46010
 Alpha virt. eigenvalues --    4.49575   4.57908   4.61878   4.88824
          Condensed to atoms (all electrons):
               1          2          3          4          5          6
     1  C    5.736341   0.306755   0.263439  -0.558595   0.046108  -0.158272
     2  C    0.306755   6.141638  -0.164919   0.220398  -0.704660   0.623749
     3  C    0.263439  -0.164919  12.788662  -1.885531  -3.409495  -2.860310
     4  C   -0.558595   0.220398  -1.885531  12.361930  -3.143672  -0.681071
     5  C    0.046108  -0.704660  -3.409495  -3.143672  13.948633  -0.381543
     6  C   -0.158272   0.623749  -2.860310  -0.681071  -0.381543  12.328672
     7  N   -0.035681   0.018871  -0.573222  -0.318586   0.917737   0.174748
     8  C    0.095478  -0.258651   3.001195   1.397932  -4.367172  -3.437005
     9  C   -0.065549   0.028008  -1.154764  -0.534470   1.632436   0.967579
    10  H   -0.002082  -0.009563  -0.130138  -0.059994   0.159504   0.024061
    11  H    0.003202   0.001239   0.000031   0.011829   0.025858   0.012576
    12  H    0.001253   0.000176   0.035291   0.098745  -0.103915  -0.023728
    13  H    0.012073   0.277296   0.000205   0.015288   0.010343  -0.002349
    14  H    0.006262   0.053663   0.159450   0.091716   0.003343  -0.011010
    15  H    0.265423   0.023490   0.019247  -0.021540   0.023855  -0.008788
    16  H    0.030239   0.001944  -0.022673   0.019781   0.101158   0.192598
               7          8          9         10         11         12
     1  C   -0.035681   0.095478  -0.065549  -0.002082   0.003202   0.001253
     2  C    0.018871  -0.258651   0.028008  -0.009563   0.001239   0.000176
     3  C   -0.573222   3.001195  -1.154764  -0.130138   0.000031   0.035291
     4  C   -0.318586   1.397932  -0.534470  -0.059994   0.011829   0.098745
     5  C    0.917737  -4.367172   1.632436   0.159504   0.025858  -0.103915
     6  C    0.174748  -3.437005   0.967579   0.024061   0.012576  -0.023728
     7  N    7.263002  -0.750046   0.527570   0.274343   0.005110  -0.058045
     8  C   -0.750046  11.667293  -1.793895  -0.000502   0.248264   0.056168
     9  C    0.527570  -1.793895   6.442390  -0.017938  -0.002884   0.311982
    10  H    0.274343  -0.000502  -0.017938   0.316904  -0.000078  -0.002003
    11  H    0.005110   0.248264  -0.002884  -0.000078   0.464989  -0.000529
    12  H   -0.058045   0.056168   0.311982  -0.002003  -0.000529   0.460125
    13  H   -0.000345  -0.000641   0.001328  -0.000002   0.000000  -0.000000
    14  H   -0.007906  -0.007937   0.009190   0.001760   0.000002   0.000002
    15  H    0.000262   0.007965  -0.000286  -0.000000  -0.000001  -0.000000
    16  H   -0.000693  -0.028636   0.004426   0.000004   0.001204  -0.000001
              13         14         15         16
     1  C    0.012073   0.006262   0.265423   0.030239
     2  C    0.277296   0.053663   0.023490   0.001944
     3  C    0.000205   0.159450   0.019247  -0.022673
     4  C    0.015288   0.091716  -0.021540   0.019781
     5  C    0.010343   0.003343   0.023855   0.101158
     6  C   -0.002349  -0.011010  -0.008788   0.192598
     7  N   -0.000345  -0.007906   0.000262  -0.000693
     8  C   -0.000641  -0.007937   0.007965  -0.028636
     9  C    0.001328   0.009190  -0.000286   0.004426
    10  H   -0.000002   0.001760  -0.000000   0.000004
    11  H    0.000000   0.000002  -0.000001   0.001204
    12  H   -0.000000   0.000002  -0.000000  -0.000001
    13  H    0.493278  -0.003546  -0.003508  -0.000130
    14  H   -0.003546   0.501183  -0.000133   0.000015
    15  H   -0.003508  -0.000133   0.486782  -0.003284
    16  H   -0.000130   0.000015  -0.003284   0.491694
 Mulliken charges:
               1
     1  C    0.053607
     2  C   -0.559433
     3  C   -0.066465
     4  C   -1.014160
     5  C    1.241483
     6  C   -0.759906
     7  N   -0.437119
     8  C    0.170191
     9  C   -0.355122
    10  H    0.445725
    11  H    0.229191
    12  H    0.224479
    13  H    0.200710
    14  H    0.203946
    15  H    0.210517
    16  H    0.212356
 Sum of Mulliken charges =  -0.00000
 Mulliken charges with hydrogens summed into heavy atoms:
               1
     1  C    0.264124
     2  C   -0.358723
     3  C    0.137481
     4  C   -1.014160
     5  C    1.241483
     6  C   -0.547550
     7  N    0.008606
     8  C    0.399382
     9  C   -0.130643
 Electronic spatial extent (au):  <R**2>=           1006.7119
 Charge=             -0.0000 electrons
 Dipole moment (field-independent basis, Debye):
    X=              2.3161    Y=             -1.0647    Z=              0.0001  Tot=              2.5491
 Quadrupole moment (field-independent basis, Debye-Ang):
   XX=            -46.3259   YY=            -44.7080   ZZ=            -59.6405
   XY=             -4.2269   XZ=              0.0012   YZ=             -0.0020
 Traceless Quadrupole moment (field-independent basis, Debye-Ang):
   XX=              3.8989   YY=              5.5168   ZZ=             -9.4157
   XY=             -4.2269   XZ=              0.0012   YZ=             -0.0020
 Octapole moment (field-independent basis, Debye-Ang**2):
  XXX=             16.1242  YYY=             -8.8700  ZZZ=             -0.0070  XYY=             12.1858
  XXY=             -5.4023  XXZ=              0.0027  XZZ=              3.0256  YZZ=             -0.8293
  YYZ=             -0.0018  XYZ=             -0.0049
 Hexadecapole moment (field-independent basis, Debye-Ang**3):
 XXXX=           -837.4490 YYYY=           -374.2274 ZZZZ=            -80.5342 XXXY=            -29.8233
 XXXZ=              0.0092 YYYX=            -19.7804 YYYZ=             -0.0067 ZZZX=             -0.0024
 ZZZY=              0.0038 XXYY=           -192.4044 XXZZ=           -196.4454 YYZZ=            -98.1097
 XXYZ=             -0.0095 YYXZ=              0.0066 ZZXY=             -4.5088
 N-N= 4.013294111108D+02 E-N=-1.645124084755D+03  KE= 3.605487608718D+02
 Calling FoFJK, ICntrl=  10005127 FMM=F ISym2X=0 I1Cent= 0 IOpClX= 0 NMat=1 NMatS=1 NMatT=0.
 ***** Axes restored to original set *****
 -------------------------------------------------------------------
 Center     Atomic                   Forces (Hartrees/Bohr)
 Number     Number              X              Y              Z
 -------------------------------------------------------------------
      1        6          -0.024049931   -0.021861239   -0.000000902
      2        6          -0.036131698    0.011617260    0.000000939
      3        6           0.021904597   -0.025943298    0.000003554
      4        6           0.009586260   -0.015155535   -0.000013665
      5        6           0.006641978    0.010712647   -0.000038684
      6        6           0.024907985    0.028304614    0.000000603
      7        7          -0.026937703    0.007023141    0.000048630
      8        6          -0.007468105    0.003766980    0.000035175
      9        6           0.030904698    0.002943460   -0.000034964
     10        1           0.001109633   -0.005205472   -0.000002415
     11        1           0.001212712    0.003235506    0.000007930
     12        1           0.002481003   -0.000448462   -0.000007853
     13        1          -0.002355913   -0.000572450    0.000000846
     14        1           0.000442480   -0.002711611   -0.000002066
     15        1          -0.002554310    0.001621563    0.000000410
     16        1           0.000306315    0.002672895    0.000002463
 -------------------------------------------------------------------
 Cartesian Forces:  Max     0.036131698 RMS     0.012447224

 GradGradGradGradGradGradGradGradGradGradGradGradGradGradGradGradGradGrad
 Berny optimization.
 FormGI is forming the generalized inverse of G from B-inverse, IUseBI=4.
 Internal  Forces:  Max     0.041046099 RMS     0.007628002
 Search for a local minimum.
 Step number   1 out of a maximum of   94
 All quantities printed in internal units (Hartrees-Bohrs-Radians)
 Mixed Optimization -- RFO/linear search
 Second derivative matrix not updated -- first step.
 ITU=  0
     Eigenvalues ---    0.01853   0.01931   0.01986   0.02012   0.02070
     Eigenvalues ---    0.02113   0.02148   0.02153   0.02172   0.02209
     Eigenvalues ---    0.02233   0.02248   0.02338   0.16000   0.16000
     Eigenvalues ---    0.16000   0.16000   0.16000   0.16000   0.16000
     Eigenvalues ---    0.22000   0.22188   0.22662   0.24011   0.24651
     Eigenvalues ---    0.35712   0.35717   0.35783   0.35790   0.36420
     Eigenvalues ---    0.36427   0.37009   0.38432   0.42633   0.43465
     Eigenvalues ---    0.45769   0.46692   0.47162   0.47468   0.47567
     Eigenvalues ---    0.48125   0.50955
 RFO step:  Lambda=-1.11548611D-02 EMin= 1.85287394D-02
 Linear search not attempted -- first point.
 Iteration  1 RMS(Cart)=  0.02623441 RMS(Int)=  0.00020745
 Iteration  2 RMS(Cart)=  0.00027025 RMS(Int)=  0.00006705
 Iteration  3 RMS(Cart)=  0.00000006 RMS(Int)=  0.00006705
 Variable       Old X    -DE/DX   Delta X   Delta X   Delta X     New X
                                 (Linear)    (Quad)   (Total)
    R1        2.65547   0.00539   0.00000   0.01336   0.01339   2.66887
    R2        2.61291   0.04105   0.00000   0.08312   0.08316   2.69607
    R3        2.04421   0.00302   0.00000   0.00818   0.00818   2.05239
    R4        2.61557   0.03664   0.00000   0.07501   0.07501   2.69058
    R5        2.04411   0.00232   0.00000   0.00629   0.00629   2.05041
    R6        2.63373   0.01528   0.00000   0.03137   0.03133   2.66507
    R7        2.04534   0.00272   0.00000   0.00738   0.00738   2.05272
    R8        2.68058   0.01753   0.00000   0.03632   0.03611   2.71669
    R9        2.60126  -0.00767   0.00000  -0.01666  -0.01665   2.58461
   R10        2.64771   0.00875   0.00000   0.01782   0.01783   2.66553
   R11        2.70839   0.00650   0.00000   0.01627   0.01617   2.72456
   R12        2.04526   0.00266   0.00000   0.00723   0.00723   2.05250
   R13        2.60573   0.01876   0.00000   0.03796   0.03814   2.64386
   R14        1.89542   0.00529   0.00000   0.01096   0.01096   1.90638
   R15        2.57870   0.01153   0.00000   0.02367   0.02379   2.60248
   R16        2.03419   0.00345   0.00000   0.00920   0.00920   2.04339
   R17        2.03430   0.00251   0.00000   0.00670   0.00670   2.04100
    A1        2.11420   0.00494   0.00000   0.02510   0.02513   2.13933
    A2        2.07986  -0.00224   0.00000  -0.01123  -0.01124   2.06862
    A3        2.08912  -0.00270   0.00000  -0.01387  -0.01389   2.07524
    A4        2.11523  -0.00596   0.00000  -0.02124  -0.02125   2.09398
    A5        2.08365   0.00227   0.00000   0.00646   0.00647   2.09012
    A6        2.08430   0.00369   0.00000   0.01478   0.01478   2.09909
    A7        2.05144  -0.00227   0.00000  -0.00963  -0.00971   2.04173
    A8        2.11267   0.00155   0.00000   0.00723   0.00727   2.11993
    A9        2.11908   0.00072   0.00000   0.00240   0.00244   2.12152
   A10        2.13389   0.00728   0.00000   0.02720   0.02718   2.16107
   A11        2.27895  -0.00209   0.00000  -0.00206  -0.00192   2.27703
   A12        1.87035  -0.00519   0.00000  -0.02514  -0.02526   1.84508
   A13        2.07274  -0.00126   0.00000  -0.00821  -0.00814   2.06460
   A14        1.86517   0.00193   0.00000   0.00638   0.00613   1.87130
   A15        2.34527  -0.00067   0.00000   0.00183   0.00201   2.34728
   A16        2.07887  -0.00273   0.00000  -0.01321  -0.01321   2.06566
   A17        2.10306   0.00175   0.00000   0.00888   0.00888   2.11194
   A18        2.10125   0.00097   0.00000   0.00433   0.00433   2.10558
   A19        1.90743   0.01114   0.00000   0.04490   0.04504   1.95247
   A20        2.19023  -0.00612   0.00000  -0.02566  -0.02573   2.16450
   A21        2.18553  -0.00502   0.00000  -0.01924  -0.01931   2.16622
   A22        1.86968   0.00234   0.00000   0.01400   0.01399   1.88367
   A23        2.21717  -0.00115   0.00000  -0.00688  -0.00687   2.21030
   A24        2.19633  -0.00119   0.00000  -0.00712  -0.00711   2.18922
   A25        1.91215  -0.01023   0.00000  -0.04014  -0.03989   1.87225
   A26        2.10250   0.00492   0.00000   0.01897   0.01884   2.12134
   A27        2.26854   0.00530   0.00000   0.02118   0.02105   2.28959
    D1       -0.00001   0.00000   0.00000   0.00001   0.00001  -0.00000
    D2       -3.14156  -0.00000   0.00000  -0.00003  -0.00003   3.14159
    D3        3.14152   0.00000   0.00000   0.00006   0.00006   3.14159
    D4       -0.00002   0.00000   0.00000   0.00002   0.00002  -0.00000
    D5       -0.00003   0.00000   0.00000   0.00007   0.00007   0.00004
    D6        3.14153   0.00000   0.00000   0.00009   0.00009  -3.14156
    D7       -3.14157   0.00000   0.00000   0.00001   0.00002  -3.14155
    D8       -0.00001   0.00000   0.00000   0.00004   0.00004   0.00003
    D9        0.00003  -0.00000   0.00000  -0.00005  -0.00005  -0.00002
   D10       -3.14154  -0.00000   0.00000  -0.00001  -0.00001  -3.14155
   D11        3.14158  -0.00000   0.00000  -0.00001  -0.00001   3.14157
   D12        0.00001   0.00000   0.00000   0.00003   0.00003   0.00004
   D13       -0.00001   0.00000   0.00000   0.00002   0.00002   0.00001
   D14       -3.14144  -0.00000   0.00000  -0.00001  -0.00001  -3.14145
   D15        3.14156  -0.00000   0.00000  -0.00002  -0.00002   3.14154
   D16        0.00013  -0.00000   0.00000  -0.00005  -0.00005   0.00008
   D17       -0.00004   0.00000   0.00000   0.00006   0.00006   0.00002
   D18       -3.14151  -0.00000   0.00000  -0.00012  -0.00012   3.14155
   D19        3.14143   0.00000   0.00000   0.00008   0.00008   3.14151
   D20       -0.00005  -0.00000   0.00000  -0.00010  -0.00010  -0.00015
   D21       -3.14124  -0.00001   0.00000  -0.00033  -0.00033  -3.14157
   D22       -0.00113   0.00001   0.00000   0.00023   0.00023  -0.00091
   D23        0.00049  -0.00001   0.00000  -0.00035  -0.00036   0.00013
   D24        3.14060   0.00001   0.00000   0.00020   0.00020   3.14080
   D25        0.00005  -0.00000   0.00000  -0.00010  -0.00010  -0.00005
   D26       -3.14151  -0.00000   0.00000  -0.00012  -0.00012   3.14155
   D27        3.14150   0.00000   0.00000   0.00014   0.00014  -3.14155
   D28       -0.00007   0.00000   0.00000   0.00012   0.00012   0.00005
   D29       -0.00041   0.00001   0.00000   0.00052   0.00053   0.00012
   D30        3.14139   0.00000   0.00000   0.00013   0.00014   3.14153
   D31        3.14132   0.00001   0.00000   0.00030   0.00030  -3.14156
   D32       -0.00006  -0.00000   0.00000  -0.00009  -0.00009  -0.00015
   D33       -0.00077   0.00002   0.00000   0.00071   0.00071  -0.00006
   D34        3.14133   0.00001   0.00000   0.00033   0.00034  -3.14152
   D35       -3.14089   0.00001   0.00000   0.00017   0.00016  -3.14073
   D36        0.00121  -0.00001   0.00000  -0.00022  -0.00021   0.00100
   D37        0.00072  -0.00003   0.00000  -0.00077  -0.00076  -0.00004
   D38       -3.14144  -0.00001   0.00000  -0.00035  -0.00034   3.14140
   D39       -3.14107  -0.00002   0.00000  -0.00039  -0.00038  -3.14145
   D40       -0.00005  -0.00000   0.00000   0.00004   0.00004  -0.00001
         Item               Value     Threshold  Converged?
 Maximum Force            0.041046     0.000450     NO 
 RMS     Force            0.007628     0.000300     NO 
 Maximum Displacement     0.097146     0.001800     NO 
 RMS     Displacement     0.026196     0.001200     NO 
 Predicted change in Energy=-5.730365D-03
 GradGradGradGradGradGradGradGradGradGradGradGradGradGradGradGradGradGrad

                          Input orientation:                          
 ---------------------------------------------------------------------
 Center     Atomic      Atomic             Coordinates (Angstroms)
 Number     Number       Type             X           Y           Z
 ---------------------------------------------------------------------
      1          6           0       -2.172994    0.678326   -0.000013
      2          6           0       -2.171572   -0.733976    0.000017
      3          6           0       -0.937519   -1.444117    0.000061
      4          6           0        0.243922   -0.673974    0.000048
      5          6           0        0.262014    0.763521    0.000004
      6          6           0       -0.971501    1.447669    0.000003
      7          7           0        1.555744   -1.060975   -0.000070
      8          6           0        1.644438    1.172924    0.000066
      9          6           0        2.422951    0.036911   -0.000012
     10          1           0        1.860445   -2.022673    0.000588
     11          1           0        2.016825    2.188095   -0.000002
     12          1           0        3.495493   -0.090238   -0.000155
     13          1           0       -3.113001   -1.273418    0.000004
     14          1           0       -0.908234   -2.529973    0.000042
     15          1           0       -3.127772    1.195981   -0.000052
     16          1           0       -1.002338    2.533365    0.000007
 ---------------------------------------------------------------------
                    Distance matrix (angstroms):
                    1          2          3          4          5
     1  C    0.000000
     2  C    1.412303   0.000000
     3  C    2.455843   1.423794   0.000000
     4  C    2.769512   2.416239   1.410292   0.000000
     5  C    2.436498   2.857418   2.512478   1.437608   0.000000
     6  C    1.426700   2.489928   2.891985   2.445122   1.410539
     7  N    4.114445   3.741633   2.522530   1.367716   2.236632
     8  C    3.849340   4.265935   3.676331   2.317861   1.441772
     9  C    4.640488   4.658746   3.672356   2.292057   2.279827
    10  H    4.854279   4.232954   2.857154   2.105264   3.212142
    11  H    4.453537   5.106973   4.681999   3.366693   2.260260
    12  H    5.720353   5.703510   4.635147   3.303553   3.344292
    13  H    2.166314   1.085028   2.182170   3.410025   3.942061
    14  H    3.448594   2.195821   1.086251   2.184536   3.495223
    15  H    1.086079   2.153846   3.430354   3.855523   3.417261
    16  H    2.193538   3.470249   3.978010   3.440957   2.175071
                    6          7          8          9         10
     6  C    0.000000
     7  N    3.560936   0.000000
     8  C    2.630328   2.235659   0.000000
     9  C    3.675942   1.399071   1.377174   0.000000
    10  H    4.479196   1.008814   3.202890   2.135017   0.000000
    11  H    3.078689   3.281624   1.081316   2.189186   4.213671
    12  H    4.724320   2.169091   2.240978   1.080053   2.531341
    13  H    3.462706   4.673577   5.349563   5.688913   5.029568
    14  H    3.978145   2.868648   4.497509   4.205435   2.814771
    15  H    2.170910   5.198959   4.772266   5.670448   5.936501
    16  H    1.086134   4.411696   2.975941   4.238501   5.380800
                   11         12         13         14         15
    11  H    0.000000
    12  H    2.716112   0.000000
    13  H    6.188472   6.713577   0.000000
    14  H    5.551229   5.034394   2.537702   0.000000
    15  H    5.239387   6.747000   2.469443   4.336945   0.000000
    16  H    3.038841   5.207089   4.352757   5.064213   2.511189
                   16
    16  H    0.000000
 Stoichiometry    C8H7N
 Framework group  C1[X(C8H7N)]
 Deg. of freedom    42
 Full point group                 C1      NOp   1
 Largest Abelian subgroup         C1      NOp   1
 Largest concise Abelian subgroup C1      NOp   1
                         Standard orientation:                         
 ---------------------------------------------------------------------
 Center     Atomic      Atomic             Coordinates (Angstroms)
 Number     Number       Type             X           Y           Z
 ---------------------------------------------------------------------
      1          6           0       -2.163105    0.709820   -0.000029
      2          6           0       -2.182805   -0.702345    0.000001
      3          6           0       -0.959510   -1.430863    0.000045
      4          6           0        0.233316   -0.678475    0.000032
      5          6           0        0.272905    0.758588   -0.000012
      6          6           0       -0.950241    1.461108   -0.000013
      7          7           0        1.539204   -1.085052   -0.000086
      8          6           0        1.661297    1.147271    0.000051
      9          6           0        2.422733   -0.000259   -0.000028
     10          1           0        1.829488   -2.051200    0.000572
     11          1           0        2.048825    2.156759   -0.000018
     12          1           0        3.493254   -0.143434   -0.000171
     13          1           0       -3.132197   -1.227646   -0.000012
     14          1           0       -0.946469   -2.517035    0.000027
     15          1           0       -3.110035    1.241697   -0.000068
     16          1           0       -0.964836    2.547144   -0.000008
 ---------------------------------------------------------------------
 Rotational constants (GHZ):           3.8342008           1.6051036           1.1314479
 Standard basis: 6-31+G(d) (6D, 7F)
 There are   185 symmetry adapted cartesian basis functions of A   symmetry.
 There are   185 symmetry adapted basis functions of A   symmetry.
   185 basis functions,   316 primitive gaussians,   185 cartesian basis functions
    31 alpha electrons       31 beta electrons
       nuclear repulsion energy       397.1272930171 Hartrees.
 NAtoms=   16 NActive=   16 NUniq=   16 SFac= 1.00D+00 NAtFMM=   60 NAOKFM=F Big=F
 Integral buffers will be    131072 words long.
 Raffenetti 1 integral format.
 Two-electron integral symmetry is turned on.
 Nuclear repulsion after empirical dispersion term =      397.1198939819 Hartrees.
 One-electron integrals computed using PRISM.
 NBasis=   185 RedAO= T EigKep=  1.42D-06  NBF=   185
 NBsUse=   185 1.00D-06 EigRej= -1.00D+00 NBFU=   185
 Initial guess from the checkpoint file:  "FuncsWB97XD-V-1st.chk"
 B after Tr=     0.000000   -0.000000    0.000000
         Rot=    0.999975    0.000008    0.000007    0.007009 Ang=   0.80 deg.
 ExpMin= 4.38D-02 ExpMax= 4.17D+03 ExpMxC= 6.27D+02 IAcc=3 IRadAn=         5 AccDes= 0.00D+00
 Harris functional with IExCor= 4639 and IRadAn=       5 diagonalized for initial guess.
 HarFok:  IExCor= 4639 AccDes= 0.00D+00 IRadAn=         5 IDoV= 1 UseB2=F ITyADJ=14
 ICtDFT=  3500011 ScaDFX=  1.000000  1.000000  1.000000  1.000000
 FoFCou: FMM=F IPFlag=           0 FMFlag=      100000 FMFlg1=           0
         NFxFlg=           0 DoJE=T BraDBF=F KetDBF=T FulRan=T
         wScrn=  0.000000 ICntrl=       500 IOpCl=  0 I1Cent=   200000004 NGrid=           0
         NMat0=    1 NMatS0=      1 NMatT0=    0 NMatD0=    1 NMtDS0=    0 NMtDT0=    0
 Petite list used in FoFCou.
 Keep R1 ints in memory in canonical form, NReq=303303409.
 Requested convergence on RMS density matrix=1.00D-08 within 128 cycles.
 Requested convergence on MAX density matrix=1.00D-06.
 Requested convergence on             energy=1.00D-06.
 No special actions if energy rises.
 SCF Done:  E(RwB97XD) =  -363.698972339     A.U. after   14 cycles
            NFock= 14  Conv=0.50D-08     -V/T= 2.0105
 DoSCS=F DFT=T ScalE2(SS,OS)=  1.000000  1.000000
 ExpMin= 4.38D-02 ExpMax= 4.17D+03 ExpMxC= 6.27D+02 IAcc=3 IRadAn=         5 AccDes= 0.00D+00
 HarFok:  IExCor=  205 AccDes= 0.00D+00 IRadAn=         5 IDoV=-2 UseB2=F ITyADJ=14
 ICtDFT= 12500011 ScaDFX=  1.000000  1.000000  1.000000  1.000000
 Range of M.O.s used for correlation:    10   185
 NBasis=   185 NAE=    31 NBE=    31 NFC=     9 NFV=     0
 NROrb=    176 NOA=    22 NOB=    22 NVA=   154 NVB=   154

 **** Warning!!: The largest alpha MO coefficient is  0.18057001D+03

 Orbital symmetries:
       Occupied  (A) (A) (A) (A) (A) (A) (A) (A) (A) (A) (A) (A)
                 (A) (A) (A) (A) (A) (A) (A) (A) (A) (A) (A) (A)
                 (A) (A) (A) (A) (A) (A) (A)
       Virtual   (A) (A) (A) (A) (A) (A) (A) (A) (A) (A) (A) (A)
                 (A) (A) (A) (A) (A) (A) (A) (A) (A) (A) (A) (A)
                 (A) (A) (A) (A) (A) (A) (A) (A) (A) (A) (A) (A)
                 (A) (A) (A) (A) (A) (A) (A) (A) (A) (A) (A) (A)
                 (A) (A) (A) (A) (A) (A) (A) (A) (A) (A) (A) (A)
                 (A) (A) (A) (A) (A) (A) (A) (A) (A) (A) (A) (A)
                 (A) (A) (A) (A) (A) (A) (A) (A) (A) (A) (A) (A)
                 (A) (A) (A) (A) (A) (A) (A) (A) (A) (A) (A) (A)
                 (A) (A) (A) (A) (A) (A) (A) (A) (A) (A) (A) (A)
                 (A) (A) (A) (A) (A) (A) (A) (A) (A) (A) (A) (A)
                 (A) (A) (A) (A) (A) (A) (A) (A) (A) (A) (A) (A)
                 (A) (A) (A) (A) (A) (A) (A) (A) (A) (A) (A) (A)
                 (A) (A) (A) (A) (A) (A) (A) (A) (A) (A)
 Generating guess from densities on rwf.
 Convergence on wavefunction:    0.000001000000000
 Iteration     1 Dimension    12 NMult     0 NNew     12
 CISAX will form    12 AO SS matrices at one time.
 New state      5 was old state      6
 New state      6 was old state      5
 Iteration     2 Dimension    24 NMult    12 NNew     12
 Iteration     3 Dimension    36 NMult    24 NNew     12
 Iteration     4 Dimension    48 NMult    36 NNew     12
 Iteration     5 Dimension    60 NMult    48 NNew     12
 Iteration     6 Dimension    72 NMult    60 NNew     12
 Iteration     7 Dimension    84 NMult    72 NNew     12
 Iteration     8 Dimension    96 NMult    84 NNew     12
 Iteration     9 Dimension   108 NMult    96 NNew     12
 Iteration    10 Dimension   118 NMult   108 NNew     10
 Iteration    11 Dimension   126 NMult   118 NNew      8
 Iteration    12 Dimension   134 NMult   126 NNew      8
 Iteration    13 Dimension   140 NMult   134 NNew      6
 Iteration    14 Dimension   146 NMult   140 NNew      6
 Iteration    15 Dimension   148 NMult   146 NNew      2
 Iteration    16 Dimension   150 NMult   148 NNew      2
 Iteration    17 Dimension   152 NMult   150 NNew      2
 ***********************************************************************
 Excited states from <AA,BB:AA,BB> singles matrix:
 ***********************************************************************
 
 Ground to excited state transition densities written to RWF  633
 Ground to excited state transition electric dipole moments (Au):
       state          X           Y           Z        Dip. S.      Osc.
         1        -0.0834     -0.6932      0.0000      0.4875      0.0573
         2        -0.8201      0.4054     -0.0000      0.8368      0.1019
         3        -0.0000     -0.0000     -0.1592      0.0253      0.0035
         4        -0.0006     -0.0002     -0.1917      0.0367      0.0055
         5        -2.1982     -0.5028     -0.0000      5.0847      0.7780
         6         0.0016      0.0003     -0.0750      0.0056      0.0009
 Ground to excited state transition velocity dipole moments (Au):
       state          X           Y           Z        Dip. S.      Osc.
         1         0.0173      0.1305     -0.0000      0.0173      0.0655
         2         0.1394     -0.0786      0.0000      0.0256      0.0935
         3         0.0000      0.0000      0.0240      0.0006      0.0018
         4         0.0001      0.0000      0.0425      0.0018      0.0054
         5         0.4921      0.1138      0.0000      0.2551      0.7410
         6        -0.0004     -0.0001      0.0191      0.0004      0.0011
 Ground to excited state transition magnetic dipole moments (Au):
       state          X           Y           Z
         1        -0.0001     -0.0001     -0.1751
         2        -0.0000      0.0000     -0.0358
         3         0.1039     -0.0835      0.0001
         4         0.1730     -0.3587     -0.0002
         5        -0.0004     -0.0003     -0.6842
         6        -0.2930     -0.4719      0.0004
 Ground to excited state transition velocity quadrupole moments (Au):
       state          XX          YY          ZZ          XY          XZ          YZ
         1        -0.0970      0.0039      0.0088     -0.0510      0.0000      0.0000
         2         0.2183     -0.1829      0.0267     -0.0090      0.0000     -0.0000
         3        -0.0000      0.0001      0.0001      0.0000      0.0897      0.0361
         4         0.0002     -0.0001     -0.0000     -0.0002      0.2735      0.1069
         5        -0.0038     -0.1261     -0.0496     -0.4384      0.0001     -0.0003
         6        -0.0001      0.0001      0.0000      0.0003      0.3853     -0.1619
 <0|del|b> * <b|rxdel|0> + <0|del|b> * <b|delr+rdel|0>
 Rotatory Strengths (R) in cgs (10**-40 erg-esu-cm/Gauss)
       state          XX          YY          ZZ    R(velocity)    E-M Angle
         1        -0.0231     -0.0020     -0.0202     -0.0151       90.00
         2         0.0015     -0.0157     -0.0020     -0.0054       90.00
         3         0.0050      0.0042      0.0010      0.0034       90.00
         4        -0.0708      0.0559      0.0078     -0.0024       90.00
         5        -0.0909     -0.5120     -0.0685     -0.2238       90.04
         6         0.1190      0.2492      0.0808      0.1497       89.21
 1/2[<0|r|b>*<b|rxdel|0> + (<0|rxdel|b>*<b|r|0>)*]
 Rotatory Strengths (R) in cgs (10**-40 erg-esu-cm/Gauss)
       state          XX          YY          ZZ     R(length)
         1        -0.0043     -0.0378      0.0014     -0.0136
         2        -0.0144     -0.0020     -0.0009     -0.0058
         3         0.0020     -0.0009      0.0109      0.0040
         4         0.0739     -0.0517     -0.0279     -0.0019
         5        -0.5671     -0.0917     -0.0215     -0.2267
         6         0.3227      0.1094      0.0212      0.1511
  1/2[<0|del|b>*<b|r|0> + (<0|r|b>*<b|del|0>)*] (Au)
       state          X           Y           Z        Dip. S.   Osc.(frdel)
         1        -0.0014     -0.0905     -0.0000      0.0919      0.0613
         2        -0.1143     -0.0319     -0.0000      0.1462      0.0975
         3        -0.0000     -0.0000     -0.0038      0.0038      0.0025
         4        -0.0000     -0.0000     -0.0082      0.0082      0.0054
         5        -1.0818     -0.0572     -0.0000      1.1390      0.7593
         6        -0.0000     -0.0000     -0.0014      0.0014      0.0010

 Excitation energies and oscillator strengths:
 
 Excited State   1:      Singlet-A      4.7974 eV  258.44 nm  f=0.0573  <S**2>=0.000
      30 -> 32        -0.41718
      30 -> 36         0.13999
      31 -> 32        -0.49593
      31 -> 36        -0.20849
 This state for optimization and/or second-order correction.
 Total Energy, E(TD-HF/TD-DFT) =  -363.522670262    
 Copying the excited state density for this state as the 1-particle RhoCI density.
 
 Excited State   2:      Singlet-A      4.9684 eV  249.54 nm  f=0.1019  <S**2>=0.000
      30 -> 32        -0.42649
      30 -> 36        -0.11378
      31 -> 32         0.45816
      31 -> 36        -0.28713
 
 Excited State   3:      Singlet-A      5.6465 eV  219.58 nm  f=0.0035  <S**2>=0.000
      31 -> 33         0.66846
      31 -> 40         0.11014
 
 Excited State   4:      Singlet-A      6.1057 eV  203.06 nm  f=0.0055  <S**2>=0.000
      30 -> 33        -0.59348
      30 -> 40        -0.11348
      31 -> 34         0.28867
 
 Excited State   5:      Singlet-A      6.2456 eV  198.51 nm  f=0.7780  <S**2>=0.000
      30 -> 32        -0.34214
      31 -> 36         0.58865
 
 Excited State   6:      Singlet-A      6.3085 eV  196.53 nm  f=0.0009  <S**2>=0.000
      30 -> 34        -0.10089
      31 -> 35        -0.64628
      31 -> 43        -0.13256
 SavETr:  write IOETrn=   770 NScale= 10 NData=  16 NLR=1 NState=    6 LETran=     118.
          IDoAtm=1111111111111111
          Differentiating once with respect to electric field.
                with respect to dipole field.
          Differentiating once with respect to nuclear coordinates.
 Keep R1 ints in memory in canonical form, NReq=303315801.
          There are     1 degrees of freedom in the 1st order CPHF.  IDoFFX=0 NUNeed=     1.
 LinEq1:  Iter=  0 NonCon=     1 RMS=4.92D-03 Max=1.22D-01 NDo=     1
 AX will form     1 AO Fock derivatives at one time.
 LinEq1:  Iter=  1 NonCon=     1 RMS=1.86D-03 Max=4.22D-02 NDo=     1
 LinEq1:  Iter=  2 NonCon=     1 RMS=9.64D-04 Max=2.16D-02 NDo=     1
 LinEq1:  Iter=  3 NonCon=     1 RMS=4.30D-04 Max=1.54D-02 NDo=     1
 LinEq1:  Iter=  4 NonCon=     1 RMS=1.88D-04 Max=6.56D-03 NDo=     1
 LinEq1:  Iter=  5 NonCon=     1 RMS=1.07D-04 Max=3.77D-03 NDo=     1
 LinEq1:  Iter=  6 NonCon=     1 RMS=3.89D-05 Max=9.18D-04 NDo=     1
 LinEq1:  Iter=  7 NonCon=     1 RMS=1.78D-05 Max=4.11D-04 NDo=     1
 LinEq1:  Iter=  8 NonCon=     1 RMS=8.50D-06 Max=2.07D-04 NDo=     1
 LinEq1:  Iter=  9 NonCon=     1 RMS=3.44D-06 Max=4.90D-05 NDo=     1
 LinEq1:  Iter= 10 NonCon=     1 RMS=1.27D-06 Max=2.23D-05 NDo=     1
 LinEq1:  Iter= 11 NonCon=     1 RMS=6.19D-07 Max=2.05D-05 NDo=     1
 LinEq1:  Iter= 12 NonCon=     1 RMS=2.76D-07 Max=5.04D-06 NDo=     1
 LinEq1:  Iter= 13 NonCon=     1 RMS=8.04D-08 Max=1.63D-06 NDo=     1
 LinEq1:  Iter= 14 NonCon=     1 RMS=3.57D-08 Max=9.32D-07 NDo=     1
 LinEq1:  Iter= 15 NonCon=     1 RMS=1.47D-08 Max=2.00D-07 NDo=     1
 LinEq1:  Iter= 16 NonCon=     1 RMS=3.64D-09 Max=7.23D-08 NDo=     1
 LinEq1:  Iter= 17 NonCon=     1 RMS=1.70D-09 Max=1.94D-08 NDo=     1
 LinEq1:  Iter= 18 NonCon=     1 RMS=4.59D-10 Max=6.22D-09 NDo=     1
 LinEq1:  Iter= 19 NonCon=     1 RMS=1.30D-10 Max=1.81D-09 NDo=     1
 LinEq1:  Iter= 20 NonCon=     0 RMS=6.25D-11 Max=9.35D-10 NDo=     1
 Linear equations converged to 1.000D-10 1.000D-09 after    20 iterations.
 End of Minotr F.D. properties file   721 does not exist.
 End of Minotr F.D. properties file   722 does not exist.
 End of Minotr F.D. properties file   788 does not exist.
 Calling FoFJK, ICntrl=  10005127 FMM=F ISym2X=0 I1Cent= 0 IOpClX= 0 NMat=1 NMatS=1 NMatT=0.
 ***** Axes restored to original set *****
 -------------------------------------------------------------------
 Center     Atomic                   Forces (Hartrees/Bohr)
 Number     Number              X              Y              Z
 -------------------------------------------------------------------
      1        6          -0.001968154   -0.013928331   -0.000000037
      2        6          -0.004863585    0.012140650    0.000001056
      3        6           0.006650014   -0.003762881    0.000002470
      4        6           0.004080369    0.002003813   -0.000009616
      5        6          -0.000801363    0.000279097    0.000003755
      6        6           0.006479769    0.004457684    0.000000441
      7        7          -0.008615112    0.000335579    0.000019790
      8        6          -0.005074482   -0.001917699   -0.000016176
      9        6           0.005432161    0.001428192    0.000006235
     10        1           0.000465916   -0.001086235   -0.000011733
     11        1          -0.000443212    0.000295353    0.000002053
     12        1          -0.001333052   -0.001167946    0.000001869
     13        1           0.000861204    0.000220460    0.000000139
     14        1           0.000191909    0.000532050   -0.000001284
     15        1           0.000320591    0.000966045    0.000000080
     16        1          -0.001382975   -0.000795829    0.000000959
 -------------------------------------------------------------------
 Cartesian Forces:  Max     0.013928331 RMS     0.003695072

 GradGradGradGradGradGradGradGradGradGradGradGradGradGradGradGradGradGrad
 Berny optimization.
 Using GEDIIS/GDIIS optimizer.
 FormGI is forming the generalized inverse of G from B-inverse, IUseBI=4.
 Internal  Forces:  Max     0.009424699 RMS     0.001707928
 Search for a local minimum.
 Step number   2 out of a maximum of   94
 All quantities printed in internal units (Hartrees-Bohrs-Radians)
 Mixed Optimization -- RFO/linear search
 Update second derivatives using D2CorX and points    1    2
 DE= -5.82D-03 DEPred=-5.73D-03 R= 1.02D+00
 TightC=F SS=  1.41D+00  RLast= 1.66D-01 DXNew= 5.0454D-01 4.9905D-01
 Trust test= 1.02D+00 RLast= 1.66D-01 DXMaxT set to 4.99D-01
 ITU=  1  0
 Use linear search instead of GDIIS.
     Eigenvalues ---    0.01851   0.01931   0.01986   0.02012   0.02070
     Eigenvalues ---    0.02113   0.02144   0.02150   0.02172   0.02209
     Eigenvalues ---    0.02234   0.02248   0.02340   0.15884   0.16000
     Eigenvalues ---    0.16000   0.16000   0.16000   0.16000   0.16020
     Eigenvalues ---    0.20968   0.22044   0.22790   0.24310   0.24690
     Eigenvalues ---    0.35712   0.35740   0.35748   0.35831   0.36368
     Eigenvalues ---    0.36466   0.37063   0.38506   0.39960   0.42776
     Eigenvalues ---    0.44429   0.46422   0.47165   0.47470   0.47654
     Eigenvalues ---    0.50653   0.54721
 RFO step:  Lambda=-6.86413952D-04 EMin= 1.85086070D-02
 Quartic linear search produced a step of  0.07250.
 Iteration  1 RMS(Cart)=  0.00720105 RMS(Int)=  0.00003435
 Iteration  2 RMS(Cart)=  0.00004010 RMS(Int)=  0.00000783
 Iteration  3 RMS(Cart)=  0.00000000 RMS(Int)=  0.00000783
 Variable       Old X    -DE/DX   Delta X   Delta X   Delta X     New X
                                 (Linear)    (Quad)   (Total)
    R1        2.66887  -0.00942   0.00097  -0.02265  -0.02168   2.64719
    R2        2.69607   0.00385   0.00603   0.00771   0.01374   2.70982
    R3        2.05239   0.00018   0.00059   0.00047   0.00106   2.05345
    R4        2.69058   0.00437   0.00544   0.00900   0.01443   2.70501
    R5        2.05041  -0.00086   0.00046  -0.00262  -0.00216   2.04825
    R6        2.66507  -0.00277   0.00227  -0.00663  -0.00436   2.66070
    R7        2.05272  -0.00053   0.00053  -0.00164  -0.00111   2.05161
    R8        2.71669  -0.00156   0.00262  -0.00517  -0.00257   2.71412
    R9        2.58461  -0.00632  -0.00121  -0.01399  -0.01520   2.56941
   R10        2.66553  -0.00238   0.00129  -0.00579  -0.00449   2.66104
   R11        2.72456  -0.00337   0.00117  -0.00893  -0.00776   2.71679
   R12        2.05250  -0.00076   0.00052  -0.00233  -0.00180   2.05070
   R13        2.64386   0.00140   0.00276   0.00312   0.00590   2.64977
   R14        1.90638   0.00118   0.00079   0.00257   0.00337   1.90975
   R15        2.60248   0.00173   0.00172   0.00415   0.00589   2.60837
   R16        2.04339   0.00012   0.00067   0.00029   0.00095   2.04435
   R17        2.04100  -0.00119   0.00049  -0.00354  -0.00306   2.03795
    A1        2.13933   0.00168   0.00182   0.00783   0.00965   2.14898
    A2        2.06862   0.00019  -0.00081   0.00295   0.00214   2.07076
    A3        2.07524  -0.00187  -0.00101  -0.01078  -0.01179   2.06345
    A4        2.09398   0.00001  -0.00154   0.00003  -0.00153   2.09245
    A5        2.09012   0.00024   0.00047   0.00162   0.00209   2.09222
    A6        2.09909  -0.00024   0.00107  -0.00164  -0.00056   2.09852
    A7        2.04173  -0.00127  -0.00070  -0.00625  -0.00697   2.03476
    A8        2.11993   0.00084   0.00053   0.00452   0.00505   2.12499
    A9        2.12152   0.00042   0.00018   0.00173   0.00192   2.12344
   A10        2.16107   0.00092   0.00197   0.00480   0.00677   2.16784
   A11        2.27703  -0.00312  -0.00014  -0.01199  -0.01212   2.26491
   A12        1.84508   0.00220  -0.00183   0.00719   0.00534   1.85043
   A13        2.06460   0.00037  -0.00059   0.00206   0.00150   2.06610
   A14        1.87130  -0.00084   0.00044  -0.00482  -0.00440   1.86690
   A15        2.34728   0.00047   0.00015   0.00276   0.00291   2.35019
   A16        2.06566  -0.00171  -0.00096  -0.00847  -0.00942   2.05624
   A17        2.11194  -0.00058   0.00064  -0.00539  -0.00475   2.10719
   A18        2.10558   0.00230   0.00031   0.01386   0.01417   2.11975
   A19        1.95247   0.00012   0.00327   0.00001   0.00329   1.95576
   A20        2.16450   0.00005  -0.00187   0.00074  -0.00113   2.16337
   A21        2.16622  -0.00017  -0.00140  -0.00075  -0.00216   2.16406
   A22        1.88367   0.00067   0.00101   0.00517   0.00618   1.88985
   A23        2.21030  -0.00086  -0.00050  -0.00611  -0.00661   2.20369
   A24        2.18922   0.00019  -0.00052   0.00094   0.00042   2.18964
   A25        1.87225  -0.00216  -0.00289  -0.00754  -0.01041   1.86184
   A26        2.12134  -0.00027   0.00137  -0.00520  -0.00385   2.11749
   A27        2.28959   0.00242   0.00153   0.01275   0.01426   2.30385
    D1       -0.00000   0.00000   0.00000   0.00001   0.00001   0.00000
    D2        3.14159   0.00000  -0.00000   0.00001   0.00000  -3.14159
    D3        3.14159   0.00000   0.00000   0.00000   0.00001  -3.14159
    D4       -0.00000   0.00000   0.00000   0.00000   0.00000   0.00000
    D5        0.00004  -0.00000   0.00001  -0.00001  -0.00001   0.00003
    D6       -3.14156  -0.00000   0.00001   0.00000   0.00001  -3.14155
    D7       -3.14155  -0.00000   0.00000  -0.00001  -0.00001  -3.14156
    D8        0.00003   0.00000   0.00000   0.00000   0.00001   0.00004
    D9       -0.00002   0.00000  -0.00000   0.00002   0.00001  -0.00000
   D10       -3.14155  -0.00000  -0.00000  -0.00001  -0.00001  -3.14155
   D11        3.14157   0.00000  -0.00000   0.00002   0.00002   3.14159
   D12        0.00004  -0.00000   0.00000  -0.00000  -0.00000   0.00004
   D13        0.00001  -0.00000   0.00000  -0.00005  -0.00004  -0.00004
   D14       -3.14145  -0.00000  -0.00000  -0.00013  -0.00013  -3.14158
   D15        3.14154  -0.00000  -0.00000  -0.00002  -0.00002   3.14152
   D16        0.00008  -0.00000  -0.00000  -0.00010  -0.00011  -0.00003
   D17        0.00002   0.00000   0.00000   0.00004   0.00005   0.00007
   D18        3.14155   0.00000  -0.00001   0.00007   0.00006  -3.14158
   D19        3.14151   0.00000   0.00001   0.00011   0.00011  -3.14156
   D20       -0.00015   0.00000  -0.00001   0.00013   0.00013  -0.00002
   D21       -3.14157   0.00000  -0.00002   0.00004   0.00001  -3.14156
   D22       -0.00091   0.00001   0.00002   0.00028   0.00029  -0.00061
   D23        0.00013  -0.00000  -0.00003  -0.00003  -0.00006   0.00007
   D24        3.14080   0.00000   0.00001   0.00021   0.00022   3.14102
   D25       -0.00005  -0.00000  -0.00001  -0.00001  -0.00002  -0.00007
   D26        3.14155  -0.00000  -0.00001  -0.00003  -0.00003   3.14152
   D27       -3.14155  -0.00000   0.00001  -0.00005  -0.00004  -3.14158
   D28        0.00005  -0.00000   0.00001  -0.00006  -0.00005   0.00000
   D29        0.00012  -0.00000   0.00004  -0.00019  -0.00015  -0.00003
   D30        3.14153  -0.00000   0.00001  -0.00000   0.00001   3.14153
   D31       -3.14156  -0.00000   0.00002  -0.00016  -0.00013   3.14149
   D32       -0.00015   0.00000  -0.00001   0.00003   0.00002  -0.00013
   D33       -0.00006  -0.00000   0.00005  -0.00008  -0.00003  -0.00009
   D34       -3.14152  -0.00000   0.00002   0.00001   0.00003  -3.14149
   D35       -3.14073  -0.00001   0.00001  -0.00033  -0.00032  -3.14104
   D36        0.00100  -0.00000  -0.00002  -0.00024  -0.00025   0.00075
   D37       -0.00004   0.00000  -0.00006   0.00017   0.00011   0.00007
   D38        3.14140   0.00000  -0.00002   0.00006   0.00004   3.14144
   D39       -3.14145  -0.00000  -0.00003  -0.00002  -0.00004  -3.14149
   D40       -0.00001  -0.00000   0.00000  -0.00012  -0.00012  -0.00013
         Item               Value     Threshold  Converged?
 Maximum Force            0.009425     0.000450     NO 
 RMS     Force            0.001708     0.000300     NO 
 Maximum Displacement     0.027676     0.001800     NO 
 RMS     Displacement     0.007204     0.001200     NO 
 Predicted change in Energy=-3.642680D-04
 GradGradGradGradGradGradGradGradGradGradGradGradGradGradGradGradGradGrad

                          Input orientation:                          
 ---------------------------------------------------------------------
 Center     Atomic      Atomic             Coordinates (Angstroms)
 Number     Number       Type             X           Y           Z
 ---------------------------------------------------------------------
      1          6           0       -2.169574    0.670011    0.000010
      2          6           0       -2.169971   -0.730820    0.000015
[...]
 ! D10   D(1,2,3,14)           179.9894         -DE/DX =    0.0                 !
 ! D11   D(13,2,3,4)           179.9949         -DE/DX =    0.0                 !
 ! D12   D(13,2,3,14)           -0.008          -DE/DX =    0.0                 !
 ! D13   D(2,3,4,5)              0.0125         -DE/DX =    0.0                 !
 ! D14   D(2,3,4,7)            179.9841         -DE/DX =    0.0                 !
 ! D15   D(14,3,4,5)          -179.9846         -DE/DX =    0.0                 !
 ! D16   D(14,3,4,7)            -0.0129         -DE/DX =    0.0                 !
 ! D17   D(3,4,5,6)             -0.0124         -DE/DX =    0.0                 !
 ! D18   D(3,4,5,8)            179.9765         -DE/DX =    0.0                 !
 ! D19   D(7,4,5,6)           -179.9894         -DE/DX =    0.0                 !
 ! D20   D(7,4,5,8)             -0.0004         -DE/DX =    0.0                 !
 ! D21   D(3,4,7,9)           -179.9819         -DE/DX =    0.0                 !
 ! D22   D(3,4,7,10)             0.0922         -DE/DX =    0.0                 !
 ! D23   D(5,4,7,9)             -0.0064         -DE/DX =    0.0                 !
 ! D24   D(5,4,7,10)          -179.9323         -DE/DX =    0.0                 !
 ! D25   D(4,5,6,1)              0.0065         -DE/DX =    0.0                 !
 ! D26   D(4,5,6,16)          -179.9855         -DE/DX =    0.0                 !
 ! D27   D(8,5,6,1)           -179.979          -DE/DX =    0.0                 !
 ! D28   D(8,5,6,16)             0.0289         -DE/DX =    0.0                 !
 ! D29   D(4,5,8,9)              0.0066         -DE/DX =    0.0                 !
 ! D30   D(4,5,8,11)          -179.9859         -DE/DX =    0.0                 !
 ! D31   D(6,5,8,9)            179.9935         -DE/DX =    0.0                 !
 ! D32   D(6,5,8,11)             0.001          -DE/DX =    0.0                 !
 ! D33   D(4,7,9,8)              0.0104         -DE/DX =    0.0                 !
 ! D34   D(4,7,9,12)          -179.9892         -DE/DX =    0.0                 !
 ! D35   D(10,7,9,8)           179.9357         -DE/DX =    0.0                 !
 ! D36   D(10,7,9,12)           -0.064          -DE/DX =    0.0                 !
 ! D37   D(5,8,9,7)             -0.0105         -DE/DX =    0.0                 !
 ! D38   D(5,8,9,12)           179.9891         -DE/DX =    0.0                 !
 ! D39   D(11,8,9,7)           179.9823         -DE/DX =    0.0                 !
 ! D40   D(11,8,9,12)           -0.0181         -DE/DX =    0.0                 !
 --------------------------------------------------------------------------------
 GradGradGradGradGradGradGradGradGradGradGradGradGradGradGradGradGradGrad

                          Input orientation:                          
 ---------------------------------------------------------------------
 Center     Atomic      Atomic             Coordinates (Angstroms)
 Number     Number       Type             X           Y           Z
 ---------------------------------------------------------------------
      1          6           0       -2.181371    0.684970   -0.000027
      2          6           0       -2.152835   -0.694151    0.000122
      3          6           0       -0.904186   -1.439814    0.000192
      4          6           0        0.246058   -0.659784   -0.000073
      5          6           0        0.248733    0.750961   -0.000134
      6          6           0       -0.989973    1.465337   -0.000187
      7          7           0        1.588347   -1.065079    0.000216
      8          6           0        1.597284    1.159541    0.000129
      9          6           0        2.420943   -0.008725    0.000196
     10          1           0        1.885482   -2.030737   -0.000673
     11          1           0        1.974532    2.173660    0.000376
     12          1           0        3.495010   -0.115586    0.000222
     13          1           0       -3.084828   -1.251759    0.000235
     14          1           0       -0.888464   -2.523821    0.000480
     15          1           0       -3.141563    1.193061   -0.000070
     16          1           0       -1.016267    2.549372   -0.000469
 ---------------------------------------------------------------------
                    Distance matrix (angstroms):
                    1          2          3          4          5
     1  C    0.000000
     2  C    1.379416   0.000000
     3  C    2.479094   1.454351   0.000000
     4  C    2.775026   2.399139   1.389787   0.000000
     5  C    2.431000   2.802834   2.475625   1.410747   0.000000
     6  C    1.424219   2.452679   2.906418   2.458437   1.429940
     7  N    4.156134   3.759526   2.520546   1.402143   2.256671
     8  C    3.808340   4.183248   3.607492   2.266221   1.409088
     9  C    4.654300   4.624852   3.620014   2.270243   2.301221
    10  H    4.890231   4.253759   2.851568   2.137107   3.227505
    11  H    4.414490   5.025883   4.619980   3.319041   2.236617
    12  H    5.732555   5.677402   4.594182   3.294214   3.359943
    13  H    2.137090   1.086065   2.188736   3.383080   3.888896
    14  H    3.459472   2.224034   1.084121   2.182149   3.466614
    15  H    1.086336   2.130529   3.455125   3.861219   3.419000
    16  H    2.198513   3.436892   3.990760   3.448499   2.198751
                    6          7          8          9         10
     6  C    0.000000
     7  N    3.612581   0.000000
     8  C    2.605266   2.224637   0.000000
     9  C    3.715805   1.345027   1.429426   0.000000
    10  H    4.526674   1.010340   3.203269   2.091710   0.000000
    11  H    3.047952   3.261682   1.082014   2.227575   4.205341
    12  H    4.755460   2.130000   2.286332   1.079370   2.501677
    13  H    3.430893   4.676903   5.266549   5.644346   5.030983
    14  H    3.990450   2.874461   4.443658   4.156667   2.817430
    15  H    2.168749   5.241302   4.738966   5.690849   5.971939
    16  H    1.084353   4.455139   2.960115   4.284656   5.421950
                   11         12         13         14         15
    11  H    0.000000
    12  H    2.748182   0.000000
    13  H    6.109879   6.677212   0.000000
    14  H    5.501189   5.001444   2.538140   0.000000
    15  H    5.209223   6.764367   2.445478   4.346455   0.000000
    16  H    3.014305   5.239620   4.327533   5.074803   2.521203
                   16
    16  H    0.000000
 Stoichiometry    C8H7N
 Framework group  C1[X(C8H7N)]
 Deg. of freedom    42
 Full point group                 C1      NOp   1
 Largest Abelian subgroup         C1      NOp   1
 Largest concise Abelian subgroup C1      NOp   1
                         Standard orientation:                         
 ---------------------------------------------------------------------
 Center     Atomic      Atomic             Coordinates (Angstroms)
 Number     Number       Type             X           Y           Z
 ---------------------------------------------------------------------
      1          6           0       -2.194077    0.644336   -0.000074
      2          6           0       -2.140838   -0.734052    0.000075
      3          6           0       -0.879031   -1.457226    0.000144
      4          6           0        0.257054   -0.656714   -0.000120
      5          6           0        0.234455    0.753852   -0.000182
      6          6           0       -1.016851    1.445922   -0.000234
      7          7           0        1.606389   -1.037896    0.000168
      8          6           0        1.575469    1.186527    0.000082
      9          6           0        2.419926    0.033204    0.000149
     10          1           0        1.920776   -1.998076   -0.000720
     11          1           0        1.934488    2.207242    0.000328
     12          1           0        3.495735   -0.054397    0.000175
     13          1           0       -3.062692   -1.308268    0.000188
     14          1           0       -0.843891   -2.540777    0.000432
     15          1           0       -3.163218    1.135143   -0.000117
     16          1           0       -1.062562    2.529312   -0.000516
 ---------------------------------------------------------------------
 Rotational constants (GHZ):           3.8602507           1.6131610           1.1377192

 **********************************************************************

            Population analysis using the CI Density.

 **********************************************************************

 Orbital symmetries:
       Occupied  (A) (A) (A) (A) (A) (A) (A) (A) (A) (A) (A) (A)
                 (A) (A) (A) (A) (A) (A) (A) (A) (A) (A) (A) (A)
                 (A) (A) (A) (A) (A) (A) (A)
       Virtual   (A) (A) (A) (A) (A) (A) (A) (A) (A) (A) (A) (A)
                 (A) (A) (A) (A) (A) (A) (A) (A) (A) (A) (A) (A)
                 (A) (A) (A) (A) (A) (A) (A) (A) (A) (A) (A) (A)
                 (A) (A) (A) (A) (A) (A) (A) (A) (A) (A) (A) (A)
                 (A) (A) (A) (A) (A) (A) (A) (A) (A) (A) (A) (A)
                 (A) (A) (A) (A) (A) (A) (A) (A) (A) (A) (A) (A)
                 (A) (A) (A) (A) (A) (A) (A) (A) (A) (A) (A) (A)
                 (A) (A) (A) (A) (A) (A) (A) (A) (A) (A) (A) (A)
                 (A) (A) (A) (A) (A) (A) (A) (A) (A) (A) (A) (A)
                 (A) (A) (A) (A) (A) (A) (A) (A) (A) (A) (A) (A)
                 (A) (A) (A) (A) (A) (A) (A) (A) (A) (A) (A) (A)
                 (A) (A) (A) (A) (A) (A) (A) (A) (A) (A) (A) (A)
                 (A) (A) (A) (A) (A) (A) (A) (A) (A) (A)
 The electronic state is 1-A.
 Alpha  occ. eigenvalues --  -14.50607 -10.34269 -10.33638 -10.31265 -10.30625
 Alpha  occ. eigenvalues --  -10.30348 -10.30190 -10.29845 -10.29010  -1.08953
 Alpha  occ. eigenvalues --   -0.93890  -0.87830  -0.84102  -0.80640  -0.72460
 Alpha  occ. eigenvalues --   -0.69152  -0.67126  -0.63234  -0.57428  -0.56177
 Alpha  occ. eigenvalues --   -0.52561  -0.51906  -0.51457  -0.48886  -0.47776
 Alpha  occ. eigenvalues --   -0.43126  -0.42798  -0.42143  -0.35599  -0.30737
 Alpha  occ. eigenvalues --   -0.26612
 Alpha virt. eigenvalues --    0.03616   0.05664   0.07511   0.08054   0.08770
 Alpha virt. eigenvalues --    0.09240   0.09624   0.10973   0.11688   0.12062
 Alpha virt. eigenvalues --    0.12084   0.12645   0.14617   0.14913   0.16014
 Alpha virt. eigenvalues --    0.16139   0.17255   0.18699   0.19561   0.19952
 Alpha virt. eigenvalues --    0.21183   0.21402   0.22464   0.22823   0.23441
 Alpha virt. eigenvalues --    0.24165   0.24885   0.25109   0.25637   0.26139
 Alpha virt. eigenvalues --    0.26636   0.27289   0.27975   0.28449   0.29528
 Alpha virt. eigenvalues --    0.29679   0.29870   0.30506   0.31579   0.32452
 Alpha virt. eigenvalues --    0.33113   0.33600   0.34650   0.36028   0.36783
 Alpha virt. eigenvalues --    0.37915   0.38674   0.40236   0.42009   0.42964
 Alpha virt. eigenvalues --    0.44749   0.46436   0.50450   0.52961   0.59295
 Alpha virt. eigenvalues --    0.65864   0.69062   0.75119   0.75666   0.78193
 Alpha virt. eigenvalues --    0.79988   0.80651   0.81119   0.81700   0.82167
 Alpha virt. eigenvalues --    0.83910   0.84584   0.85920   0.87285   0.87608
 Alpha virt. eigenvalues --    0.89500   0.93701   0.97309   0.98130   0.99471
 Alpha virt. eigenvalues --    1.03031   1.03430   1.04171   1.04501   1.07243
 Alpha virt. eigenvalues --    1.08548   1.11578   1.13415   1.15032   1.17374
 Alpha virt. eigenvalues --    1.19670   1.21054   1.25716   1.26045   1.29396
 Alpha virt. eigenvalues --    1.30774   1.32385   1.33055   1.40298   1.40558
 Alpha virt. eigenvalues --    1.43259   1.44588   1.49067   1.49167   1.52401
 Alpha virt. eigenvalues --    1.55534   1.55966   1.57754   1.58618   1.62833
 Alpha virt. eigenvalues --    1.66858   1.71891   1.87051   1.90354   1.97097
 Alpha virt. eigenvalues --    1.98571   1.99516   2.02508   2.08004   2.08727
 Alpha virt. eigenvalues --    2.09088   2.11945   2.15300   2.20929   2.24266
 Alpha virt. eigenvalues --    2.24607   2.28440   2.30425   2.32977   2.35996
 Alpha virt. eigenvalues --    2.36313   2.39661   2.45507   2.48752   2.54305
 Alpha virt. eigenvalues --    2.61150   2.64060   2.69938   2.73101   2.73847
 Alpha virt. eigenvalues --    2.75455   2.81554   2.88225   2.91752   2.93334
 Alpha virt. eigenvalues --    3.03478   3.06269   3.17562   3.32455   3.49228
 Alpha virt. eigenvalues --    4.24428   4.34020   4.37545   4.40946   4.45457
 Alpha virt. eigenvalues --    4.49824   4.57183   4.61243   4.86984
          Condensed to atoms (all electrons):
               1          2          3          4          5          6
     1  C    5.615756   0.371857   0.437223  -0.457697  -0.122318  -0.190627
     2  C    0.371857   5.867728  -0.429096   0.241916  -0.389069   0.676546
     3  C    0.437223  -0.429096  13.321403  -1.099859  -4.582958  -2.848087
     4  C   -0.457697   0.241916  -1.099859  12.274719  -3.895664  -1.512853
     5  C   -0.122318  -0.389069  -4.582958  -3.895664  15.078708   0.683342
     6  C   -0.190627   0.676546  -2.848087  -1.512853   0.683342  12.200241
     7  N   -0.024351   0.019717  -0.573304  -0.288778   0.942964   0.139418
     8  C    0.166589  -0.358002   3.044584   2.414749  -4.880616  -3.570131
     9  C   -0.090306   0.050907  -1.044412  -0.766254   1.644171   0.916678
    10  H   -0.003300  -0.003592  -0.136318  -0.055000   0.167348   0.020148
    11  H    0.003263   0.001295   0.002770   0.001142   0.011671   0.026073
    12  H    0.001314  -0.000425   0.033936   0.093674  -0.106819  -0.018330
    13  H    0.029769   0.267706  -0.006476   0.006125   0.012202  -0.000886
    14  H    0.006568   0.036929   0.200508   0.066172   0.006617  -0.008602
    15  H    0.264402   0.026739   0.014645  -0.015555   0.025221  -0.012667
    16  H    0.014754   0.006207  -0.023533   0.026931   0.082241   0.228740
               7          8          9         10         11         12
     1  C   -0.024351   0.166589  -0.090306  -0.003300   0.003263   0.001314
     2  C    0.019717  -0.358002   0.050907  -0.003592   0.001295  -0.000425
     3  C   -0.573304   3.044584  -1.044412  -0.136318   0.002770   0.033936
     4  C   -0.288778   2.414749  -0.766254  -0.055000   0.001142   0.093674
     5  C    0.942964  -4.880616   1.644171   0.167348   0.011671  -0.106819
     6  C    0.139418  -3.570131   0.916678   0.020148   0.026073  -0.018330
     7  N    7.140223  -0.755438   0.577849   0.271146   0.005904  -0.053369
     8  C   -0.755438  11.166728  -1.605202  -0.014911   0.275587   0.056703
     9  C    0.577849  -1.605202   6.303003  -0.009684  -0.021081   0.314124
    10  H    0.271146  -0.014911  -0.009684   0.312228  -0.000066  -0.001804
    11  H    0.005904   0.275587  -0.021081  -0.000066   0.451537  -0.000268
    12  H   -0.053369   0.056703   0.314124  -0.001804  -0.000268   0.438334
    13  H   -0.000347   0.000196   0.001081  -0.000001   0.000000  -0.000000
    14  H   -0.006028  -0.008385   0.008462   0.001803   0.000002   0.000001
    15  H    0.000232   0.006587  -0.000078  -0.000000  -0.000002  -0.000000
    16  H   -0.000653  -0.037199   0.003910   0.000003   0.001228  -0.000001
              13         14         15         16
     1  C    0.029769   0.006568   0.264402   0.014754
     2  C    0.267706   0.036929   0.026739   0.006207
     3  C   -0.006476   0.200508   0.014645  -0.023533
     4  C    0.006125   0.066172  -0.015555   0.026931
     5  C    0.012202   0.006617   0.025221   0.082241
     6  C   -0.000886  -0.008602  -0.012667   0.228740
     7  N   -0.000347  -0.006028   0.000232  -0.000653
     8  C    0.000196  -0.008385   0.006587  -0.037199
     9  C    0.001081   0.008462  -0.000078   0.003910
    10  H   -0.000001   0.001803  -0.000000   0.000003
    11  H    0.000000   0.000002  -0.000002   0.001228
    12  H   -0.000000   0.000001  -0.000000  -0.000001
    13  H    0.498284  -0.002701  -0.003940  -0.000119
    14  H   -0.002701   0.495965  -0.000112   0.000012
    15  H   -0.003940  -0.000112   0.500443  -0.002745
    16  H   -0.000119   0.000012  -0.002745   0.493535
 Mulliken charges:
               1
     1  C   -0.022897
     2  C   -0.387363
     3  C   -0.311026
     4  C   -1.033768
     5  C    1.322958
     6  C   -0.729002
     7  N   -0.395184
     8  C    0.098160
     9  C   -0.283169
    10  H    0.452000
    11  H    0.240945
    12  H    0.242929
    13  H    0.199108
    14  H    0.202790
    15  H    0.196829
    16  H    0.206690
 Sum of Mulliken charges =  -0.00000
 Mulliken charges with hydrogens summed into heavy atoms:
               1
     1  C    0.173932
     2  C   -0.188255
     3  C   -0.108236
     4  C   -1.033768
     5  C    1.322958
     6  C   -0.522313
     7  N    0.056816
     8  C    0.339105
     9  C   -0.040240
 Electronic spatial extent (au):  <R**2>=           1021.2511
 Charge=              0.0000 electrons
 Dipole moment (field-independent basis, Debye):
    X=              4.1772    Y=             -1.4287    Z=             -0.0006  Tot=              4.4147
 Quadrupole moment (field-independent basis, Debye-Ang):
   XX=            -44.1688   YY=            -45.8698   ZZ=            -60.4826
   XY=             -2.4375   XZ=             -0.0019   YZ=              0.0012
 Traceless Quadrupole moment (field-independent basis, Debye-Ang):
   XX=              6.0049   YY=              4.3039   ZZ=            -10.3089
   XY=             -2.4375   XZ=             -0.0019   YZ=              0.0012
 Octapole moment (field-independent basis, Debye-Ang**2):
  XXX=             27.4167  YYY=             -9.7914  ZZZ=              0.0013  XYY=             15.0165
  XXY=             -7.3891  XXZ=             -0.0011  XZZ=              4.8541  YZZ=             -1.6841
  YYZ=             -0.0026  XYZ=              0.0088
 Hexadecapole moment (field-independent basis, Debye-Ang**3):
 XXXX=           -831.7499 YYYY=           -390.5662 ZZZZ=            -85.0679 XXXY=            -18.8083
 XXXZ=             -0.0135 YYYX=            -15.3880 YYYZ=              0.0085 ZZZX=             -0.0149
 ZZZY=              0.0138 XXYY=           -195.7232 XXZZ=           -200.0152 YYZZ=           -103.4876
 XXYZ=              0.0111 YYXZ=             -0.0137 ZZXY=             -2.0130
 N-N= 3.981802084083D+02 E-N=-1.638404112867D+03  KE= 3.601308798336D+02
 Unable to Open any file for archive entry.
 1\1\GINC-EXP-3-55\FOpt\RwB97XD TD-FC\6-31+G(d)\C8H7N1\CWALDT\23-Jun-20
 21\0\\# td= (nstates=6, root=1) WB97XD/6-31+G* Opt density=current\\Fu
 ncsWB97XD-V-1st\\0,1\C,-2.1813706325,0.6849702229,-0.0000273212\C,-2.1
 528348661,-0.694150535,0.0001224454\C,-0.9041861558,-1.4398142431,0.00
 01916169\C,0.2460575631,-0.6597840868,-0.0000725807\C,0.2487331743,0.7
 509607377,-0.0001343994\C,-0.9899730901,1.4653373297,-0.0001866482\N,1
 .5883474829,-1.0650786413,0.0002155272\C,1.5972844601,1.1595405171,0.0
 001294922\C,2.420943057,-0.0087254827,0.0001962582\H,1.8854816438,-2.0
 30737322,-0.0006725161\H,1.9745320468,2.1736602859,0.0003755336\H,3.49
 50102973,-0.1155864041,0.0002223135\H,-3.0848278478,-1.2517585928,0.00
 02347247\H,-0.888464412,-2.5238210849,0.0004795997\H,-3.1415630812,1.1
 930614729,-0.0000695142\H,-1.01626664,2.5493718265,-0.0004685317\\Vers
 ion=AS64L-G16RevC.01\State=1-A\HF=-363.6921921\RMSD=5.193e-09\RMSF=7.3
 12e-05\Dipole=1.6434214,-0.5621093,-0.000255\Quadrupole=4.4644991,3.19
 98793,-7.6643784,-1.8122524,-0.001413,0.0008748\PG=C01 [X(C8H7N1)]\\@
 The archive entry for this job was punched.


 In the beginning the Universe was created.
 This has made a lot of people very angry
 and been widely regarded as a bad move.
                               -D.Adams
 Job cpu time:       0 days  8 hours 25 minutes 27.7 seconds.
 Elapsed time:       0 days  2 hours 16 minutes 19.1 seconds.
 File lengths (MBytes):  RWF=    239 Int=      0 D2E=      0 Chk=     11 Scr=      1
 Normal termination of Gaussian 16 at Wed Jun 23 14:16:09 2021.
