 Entering Gaussian System, Link 0=/cm/shared/apps/spack/cpu/opt/spack/linux-centos8-zen/gcc-8.3.1/gaussian-16.C.01-po5bqktfeugvmjyga3v7eigbecnokxng/g16/g16
 Initial command:
 /cm/shared/apps/spack/cpu/opt/spack/linux-centos8-zen/gcc-8.3.1/gaussian-16.C.01-po5bqktfeugvmjyga3v7eigbecnokxng/g16/l1.exe "/scratch/scaparas/job_3447290/Gau-52986.inp" -scrdir="/scratch/scaparas/job_3447290/"
 Entering Link 1 = /cm/shared/apps/spack/cpu/opt/spack/linux-centos8-zen/gcc-8.3.1/gaussian-16.C.01-po5bqktfeugvmjyga3v7eigbecnokxng/g16/l1.exe PID=     52988.
  
 Copyright (c) 1988-2019, Gaussian, Inc.  All Rights Reserved.
  
 This is part of the Gaussian(R) 16 program.  It is based on
 the Gaussian(R) 09 system (copyright 2009, Gaussian, Inc.),
 the Gaussian(R) 03 system (copyright 2003, Gaussian, Inc.),
 the Gaussian(R) 98 system (copyright 1998, Gaussian, Inc.),
 the Gaussian(R) 94 system (copyright 1995, Gaussian, Inc.),
 the Gaussian 92(TM) system (copyright 1992, Gaussian, Inc.),
 the Gaussian 90(TM) system (copyright 1990, Gaussian, Inc.),
 the Gaussian 88(TM) system (copyright 1988, Gaussian, Inc.),
 the Gaussian 86(TM) system (copyright 1986, Carnegie Mellon
 University), and the Gaussian 82(TM) system (copyright 1983,
 Carnegie Mellon University). Gaussian is a federally registered
 trademark of Gaussian, Inc.
  
 This software contains proprietary and confidential information,
 including trade secrets, belonging to Gaussian, Inc.
  
 This software is provided under written license and may be
 used, copied, transmitted, or stored only in accord with that
 written license.
  
 The following legend is applicable only to US Government
 contracts under FAR:
  
                    RESTRICTED RIGHTS LEGEND
  
 Use, reproduction and disclosure by the US Government is
 subject to restrictions as set forth in subparagraphs (a)
 and (c) of the Commercial Computer Software - Restricted
 Rights clause in FAR 52.227-19.
  
 Gaussian, Inc.
 340 Quinnipiac St., Bldg. 40, Wallingford CT 06492
  
  
 ---------------------------------------------------------------
 Warning -- This program may not be used in any manner that
 competes with the business of Gaussian, Inc. or will provide
 assistance to any competitor of Gaussian, Inc.  The licensee
 of this program is prohibited from giving any competitor of
 Gaussian, Inc. access to this program.  By using this program,
 the user acknowledges that Gaussian, Inc. is engaged in the
 business of creating and licensing software in the field of
 computational chemistry and represents and warrants to the
 licensee that it is not a competitor of Gaussian, Inc. and that
 it will not use this program in any manner prohibited above.
 ---------------------------------------------------------------
  

 Cite this work as:
 Gaussian 16, Revision C.01,
 M. J. Frisch, G. W. Trucks, H. B. Schlegel, G. E. Scuseria, 
 M. A. Robb, J. R. Cheeseman, G. Scalmani, V. Barone, 
 G. A. Petersson, H. Nakatsuji, X. Li, M. Caricato, A. V. Marenich, 
 J. Bloino, B. G. Janesko, R. Gomperts, B. Mennucci, H. P. Hratchian, 
 J. V. Ortiz, A. F. Izmaylov, J. L. Sonnenberg, D. Williams-Young, 
 F. Ding, F. Lipparini, F. Egidi, J. Goings, B. Peng, A. Petrone, 
 T. Henderson, D. Ranasinghe, V. G. Zakrzewski, J. Gao, N. Rega, 
 G. Zheng, W. Liang, M. Hada, M. Ehara, K. Toyota, R. Fukuda, 
 J. Hasegawa, M. Ishida, T. Nakajima, Y. Honda, O. Kitao, H. Nakai, 
 T. Vreven, K. Throssell, J. A. Montgomery, Jr., J. E. Peralta, 
 F. Ogliaro, M. J. Bearpark, J. J. Heyd, E. N. Brothers, K. N. Kudin, 
 V. N. Staroverov, T. A. Keith, R. Kobayashi, J. Normand, 
 K. Raghavachari, A. P. Rendell, J. C. Burant, S. S. Iyengar, 
 J. Tomasi, M. Cossi, J. M. Millam, M. Klene, C. Adamo, R. Cammi, 
 J. W. Ochterski, R. L. Martin, K. Morokuma, O. Farkas, 
 J. B. Foresman, and D. J. Fox, Gaussian, Inc., Wallingford CT, 2019.
 
 ******************************************
 Gaussian 16:  AS64L-G16RevC.01  3-Jul-2019
                16-Jun-2021 
 ******************************************
 %nprocshared=4
 Will use up to    4 processors via shared memory.
 %chk=FuncsSOGGA11X-V-2nd.chk
 %Mem=3GB
 --------------------------------------------------------------
 # td= (nstates=6, root=2) SOGGA11X/6-31+G* Opt density=current
 --------------------------------------------------------------
 1/18=20,19=15,26=3,38=1/1,3;
 2/9=110,12=2,17=6,18=5,40=1/2;
 3/5=1,6=6,7=11,11=9,25=1,30=1,71=1,74=-65/1,2,3,8;
 4//1;
 5/5=2,38=5/2;
 8/6=1,10=2,107=2,108=6/1;
 9/8=2,15=2,41=6,42=1,70=2/14;
 10/5=4,28=2/2;
 6/7=2,8=2,9=2,10=2,22=-1/1;
 7/12=6,13=5,14=2/1,2,3,16;
 1/18=20,19=15,26=3/3(2);
 2/9=110/2;
 99//99;
 2/9=110/2;
 3/5=1,6=6,7=11,11=9,25=1,30=1,71=1,74=-65/1,2,3,8;
 4/5=5,16=3,69=1/1;
 5/5=2,38=5/2;
 8/6=1,10=2,107=2,108=6/1;
 9/8=2,15=2,41=6,42=1,49=4,70=2/14;
 10/5=4,28=2/2;
 7/12=6,13=5,14=2/1,2,3,16;
 1/18=20,19=15,26=3/3(-8);
 2/9=110/2;
 6/7=2,8=2,9=2,10=2,22=-1/1;
 99/9=10/99;
 -------------------
 FuncsSOGGA11X-V-2nd
 -------------------
 Symbolic Z-matrix:
 Charge =  0 Multiplicity = 1
 C                    -2.15106   0.68921   0.00009 
 C                    -2.12793  -0.71582   0.00008 
 C                    -0.9323   -1.4131   -0.00001 
 C                     0.24691  -0.6702   -0.00004 
 C                     0.24819   0.7483    0. 
 C                    -0.97947   1.42353   0.00003 
 N                     1.56177  -1.07759  -0.00029 
 C                     1.62013   1.1629   -0.00016 
 C                     2.38201   0.03081   0.00025 
 H                     1.87632  -2.03001   0.00044 
 H                     1.99217   2.17301  -0.00035 
 H                     3.45255  -0.08243   0.00041 
 H                    -3.06159  -1.26202   0.00009 
 H                    -0.91725  -2.49534  -0.00007 
 H                    -3.1042    1.20079   0.00009 
 H                    -1.00935   2.50542  -0.00002 
 

 GradGradGradGradGradGradGradGradGradGradGradGradGradGradGradGradGradGrad
 Berny optimization.
 Initialization pass.
                           ----------------------------
                           !    Initial Parameters    !
                           ! (Angstroms and Degrees)  !
 --------------------------                            --------------------------
 ! Name  Definition              Value          Derivative Info.                !
 --------------------------------------------------------------------------------
 ! R1    R(1,2)                  1.4052         estimate D2E/DX2                !
 ! R2    R(1,6)                  1.3827         estimate D2E/DX2                !
 ! R3    R(1,15)                 1.0818         estimate D2E/DX2                !
 ! R4    R(2,3)                  1.3841         estimate D2E/DX2                !
 ! R5    R(2,13)                 1.0817         estimate D2E/DX2                !
 ! R6    R(3,4)                  1.3937         estimate D2E/DX2                !
 ! R7    R(3,14)                 1.0823         estimate D2E/DX2                !
 ! R8    R(4,5)                  1.4185         estimate D2E/DX2                !
 ! R9    R(4,7)                  1.3765         estimate D2E/DX2                !
 ! R10   R(5,6)                  1.4011         estimate D2E/DX2                !
 ! R11   R(5,8)                  1.4332         estimate D2E/DX2                !
 ! R12   R(6,16)                 1.0823         estimate D2E/DX2                !
 ! R13   R(7,9)                  1.3789         estimate D2E/DX2                !
 ! R14   R(7,10)                 1.003          estimate D2E/DX2                !
 ! R15   R(8,9)                  1.3646         estimate D2E/DX2                !
 ! R16   R(8,11)                 1.0764         estimate D2E/DX2                !
 ! R17   R(9,12)                 1.0765         estimate D2E/DX2                !
 ! A1    A(2,1,6)              121.1349         estimate D2E/DX2                !
 ! A2    A(2,1,15)             119.1671         estimate D2E/DX2                !
 ! A3    A(6,1,15)             119.698          estimate D2E/DX2                !
 ! A4    A(1,2,3)              121.1938         estimate D2E/DX2                !
 ! A5    A(1,2,13)             119.3846         estimate D2E/DX2                !
 ! A6    A(3,2,13)             119.4217         estimate D2E/DX2                !
 ! A7    A(2,3,4)              117.5387         estimate D2E/DX2                !
 ! A8    A(2,3,14)             121.0469         estimate D2E/DX2                !
 ! A9    A(4,3,14)             121.4144         estimate D2E/DX2                !
 ! A10   A(3,4,5)              122.2626         estimate D2E/DX2                !
 ! A11   A(3,4,7)              130.5743         estimate D2E/DX2                !
 ! A12   A(5,4,7)              107.163          estimate D2E/DX2                !
 ! A13   A(4,5,6)              118.7594         estimate D2E/DX2                !
 ! A14   A(4,5,8)              106.8666         estimate D2E/DX2                !
 ! A15   A(6,5,8)              134.374          estimate D2E/DX2                !
 ! A16   A(1,6,5)              119.1105         estimate D2E/DX2                !
 ! A17   A(1,6,16)             120.4966         estimate D2E/DX2                !
 ! A18   A(5,6,16)             120.3928         estimate D2E/DX2                !
 ! A19   A(4,7,9)              109.2874         estimate D2E/DX2                !
 ! A20   A(4,7,10)             125.4909         estimate D2E/DX2                !
 ! A21   A(9,7,10)             125.2217         estimate D2E/DX2                !
 ! A22   A(5,8,9)              107.125          estimate D2E/DX2                !
 ! A23   A(5,8,11)             127.0344         estimate D2E/DX2                !
 ! A24   A(9,8,11)             125.8405         estimate D2E/DX2                !
 ! A25   A(7,9,8)              109.5578         estimate D2E/DX2                !
 ! A26   A(7,9,12)             120.4645         estimate D2E/DX2                !
 ! A27   A(8,9,12)             129.9776         estimate D2E/DX2                !
 ! D1    D(6,1,2,3)             -0.0008         estimate D2E/DX2                !
 ! D2    D(6,1,2,13)          -179.9981         estimate D2E/DX2                !
 ! D3    D(15,1,2,3)           179.996          estimate D2E/DX2                !
 ! D4    D(15,1,2,13)           -0.0013         estimate D2E/DX2                !
 ! D5    D(2,1,6,5)             -0.0018         estimate D2E/DX2                !
 ! D6    D(2,1,6,16)           179.9965         estimate D2E/DX2                !
 ! D7    D(15,1,6,5)          -179.9986         estimate D2E/DX2                !
 ! D8    D(15,1,6,16)           -0.0003         estimate D2E/DX2                !
 ! D9    D(1,2,3,4)              0.002          estimate D2E/DX2                !
 ! D10   D(1,2,3,14)          -179.9968         estimate D2E/DX2                !
 ! D11   D(13,2,3,4)           179.9992         estimate D2E/DX2                !
 ! D12   D(13,2,3,14)            0.0005         estimate D2E/DX2                !
 ! D13   D(2,3,4,5)             -0.0005         estimate D2E/DX2                !
 ! D14   D(2,3,4,7)           -179.9911         estimate D2E/DX2                !
 ! D15   D(14,3,4,5)           179.9982         estimate D2E/DX2                !
 ! D16   D(14,3,4,7)             0.0076         estimate D2E/DX2                !
 ! D17   D(3,4,5,6)             -0.002          estimate D2E/DX2                !
 ! D18   D(3,4,5,8)           -179.9955         estimate D2E/DX2                !
 ! D19   D(7,4,5,6)            179.9905         estimate D2E/DX2                !
 ! D20   D(7,4,5,8)             -0.003          estimate D2E/DX2                !
 ! D21   D(3,4,7,9)           -179.98           estimate D2E/DX2                !
 ! D22   D(3,4,7,10)            -0.0649         estimate D2E/DX2                !
 ! D23   D(5,4,7,9)              0.0284         estimate D2E/DX2                !
 ! D24   D(5,4,7,10)           179.9434         estimate D2E/DX2                !
 ! D25   D(4,5,6,1)              0.0031         estimate D2E/DX2                !
 ! D26   D(4,5,6,16)          -179.9951         estimate D2E/DX2                !
 ! D27   D(8,5,6,1)            179.9944         estimate D2E/DX2                !
 ! D28   D(8,5,6,16)            -0.0038         estimate D2E/DX2                !
 ! D29   D(4,5,8,9)             -0.0234         estimate D2E/DX2                !
 ! D30   D(4,5,8,11)           179.9883         estimate D2E/DX2                !
 ! D31   D(6,5,8,9)            179.9846         estimate D2E/DX2                !
 ! D32   D(6,5,8,11)            -0.0037         estimate D2E/DX2                !
 ! D33   D(4,7,9,8)             -0.0444         estimate D2E/DX2                !
 ! D34   D(4,7,9,12)           179.9847         estimate D2E/DX2                !
 ! D35   D(10,7,9,8)          -179.9597         estimate D2E/DX2                !
 ! D36   D(10,7,9,12)            0.0693         estimate D2E/DX2                !
 ! D37   D(5,8,9,7)              0.0414         estimate D2E/DX2                !
 ! D38   D(5,8,9,12)          -179.9913         estimate D2E/DX2                !
 ! D39   D(11,8,9,7)          -179.9702         estimate D2E/DX2                !
 ! D40   D(11,8,9,12)           -0.0029         estimate D2E/DX2                !
 --------------------------------------------------------------------------------
 Trust Radius=3.00D-01 FncErr=1.00D-07 GrdErr=1.00D-06 EigMax=2.50D+02 EigMin=1.00D-04
 Number of steps in this run=     94 maximum allowed number of steps=    100.
 GradGradGradGradGradGradGradGradGradGradGradGradGradGradGradGradGradGrad

                          Input orientation:                          
 ---------------------------------------------------------------------
 Center     Atomic      Atomic             Coordinates (Angstroms)
 Number     Number       Type             X           Y           Z
 ---------------------------------------------------------------------
      1          6           0       -2.151063    0.689208    0.000088
      2          6           0       -2.127927   -0.715818    0.000075
      3          6           0       -0.932297   -1.413100   -0.000011
      4          6           0        0.246911   -0.670201   -0.000042
      5          6           0        0.248193    0.748299    0.000000
      6          6           0       -0.979474    1.423526    0.000032
      7          7           0        1.561774   -1.077592   -0.000285
      8          6           0        1.620133    1.162900   -0.000157
      9          6           0        2.382013    0.030806    0.000248
     10          1           0        1.876315   -2.030011    0.000438
     11          1           0        1.992173    2.173010   -0.000348
     12          1           0        3.452549   -0.082425    0.000408
     13          1           0       -3.061594   -1.262020    0.000088
     14          1           0       -0.917252   -2.495342   -0.000073
     15          1           0       -3.104203    1.200785    0.000090
     16          1           0       -1.009348    2.505421   -0.000015
 ---------------------------------------------------------------------
                    Distance matrix (angstroms):
                    1          2          3          4          5
     1  C    0.000000
     2  C    1.405216   0.000000
     3  C    2.430039   1.384100   0.000000
     4  C    2.756496   2.375276   1.393711   0.000000
     5  C    2.399984   2.790983   2.462763   1.418501   0.000000
     6  C    1.382694   2.428114   2.837018   2.426461   1.401106
     7  N    4.111781   3.707395   2.516536   1.376529   2.249305
     8  C    3.800829   4.192557   3.626386   2.290414   1.433218
     9  C    4.580641   4.571324   3.615178   2.247236   2.251218
    10  H    4.859416   4.214387   2.875566   2.122273   3.220216
    11  H    4.400917   5.031953   4.627387   3.336134   2.251948
    12  H    5.656491   5.616307   4.582311   3.259079   3.310287
    13  H    2.153220   1.081698   2.134650   3.361020   3.872476
    14  H    3.415208   2.152310   1.082347   2.164813   3.446661
    15  H    1.081752   2.150926   3.398466   3.838040   3.382795
    16  H    2.145261   3.409927   3.919278   3.415079   2.160761
                    6          7          8          9         10
     6  C    0.000000
     7  N    3.565604   0.000000
     8  C    2.612639   2.241252   0.000000
     9  C    3.638580   1.378890   1.364587   0.000000
    10  H    4.481345   1.003015   3.203172   2.121956   0.000000
    11  H    3.064704   3.278972   1.076446   2.177387   4.204618
    12  H    4.680888   2.136677   2.215532   1.076508   2.505515
    13  H    3.398144   4.627045   5.272457   5.595021   4.997275
    14  H    3.919362   2.855798   4.452085   4.155307   2.832058
    15  H    2.136372   5.192528   4.724488   5.609583   5.936632
    16  H    1.082307   4.410062   2.952378   4.198220   5.375611
                   11         12         13         14         15
    11  H    0.000000
    12  H    2.686947   0.000000
    13  H    6.110646   6.620083   0.000000
    14  H    5.500751   4.991726   2.473719   0.000000
    15  H    5.188282   6.681139   2.463174   4.294661   0.000000
    16  H    3.019872   5.158049   4.290143   5.001611   2.467892
                   16
    16  H    0.000000
 Stoichiometry    C8H7N
 Framework group  C1[X(C8H7N)]
 Deg. of freedom    42
 Full point group                 C1      NOp   1
 Largest Abelian subgroup         C1      NOp   1
 Largest concise Abelian subgroup C1      NOp   1
                         Standard orientation:                         
 ---------------------------------------------------------------------
 Center     Atomic      Atomic             Coordinates (Angstroms)
 Number     Number       Type             X           Y           Z
 ---------------------------------------------------------------------
      1          6           0       -2.151063    0.689208    0.000088
      2          6           0       -2.127927   -0.715818    0.000075
      3          6           0       -0.932297   -1.413100   -0.000011
      4          6           0        0.246911   -0.670201   -0.000042
      5          6           0        0.248193    0.748299    0.000000
      6          6           0       -0.979474    1.423526    0.000032
      7          7           0        1.561774   -1.077592   -0.000285
      8          6           0        1.620133    1.162900   -0.000157
      9          6           0        2.382013    0.030806    0.000248
     10          1           0        1.876315   -2.030011    0.000438
     11          1           0        1.992173    2.173010   -0.000348
     12          1           0        3.452549   -0.082425    0.000408
     13          1           0       -3.061594   -1.262020    0.000088
     14          1           0       -0.917252   -2.495342   -0.000073
     15          1           0       -3.104203    1.200785    0.000090
     16          1           0       -1.009348    2.505421   -0.000015
 ---------------------------------------------------------------------
 Rotational constants (GHZ):           3.9080822           1.6429452           1.1566805
 Standard basis: 6-31+G(d) (6D, 7F)
 There are   185 symmetry adapted cartesian basis functions of A   symmetry.
 There are   185 symmetry adapted basis functions of A   symmetry.
   185 basis functions,   316 primitive gaussians,   185 cartesian basis functions
    31 alpha electrons       31 beta electrons
       nuclear repulsion energy       401.3368668897 Hartrees.
 NAtoms=   16 NActive=   16 NUniq=   16 SFac= 1.00D+00 NAtFMM=   60 NAOKFM=F Big=F
 Integral buffers will be    131072 words long.
 Regular integral format.
 Two-electron integral symmetry is turned on.
 One-electron integrals computed using PRISM.
 NBasis=   185 RedAO= T EigKep=  1.26D-06  NBF=   185
 NBsUse=   185 1.00D-06 EigRej= -1.00D+00 NBFU=   185
 ExpMin= 4.38D-02 ExpMax= 4.17D+03 ExpMxC= 6.27D+02 IAcc=3 IRadAn=         5 AccDes= 0.00D+00
 Harris functional with IExCor= 5143 and IRadAn=       5 diagonalized for initial guess.
 HarFok:  IExCor= 5143 AccDes= 0.00D+00 IRadAn=         5 IDoV= 1 UseB2=F ITyADJ=14
 ICtDFT=  3500011 ScaDFX=  1.000000  1.000000  1.000000  1.000000
 FoFCou: FMM=F IPFlag=           0 FMFlag=      100000 FMFlg1=           0
         NFxFlg=           0 DoJE=T BraDBF=F KetDBF=T FulRan=T
         wScrn=  0.000000 ICntrl=       500 IOpCl=  0 I1Cent=   200000004 NGrid=           0
         NMat0=    1 NMatS0=      1 NMatT0=    0 NMatD0=    1 NMtDS0=    0 NMtDT0=    0
 Petite list used in FoFCou.
 Keep R1 ints in memory in canonical form, NReq=152071459.
 Requested convergence on RMS density matrix=1.00D-08 within 128 cycles.
 Requested convergence on MAX density matrix=1.00D-06.
 Requested convergence on             energy=1.00D-06.
 No special actions if energy rises.
 SCF Done:  E(RSOGGA11X) =  -363.729258520     A.U. after   15 cycles
            NFock= 15  Conv=0.69D-08     -V/T= 2.0078
 DoSCS=F DFT=T ScalE2(SS,OS)=  1.000000  1.000000
 ExpMin= 4.38D-02 ExpMax= 4.17D+03 ExpMxC= 6.27D+02 IAcc=3 IRadAn=         5 AccDes= 0.00D+00
 HarFok:  IExCor=  205 AccDes= 0.00D+00 IRadAn=         5 IDoV=-2 UseB2=F ITyADJ=14
 ICtDFT= 12500011 ScaDFX=  1.000000  1.000000  1.000000  1.000000
 Range of M.O.s used for correlation:    10   185
 NBasis=   185 NAE=    31 NBE=    31 NFC=     9 NFV=     0
 NROrb=    176 NOA=    22 NOB=    22 NVA=   154 NVB=   154

 **** Warning!!: The largest alpha MO coefficient is  0.17764811D+03

 Orbital symmetries:
       Occupied  (A) (A) (A) (A) (A) (A) (A) (A) (A) (A) (A) (A)
                 (A) (A) (A) (A) (A) (A) (A) (A) (A) (A) (A) (A)
                 (A) (A) (A) (A) (A) (A) (A)
       Virtual   (A) (A) (A) (A) (A) (A) (A) (A) (A) (A) (A) (A)
                 (A) (A) (A) (A) (A) (A) (A) (A) (A) (A) (A) (A)
                 (A) (A) (A) (A) (A) (A) (A) (A) (A) (A) (A) (A)
                 (A) (A) (A) (A) (A) (A) (A) (A) (A) (A) (A) (A)
                 (A) (A) (A) (A) (A) (A) (A) (A) (A) (A) (A) (A)
                 (A) (A) (A) (A) (A) (A) (A) (A) (A) (A) (A) (A)
                 (A) (A) (A) (A) (A) (A) (A) (A) (A) (A) (A) (A)
                 (A) (A) (A) (A) (A) (A) (A) (A) (A) (A) (A) (A)
                 (A) (A) (A) (A) (A) (A) (A) (A) (A) (A) (A) (A)
                 (A) (A) (A) (A) (A) (A) (A) (A) (A) (A) (A) (A)
                 (A) (A) (A) (A) (A) (A) (A) (A) (A) (A) (A) (A)
                 (A) (A) (A) (A) (A) (A) (A) (A) (A) (A) (A) (A)
                 (A) (A) (A) (A) (A) (A) (A) (A) (A) (A)
    24 initial guesses have been made.
 Convergence on wavefunction:    0.000001000000000
 Iteration     1 Dimension    24 NMult     0 NNew     24
 CISAX will form    24 AO SS matrices at one time.
 New state      1 was old state      2
 New state      2 was old state      3
 New state      3 was old state      1
 Iteration     2 Dimension    36 NMult    24 NNew     12
 New state      1 was old state      3
 New state      2 was old state      1
 New state      3 was old state      2
 Iteration     3 Dimension    48 NMult    36 NNew     12
 Iteration     4 Dimension    60 NMult    48 NNew     12
 Iteration     5 Dimension    72 NMult    60 NNew     12
 Iteration     6 Dimension    84 NMult    72 NNew     12
 Iteration     7 Dimension    96 NMult    84 NNew     12
 Iteration     8 Dimension   108 NMult    96 NNew     12
 Iteration     9 Dimension   118 NMult   108 NNew     10
 Iteration    10 Dimension   122 NMult   118 NNew      4
 ***********************************************************************
 Excited states from <AA,BB:AA,BB> singles matrix:
 ***********************************************************************
 
 Ground to excited state transition densities written to RWF  633
 Ground to excited state transition electric dipole moments (Au):
       state          X           Y           Z        Dip. S.      Osc.
         1        -0.6197      0.6650     -0.0005      0.8263      0.1028
         2        -0.0059     -0.0033     -0.1356      0.0184      0.0023
         3        -0.6422     -0.1115      0.0015      0.4248      0.0537
         4        -0.0003      0.0001     -0.1385      0.0192      0.0026
         5         0.0003     -0.0000     -0.0229      0.0005      0.0001
         6         0.0006      0.0001      0.1102      0.0121      0.0017
 Ground to excited state transition velocity dipole moments (Au):
       state          X           Y           Z        Dip. S.      Osc.
         1         0.1065     -0.1338      0.0001      0.0292      0.1045
         2         0.0011      0.0007      0.0167      0.0003      0.0010
         3         0.1155      0.0220     -0.0002      0.0138      0.0486
         4         0.0001     -0.0000      0.0305      0.0009      0.0030
         5        -0.0001      0.0000      0.0051      0.0000      0.0001
         6        -0.0001     -0.0000     -0.0225      0.0005      0.0016
 Ground to excited state transition magnetic dipole moments (Au):
       state          X           Y           Z
         1         0.0006     -0.0003      0.1759
         2         0.1355     -0.0860     -0.0012
         3        -0.0017      0.0008     -0.0686
         4         0.0496     -0.2661     -0.0000
         5         0.2482     -0.2396      0.0001
         6         0.2239      0.2768      0.0006
 Ground to excited state transition velocity quadrupole moments (Au):
       state          XX          YY          ZZ          XY          XZ          YZ
         1         0.2387     -0.1310      0.0180      0.0379      0.0003      0.0002
         2         0.0003     -0.0012      0.0004     -0.0003      0.0714      0.0564
         3         0.0868     -0.1279      0.0277     -0.0150     -0.0007     -0.0007
         4        -0.0000      0.0000     -0.0000     -0.0000      0.1901     -0.0046
         5        -0.0002      0.0000      0.0000      0.0001      0.2752      0.2505
         6         0.0001     -0.0001      0.0001      0.0003     -0.2284      0.1130
 <0|del|b> * <b|rxdel|0> + <0|del|b> * <b|delr+rdel|0>
 Rotatory Strengths (R) in cgs (10**-40 erg-esu-cm/Gauss)
       state          XX          YY          ZZ    R(velocity)    E-M Angle
         1         0.1576      0.1766      0.0778      0.1373       89.79
         2        -0.2426      0.3553      0.1400      0.0842       90.00
         3         0.0920     -0.5047     -0.2077     -0.2068       91.18
         4         0.0192      0.0047      0.0101      0.0113       90.00
         5         0.0003     -0.0494      0.0003     -0.0163       90.00
         6        -0.0446     -0.0691     -0.0210     -0.0449       90.00
 1/2[<0|r|b>*<b|rxdel|0> + (<0|rxdel|b>*<b|r|0>)*]
 Rotatory Strengths (R) in cgs (10**-40 erg-esu-cm/Gauss)
       state          XX          YY          ZZ     R(length)
         1         0.2621      0.1225      0.0572      0.1473
         2         0.5618     -0.2013     -0.1152      0.0818
         3        -0.7726      0.0636      0.0744     -0.2116
         4         0.0110      0.0205     -0.0019      0.0099
         5        -0.0487     -0.0058      0.0011     -0.0178
         6        -0.0875     -0.0283     -0.0430     -0.0529
  1/2[<0|del|b>*<b|r|0> + (<0|r|b>*<b|del|0>)*] (Au)
       state          X           Y           Z        Dip. S.   Osc.(frdel)
         1        -0.0660     -0.0890     -0.0000      0.1550      0.1033
         2        -0.0000     -0.0000     -0.0023      0.0023      0.0015
         3        -0.0742     -0.0025     -0.0000      0.0766      0.0511
         4        -0.0000     -0.0000     -0.0042      0.0042      0.0028
         5        -0.0000     -0.0000     -0.0001      0.0001      0.0001
         6        -0.0000     -0.0000     -0.0025      0.0025      0.0017

 Excitation energies and oscillator strengths:
 
 Excited State   1:      Singlet-A      5.0758 eV  244.26 nm  f=0.1028  <S**2>=0.000
      30 -> 32        -0.15832
      30 -> 36         0.18041
      31 -> 32         0.65644
 
 Excited State   2:      Singlet-A      5.1542 eV  240.55 nm  f=0.0023  <S**2>=0.000
      31 -> 33         0.69699
 This state for optimization and/or second-order correction.
 Total Energy, E(TD-HF/TD-DFT) =  -363.539846359    
 Copying the excited state density for this state as the 1-particle RhoCI density.
 
 Excited State   3:      Singlet-A      5.1604 eV  240.26 nm  f=0.0537  <S**2>=0.000
      30 -> 32         0.57001
      31 -> 32         0.15017
      31 -> 36        -0.36783
 
 Excited State   4:      Singlet-A      5.6352 eV  220.02 nm  f=0.0026  <S**2>=0.000
      30 -> 33         0.67472
      31 -> 34         0.15341
 
 Excited State   5:      Singlet-A      5.7994 eV  213.79 nm  f=0.0001  <S**2>=0.000
      30 -> 33        -0.15756
      31 -> 34         0.66675
      31 -> 35        -0.11454
 
 Excited State   6:      Singlet-A      5.8828 eV  210.76 nm  f=0.0017  <S**2>=0.000
      31 -> 34         0.11687
      31 -> 35         0.67603
 SavETr:  write IOETrn=   770 NScale= 10 NData=  16 NLR=1 NState=    6 LETran=     118.
          IDoAtm=1111111111111111
          Differentiating once with respect to electric field.
                with respect to dipole field.
          Differentiating once with respect to nuclear coordinates.
 Keep R1 ints in memory in canonical form, NReq=152083851.
          There are     1 degrees of freedom in the 1st order CPHF.  IDoFFX=0 NUNeed=     1.
 LinEq1:  Iter=  0 NonCon=     1 RMS=1.08D-02 Max=1.74D-01 NDo=     1
 AX will form     1 AO Fock derivatives at one time.
 LinEq1:  Iter=  1 NonCon=     1 RMS=5.08D-03 Max=1.16D-01 NDo=     1
 LinEq1:  Iter=  2 NonCon=     1 RMS=3.18D-03 Max=8.24D-02 NDo=     1
 LinEq1:  Iter=  3 NonCon=     1 RMS=1.03D-03 Max=2.41D-02 NDo=     1
 LinEq1:  Iter=  4 NonCon=     1 RMS=5.45D-04 Max=1.10D-02 NDo=     1
 LinEq1:  Iter=  5 NonCon=     1 RMS=2.54D-04 Max=6.89D-03 NDo=     1
 LinEq1:  Iter=  6 NonCon=     1 RMS=1.59D-04 Max=4.24D-03 NDo=     1
 LinEq1:  Iter=  7 NonCon=     1 RMS=4.82D-05 Max=1.06D-03 NDo=     1
 LinEq1:  Iter=  8 NonCon=     1 RMS=2.05D-05 Max=5.67D-04 NDo=     1
 LinEq1:  Iter=  9 NonCon=     1 RMS=1.18D-05 Max=4.01D-04 NDo=     1
 LinEq1:  Iter= 10 NonCon=     1 RMS=4.18D-06 Max=9.81D-05 NDo=     1
 LinEq1:  Iter= 11 NonCon=     1 RMS=2.25D-06 Max=5.95D-05 NDo=     1
 LinEq1:  Iter= 12 NonCon=     1 RMS=8.62D-07 Max=1.68D-05 NDo=     1
 LinEq1:  Iter= 13 NonCon=     1 RMS=3.34D-07 Max=3.91D-06 NDo=     1
 LinEq1:  Iter= 14 NonCon=     1 RMS=1.40D-07 Max=2.53D-06 NDo=     1
 LinEq1:  Iter= 15 NonCon=     1 RMS=3.34D-08 Max=4.46D-07 NDo=     1
 LinEq1:  Iter= 16 NonCon=     1 RMS=1.54D-08 Max=2.36D-07 NDo=     1
 LinEq1:  Iter= 17 NonCon=     1 RMS=5.59D-09 Max=1.36D-07 NDo=     1
 LinEq1:  Iter= 18 NonCon=     1 RMS=1.11D-09 Max=2.02D-08 NDo=     1
 LinEq1:  Iter= 19 NonCon=     1 RMS=3.29D-10 Max=4.84D-09 NDo=     1
 LinEq1:  Iter= 20 NonCon=     1 RMS=1.79D-10 Max=3.25D-09 NDo=     1
 LinEq1:  Iter= 21 NonCon=     0 RMS=3.70D-11 Max=4.64D-10 NDo=     1
 Linear equations converged to 1.000D-10 1.000D-09 after    21 iterations.
 End of Minotr F.D. properties file   721 does not exist.
 End of Minotr F.D. properties file   722 does not exist.
 End of Minotr F.D. properties file   788 does not exist.

 **********************************************************************

            Population analysis using the CI Density.

 **********************************************************************

 Orbital symmetries:
       Occupied  (A) (A) (A) (A) (A) (A) (A) (A) (A) (A) (A) (A)
                 (A) (A) (A) (A) (A) (A) (A) (A) (A) (A) (A) (A)
                 (A) (A) (A) (A) (A) (A) (A)
       Virtual   (A) (A) (A) (A) (A) (A) (A) (A) (A) (A) (A) (A)
                 (A) (A) (A) (A) (A) (A) (A) (A) (A) (A) (A) (A)
                 (A) (A) (A) (A) (A) (A) (A) (A) (A) (A) (A) (A)
                 (A) (A) (A) (A) (A) (A) (A) (A) (A) (A) (A) (A)
                 (A) (A) (A) (A) (A) (A) (A) (A) (A) (A) (A) (A)
                 (A) (A) (A) (A) (A) (A) (A) (A) (A) (A) (A) (A)
                 (A) (A) (A) (A) (A) (A) (A) (A) (A) (A) (A) (A)
                 (A) (A) (A) (A) (A) (A) (A) (A) (A) (A) (A) (A)
                 (A) (A) (A) (A) (A) (A) (A) (A) (A) (A) (A) (A)
                 (A) (A) (A) (A) (A) (A) (A) (A) (A) (A) (A) (A)
                 (A) (A) (A) (A) (A) (A) (A) (A) (A) (A) (A) (A)
                 (A) (A) (A) (A) (A) (A) (A) (A) (A) (A) (A) (A)
                 (A) (A) (A) (A) (A) (A) (A) (A) (A) (A)
 The electronic state is 1-A.
 Alpha  occ. eigenvalues --  -14.70918 -10.49326 -10.48990 -10.45947 -10.45499
 Alpha  occ. eigenvalues --  -10.45432 -10.45424 -10.44860 -10.44630  -1.08859
 Alpha  occ. eigenvalues --   -0.93673  -0.87512  -0.82397  -0.80454  -0.69855
 Alpha  occ. eigenvalues --   -0.66723  -0.65249  -0.60450  -0.54364  -0.53058
 Alpha  occ. eigenvalues --   -0.49277  -0.48491  -0.47807  -0.46529  -0.44424
 Alpha  occ. eigenvalues --   -0.40501  -0.38287  -0.38229  -0.32051  -0.25692
 Alpha  occ. eigenvalues --   -0.23980
 Alpha virt. eigenvalues --    0.00441   0.00542   0.02536   0.03010   0.04265
 Alpha virt. eigenvalues --    0.04406   0.04585   0.06242   0.06737   0.07171
 Alpha virt. eigenvalues --    0.07256   0.07604   0.09600   0.10192   0.11241
 Alpha virt. eigenvalues --    0.11403   0.12385   0.13649   0.14869   0.15194
 Alpha virt. eigenvalues --    0.16487   0.16633   0.17761   0.17950   0.18682
 Alpha virt. eigenvalues --    0.19783   0.20045   0.20156   0.21088   0.21792
 Alpha virt. eigenvalues --    0.22126   0.23160   0.23443   0.24133   0.24813
 Alpha virt. eigenvalues --    0.25457   0.25611   0.26146   0.27103   0.27648
 Alpha virt. eigenvalues --    0.28712   0.28972   0.30368   0.31703   0.32771
 Alpha virt. eigenvalues --    0.33889   0.34063   0.35478   0.37587   0.39875
 Alpha virt. eigenvalues --    0.40914   0.43476   0.48037   0.48861   0.55742
 Alpha virt. eigenvalues --    0.62934   0.67882   0.72088   0.72581   0.75033
 Alpha virt. eigenvalues --    0.76878   0.77214   0.78679   0.78867   0.79879
 Alpha virt. eigenvalues --    0.80574   0.81661   0.83228   0.84684   0.85907
 Alpha virt. eigenvalues --    0.87052   0.90957   0.95613   0.96943   0.97788
 Alpha virt. eigenvalues --    1.00018   1.01072   1.01695   1.02377   1.04551
 Alpha virt. eigenvalues --    1.06548   1.09156   1.10740   1.12695   1.14376
 Alpha virt. eigenvalues --    1.16660   1.17048   1.22197   1.22876   1.25299
 Alpha virt. eigenvalues --    1.27654   1.27794   1.30629   1.36602   1.37381
 Alpha virt. eigenvalues --    1.38610   1.41864   1.46291   1.46943   1.50780
 Alpha virt. eigenvalues --    1.50989   1.51629   1.54823   1.55418   1.59943
 Alpha virt. eigenvalues --    1.64653   1.70641   1.84353   1.90558   1.94733
 Alpha virt. eigenvalues --    1.94786   1.98588   2.00513   2.06035   2.06370
 Alpha virt. eigenvalues --    2.06427   2.12899   2.16764   2.20921   2.23449
 Alpha virt. eigenvalues --    2.24066   2.26593   2.31196   2.32327   2.32904
 Alpha virt. eigenvalues --    2.35126   2.38191   2.44644   2.47427   2.51473
 Alpha virt. eigenvalues --    2.61881   2.62758   2.70756   2.72947   2.73973
 Alpha virt. eigenvalues --    2.77660   2.81367   2.88677   2.92240   2.93797
 Alpha virt. eigenvalues --    3.03115   3.05605   3.19443   3.32855   3.53204
 Alpha virt. eigenvalues --    4.25688   4.37212   4.40164   4.43672   4.47276
 Alpha virt. eigenvalues --    4.50809   4.59175   4.63133   4.90097
          Condensed to atoms (all electrons):
               1          2          3          4          5          6
     1  C   33.494641   8.543873   1.769240 -27.234768  -7.538314 -26.809721
     2  C    8.543873  28.830538   7.526918 -28.108046  11.497971 -34.747210
     3  C    1.769240   7.526918  48.446382 -34.172810   8.206157 -32.531735
     4  C  -27.234768 -28.108046 -34.172810 133.583742 -44.710759  64.466151
     5  C   -7.538314  11.497971   8.206157 -44.710759 119.192949 -40.665603
     6  C  -26.809721 -34.747210 -32.531735  64.466151 -40.665603 100.473910
     7  N   -0.860313  -0.006734  -1.073606   6.791880  -4.996980   3.082442
     8  C   39.840320  19.911500  14.853460-115.753927 -68.674612 -42.424449
     9  C  -15.268761  -7.094268  -6.837308  51.795920  31.968693  14.601119
    10  H    0.010645  -0.134219  -0.638046   0.201849   0.987483  -0.054367
    11  H   -0.020937  -0.001154  -0.004919  -0.018859   0.317610   0.071110
    12  H    0.012392  -0.006414   0.165618   0.340310  -0.704992  -0.031756
    13  H    0.139339   0.069131  -0.017717   0.140340  -0.098637   0.100754
    14  H   -0.083476   0.152554  -0.492633   0.714719   0.004853   0.024255
    15  H    0.249665   0.062669   0.003407  -0.040317   0.005197   0.036596
    16  H    0.082371  -0.032056  -0.038383  -0.031638   0.252566   0.125629
               7          8          9         10         11         12
     1  C   -0.860313  39.840320 -15.268761   0.010645  -0.020937   0.012392
     2  C   -0.006734  19.911500  -7.094268  -0.134219  -0.001154  -0.006414
     3  C   -1.073606  14.853460  -6.837308  -0.638046  -0.004919   0.165618
     4  C    6.791880-115.753927  51.795920   0.201849  -0.018859   0.340310
     5  C   -4.996980 -68.674612  31.968693   0.987483   0.317610  -0.704992
     6  C    3.082442 -42.424449  14.601119  -0.054367   0.071110  -0.031756
     7  N   15.098045 -30.857165  19.587905  -0.837904   0.004300  -0.064079
     8  C  -30.857165 392.546116-199.375298   2.155540  -0.295729   1.153545
     9  C   19.587905-199.375298 113.977286  -1.471917   0.266401  -0.526250
    10  H   -0.837904   2.155540  -1.471917   0.337976  -0.000089   0.001522
    11  H    0.004300  -0.295729   0.266401  -0.000089   0.390049  -0.000226
    12  H   -0.064079   1.153545  -0.526250   0.001522  -0.000226   0.301149
    13  H    0.004040  -0.033122   0.015446  -0.000018   0.000000  -0.000000
    14  H   -0.015817  -0.007399   0.017767  -0.000098   0.000000   0.000001
    15  H   -0.000344   0.008619   0.000854   0.000000  -0.000001  -0.000000
    16  H    0.002242  -0.092311   0.040132  -0.000002   0.000768  -0.000001
              13         14         15         16
     1  C    0.139339  -0.083476   0.249665   0.082371
     2  C    0.069131   0.152554   0.062669  -0.032056
     3  C   -0.017717  -0.492633   0.003407  -0.038383
     4  C    0.140340   0.714719  -0.040317  -0.031638
     5  C   -0.098637   0.004853   0.005197   0.252566
     6  C    0.100754   0.024255   0.036596   0.125629
     7  N    0.004040  -0.015817  -0.000344   0.002242
     8  C   -0.033122  -0.007399   0.008619  -0.092311
     9  C    0.015446   0.017767   0.000854   0.040132
    10  H   -0.000018  -0.000098   0.000000  -0.000002
    11  H    0.000000   0.000000  -0.000001   0.000768
    12  H   -0.000000   0.000001  -0.000000  -0.000001
    13  H    0.420322  -0.001053  -0.002361  -0.000083
    14  H   -0.001053   0.371335  -0.000082   0.000012
    15  H   -0.002361  -0.000082   0.426857  -0.002033
    16  H   -0.000083   0.000012  -0.002033   0.424767
 Mulliken charges:
               1
     1  C   -0.326195
     2  C   -0.465054
     3  C    0.835978
     4  C   -1.963785
     5  C    0.956419
     6  C    0.282875
     7  N    1.142088
     8  C   -6.955088
     9  C    4.302281
    10  H    0.441645
    11  H    0.291675
    12  H    0.359182
    13  H    0.263620
    14  H    0.315063
    15  H    0.251274
    16  H    0.268020
 Sum of Mulliken charges =  -0.00000
 Mulliken charges with hydrogens summed into heavy atoms:
               1
     1  C   -0.074921
     2  C   -0.201434
     3  C    1.151042
     4  C   -1.963785
     5  C    0.956419
     6  C    0.550895
     7  N    1.583733
     8  C   -6.663413
     9  C    4.661463
 Electronic spatial extent (au):  <R**2>=           1041.8776
 Charge=             -0.0000 electrons
 Dipole moment (field-independent basis, Debye):
    X=             -6.3308    Y=              6.6793    Z=             -0.0020  Tot=              9.2029
 Quadrupole moment (field-independent basis, Debye-Ang):
   XX=            -65.0670   YY=            -65.5745   ZZ=            -67.3319
   XY=             17.1491   XZ=             -0.0060   YZ=              0.0095
 Traceless Quadrupole moment (field-independent basis, Debye-Ang):
   XX=              0.9242   YY=              0.4166   ZZ=             -1.3408
   XY=             17.1491   XZ=             -0.0060   YZ=              0.0095
 Octapole moment (field-independent basis, Debye-Ang**2):
  XXX=           -124.5772  YYY=             82.2254  ZZZ=              0.0037  XYY=            -50.4271
  XXY=             55.7638  XXZ=             -0.0372  XZZ=            -21.6842  YZZ=             21.5895
  YYZ=             -0.0267  XYZ=              0.0090
 Hexadecapole moment (field-independent basis, Debye-Ang**3):
 XXXX=          -1383.1366 YYYY=           -723.2784 ZZZZ=           -151.2466 XXXY=            231.7482
 XXXZ=             -0.1504 YYYX=            155.3074 YYYZ=              0.0751 ZZZX=             -0.0009
 ZZZY=              0.0219 XXYY=           -364.1357 XXZZ=           -259.8391 YYZZ=           -160.0782
 XXYZ=              0.1536 YYXZ=             -0.0281 ZZXY=             43.4554
 N-N= 4.013368668897D+02 E-N=-1.641153516764D+03  KE= 3.608192197342D+02
 Calling FoFJK, ICntrl=  10005127 FMM=F ISym2X=0 I1Cent= 0 IOpClX= 0 NMat=1 NMatS=1 NMatT=0.
 ***** Axes restored to original set *****
 -------------------------------------------------------------------
 Center     Atomic                   Forces (Hartrees/Bohr)
 Number     Number              X              Y              Z
 -------------------------------------------------------------------
      1        6          -0.013899714   -0.011890010   -0.000064693
      2        6          -0.017463528    0.024110258    0.000072500
      3        6           0.031614458   -0.010789433   -0.000018780
      4        6          -0.010195411   -0.000322281   -0.000167354
      5        6           0.007612199   -0.002829228    0.000046216
      6        6           0.006196166    0.011503488    0.000063060
      7        7           0.025794463    0.057804988    0.000133215
      8        6          -0.041102885    0.027245118    0.000000677
      9        6          -0.003811969   -0.074374264   -0.000084015
     10        1           0.012675285   -0.024593784    0.000020933
     11        1           0.002032361    0.004639703    0.000001999
     12        1           0.004664168   -0.003185875    0.000004739
     13        1          -0.002373274   -0.001382283    0.000006366
     14        1           0.001072954   -0.000445237    0.000001159
     15        1          -0.002383341    0.001515170   -0.000012924
     16        1          -0.000431931    0.002993669   -0.000003097
 -------------------------------------------------------------------
 Cartesian Forces:  Max     0.074374264 RMS     0.017976376

 GradGradGradGradGradGradGradGradGradGradGradGradGradGradGradGradGradGrad
 Berny optimization.
 FormGI is forming the generalized inverse of G from B-inverse, IUseBI=4.
 Internal  Forces:  Max     0.047674242 RMS     0.009268109
 Search for a local minimum.
 Step number   1 out of a maximum of   94
 All quantities printed in internal units (Hartrees-Bohrs-Radians)
 Mixed Optimization -- RFO/linear search
 Second derivative matrix not updated -- first step.
 ITU=  0
     Eigenvalues ---    0.01853   0.01931   0.01986   0.02012   0.02070
     Eigenvalues ---    0.02113   0.02148   0.02153   0.02172   0.02209
     Eigenvalues ---    0.02233   0.02248   0.02338   0.16000   0.16000
     Eigenvalues ---    0.16000   0.16000   0.16000   0.16000   0.16000
     Eigenvalues ---    0.22000   0.22188   0.22662   0.24011   0.24651
     Eigenvalues ---    0.35712   0.35717   0.35783   0.35790   0.36420
     Eigenvalues ---    0.36427   0.37009   0.38432   0.42633   0.43465
     Eigenvalues ---    0.45769   0.46692   0.47162   0.47468   0.47567
     Eigenvalues ---    0.48125   0.50955
 RFO step:  Lambda=-1.49103072D-02 EMin= 1.85287394D-02
 Linear search not attempted -- first point.
 Iteration  1 RMS(Cart)=  0.02774626 RMS(Int)=  0.00014572
 Iteration  2 RMS(Cart)=  0.00017644 RMS(Int)=  0.00002240
 Iteration  3 RMS(Cart)=  0.00000004 RMS(Int)=  0.00002240
 Variable       Old X    -DE/DX   Delta X   Delta X   Delta X     New X
                                 (Linear)    (Quad)   (Total)
    R1        2.65547  -0.00523   0.00000  -0.01008  -0.01009   2.64539
    R2        2.61291   0.01218   0.00000   0.02533   0.02533   2.63824
    R3        2.04421   0.00282   0.00000   0.00756   0.00756   2.05177
    R4        2.61557   0.03030   0.00000   0.06093   0.06092   2.67649
    R5        2.04411   0.00275   0.00000   0.00737   0.00737   2.05148
    R6        2.63373  -0.00987   0.00000  -0.02155  -0.02155   2.61219
    R7        2.04534   0.00046   0.00000   0.00124   0.00124   2.04658
    R8        2.68058   0.00108   0.00000   0.00091   0.00097   2.68155
    R9        2.60126   0.01408   0.00000   0.02447   0.02451   2.62577
   R10        2.64771   0.00931   0.00000   0.01972   0.01972   2.66743
   R11        2.70839  -0.01341   0.00000  -0.02837  -0.02838   2.68001
   R12        2.04526   0.00300   0.00000   0.00807   0.00807   2.05334
   R13        2.60573  -0.04767   0.00000  -0.09554  -0.09557   2.51016
   R14        1.89542   0.02733   0.00000   0.05617   0.05617   1.95159
   R15        2.57870   0.04595   0.00000   0.08768   0.08762   2.66632
   R16        2.03419   0.00506   0.00000   0.01333   0.01333   2.04752
   R17        2.03430   0.00497   0.00000   0.01312   0.01312   2.04742
    A1        2.11420  -0.00553   0.00000  -0.01891  -0.01891   2.09529
    A2        2.07986   0.00298   0.00000   0.01067   0.01067   2.09053
    A3        2.08912   0.00255   0.00000   0.00824   0.00824   2.09737
    A4        2.11523   0.00347   0.00000   0.01749   0.01749   2.13272
    A5        2.08365  -0.00174   0.00000  -0.00877  -0.00878   2.07488
    A6        2.08430  -0.00173   0.00000  -0.00872  -0.00872   2.07558
    A7        2.05144  -0.00014   0.00000  -0.00248  -0.00247   2.04896
    A8        2.11267   0.00116   0.00000   0.00748   0.00747   2.12014
    A9        2.11908  -0.00102   0.00000  -0.00500  -0.00500   2.11408
   A10        2.13389  -0.00415   0.00000  -0.01638  -0.01641   2.11748
   A11        2.27895  -0.00217   0.00000  -0.00290  -0.00296   2.27599
   A12        1.87035   0.00632   0.00000   0.01928   0.01937   1.88971
   A13        2.07274   0.00909   0.00000   0.02992   0.02991   2.10266
   A14        1.86517  -0.00769   0.00000  -0.02372  -0.02369   1.84149
   A15        2.34527  -0.00141   0.00000  -0.00619  -0.00623   2.33904
   A16        2.07887  -0.00273   0.00000  -0.00963  -0.00961   2.06926
   A17        2.10306   0.00101   0.00000   0.00277   0.00276   2.10583
   A18        2.10125   0.00172   0.00000   0.00686   0.00685   2.10810
   A19        1.90743   0.00335   0.00000   0.00413   0.00415   1.91158
   A20        2.19023   0.00242   0.00000   0.02136   0.02135   2.21158
   A21        2.18553  -0.00577   0.00000  -0.02549  -0.02550   2.16003
   A22        1.86968  -0.00089   0.00000   0.00518   0.00512   1.87481
   A23        2.21717   0.00075   0.00000  -0.00083  -0.00080   2.21637
   A24        2.19633   0.00014   0.00000  -0.00436  -0.00432   2.19201
   A25        1.91215  -0.00110   0.00000  -0.00487  -0.00495   1.90720
   A26        2.10250  -0.00218   0.00000  -0.01313  -0.01309   2.08941
   A27        2.26854   0.00327   0.00000   0.01801   0.01804   2.28658
    D1       -0.00001  -0.00003   0.00000  -0.00081  -0.00082  -0.00083
    D2       -3.14156  -0.00002   0.00000  -0.00049  -0.00048   3.14114
    D3        3.14152  -0.00001   0.00000  -0.00042  -0.00042   3.14110
    D4       -0.00002  -0.00000   0.00000  -0.00009  -0.00009  -0.00011
    D5       -0.00003   0.00003   0.00000   0.00068   0.00068   0.00064
    D6        3.14153   0.00001   0.00000   0.00026   0.00026  -3.14140
    D7       -3.14157   0.00001   0.00000   0.00028   0.00028  -3.14129
    D8       -0.00001  -0.00001   0.00000  -0.00014  -0.00014  -0.00015
    D9        0.00003   0.00001   0.00000   0.00037   0.00037   0.00040
   D10       -3.14154   0.00000   0.00000   0.00006   0.00006  -3.14147
   D11        3.14158   0.00000   0.00000   0.00004   0.00004  -3.14157
   D12        0.00001  -0.00001   0.00000  -0.00027  -0.00027  -0.00026
   D13       -0.00001   0.00000   0.00000   0.00018   0.00019   0.00018
   D14       -3.14144  -0.00004   0.00000  -0.00097  -0.00095   3.14080
   D15        3.14156   0.00002   0.00000   0.00049   0.00049  -3.14113
   D16        0.00013  -0.00002   0.00000  -0.00066  -0.00065  -0.00051
   D17       -0.00004  -0.00001   0.00000  -0.00030  -0.00031  -0.00034
   D18       -3.14151  -0.00000   0.00000  -0.00007  -0.00008  -3.14159
   D19        3.14143   0.00002   0.00000   0.00061   0.00061  -3.14115
   D20       -0.00005   0.00003   0.00000   0.00084   0.00084   0.00078
   D21       -3.14124  -0.00000   0.00000  -0.00016  -0.00018  -3.14142
   D22       -0.00113   0.00002   0.00000   0.00055   0.00055  -0.00058
   D23        0.00049  -0.00004   0.00000  -0.00118  -0.00120  -0.00071
   D24        3.14060  -0.00002   0.00000  -0.00047  -0.00047   3.14013
   D25        0.00005  -0.00001   0.00000  -0.00013  -0.00013  -0.00008
   D26       -3.14151   0.00001   0.00000   0.00029   0.00029  -3.14122
   D27        3.14150  -0.00002   0.00000  -0.00045  -0.00044   3.14105
   D28       -0.00007  -0.00000   0.00000  -0.00002  -0.00002  -0.00009
   D29       -0.00041   0.00000   0.00000  -0.00017  -0.00018  -0.00059
   D30        3.14139  -0.00000   0.00000  -0.00024  -0.00024   3.14115
   D31        3.14132   0.00001   0.00000   0.00011   0.00010   3.14142
   D32       -0.00006   0.00000   0.00000   0.00004   0.00003  -0.00003
   D33       -0.00077   0.00004   0.00000   0.00111   0.00110   0.00033
   D34        3.14133   0.00002   0.00000   0.00050   0.00050  -3.14136
   D35       -3.14089   0.00001   0.00000   0.00036   0.00035  -3.14054
   D36        0.00121  -0.00001   0.00000  -0.00026  -0.00025   0.00096
   D37        0.00072  -0.00002   0.00000  -0.00054  -0.00055   0.00018
   D38       -3.14144   0.00001   0.00000   0.00013   0.00014  -3.14130
   D39       -3.14107  -0.00001   0.00000  -0.00047  -0.00048  -3.14156
   D40       -0.00005   0.00001   0.00000   0.00020   0.00020   0.00015
         Item               Value     Threshold  Converged?
 Maximum Force            0.047674     0.000450     NO 
 RMS     Force            0.009268     0.000300     NO 
 Maximum Displacement     0.110843     0.001800     NO 
 RMS     Displacement     0.027772     0.001200     NO 
 Predicted change in Energy=-7.696399D-03
 GradGradGradGradGradGradGradGradGradGradGradGradGradGradGradGradGradGrad

                          Input orientation:                          
 ---------------------------------------------------------------------
 Center     Atomic      Atomic             Coordinates (Angstroms)
 Number     Number       Type             X           Y           Z
 ---------------------------------------------------------------------
      1          6           0       -2.180070    0.703111   -0.000070
      2          6           0       -2.130177   -0.695879    0.000128
      3          6           0       -0.905495   -1.407334   -0.000282
      4          6           0        0.260988   -0.665648   -0.000398
      5          6           0        0.233077    0.753092    0.000100
      6          6           0       -0.997327    1.444869    0.000314
      7          7           0        1.588735   -1.075274    0.000070
      8          6           0        1.591912    1.159121   -0.000196
      9          6           0        2.382029   -0.009856   -0.000062
     10          1           0        1.934635   -2.048362    0.001088
     11          1           0        1.968745    2.174983   -0.000352
     12          1           0        3.457503   -0.141081    0.000038
     13          1           0       -3.061454   -1.253771    0.000250
     14          1           0       -0.880517   -2.490047   -0.000234
     15          1           0       -3.141070    1.208415   -0.000203
     16          1           0       -1.024613    2.531107    0.000345
 ---------------------------------------------------------------------
                    Distance matrix (angstroms):
                    1          2          3          4          5
     1  C    0.000000
     2  C    1.399879   0.000000
     3  C    2.465465   1.416339   0.000000
     4  C    2.798618   2.391356   1.382309   0.000000
     5  C    2.413664   2.772091   2.442086   1.419015   0.000000
     6  C    1.396097   2.422015   2.853681   2.457161   1.411542
     7  N    4.167318   3.738215   2.516237   1.389499   2.276122
     8  C    3.799446   4.158723   3.581024   2.258571   1.418200
     9  C    4.617474   4.564059   3.572220   2.220108   2.280370
    10  H    4.949889   4.283913   2.911573   2.170944   3.277720
    11  H    4.402167   5.004299   4.592847   3.314456   2.243728
    12  H    5.700428   5.615156   4.543033   3.239272   3.346112
    13  H    2.146212   1.085597   2.161421   3.374094   3.857647
    14  H    3.447476   2.186479   1.083001   2.152083   3.429000
    15  H    1.085750   2.155977   3.440921   3.884084   3.404730
    16  H    2.162557   3.411116   3.940242   3.445579   2.177871
                    6          7          8          9         10
     6  C    0.000000
     7  N    3.610933   0.000000
     8  C    2.604959   2.234398   0.000000
     9  C    3.679168   1.328319   1.410955   0.000000
    10  H    4.560600   1.032738   3.225742   2.087024   0.000000
    11  H    3.054611   3.272397   1.083502   2.223584   4.223483
    12  H    4.728715   2.089261   2.273973   1.083450   2.440666
    13  H    3.397541   4.653614   5.241743   5.583801   5.058882
    14  H    3.936649   2.845837   4.407872   4.098238   2.849591
    15  H    2.156744   5.252265   4.733238   5.655865   6.030703
    16  H    1.086580   4.453715   2.954411   4.249907   5.452402
                   11         12         13         14         15
    11  H    0.000000
    12  H    2.753280   0.000000
    13  H    6.087631   6.613235   0.000000
    14  H    5.466333   4.933159   2.506963   0.000000
    15  H    5.200429   6.735154   2.463473   4.334595   0.000000
    16  H    3.014468   5.218232   4.298142   5.023221   2.495777
                   16
    16  H    0.000000
 Stoichiometry    C8H7N
 Framework group  C1[X(C8H7N)]
 Deg. of freedom    42
 Full point group                 C1      NOp   1
 Largest Abelian subgroup         C1      NOp   1
 Largest concise Abelian subgroup C1      NOp   1
                         Standard orientation:                         
 ---------------------------------------------------------------------
 Center     Atomic      Atomic             Coordinates (Angstroms)
 Number     Number       Type             X           Y           Z
 ---------------------------------------------------------------------
      1          6           0       -2.197966    0.637200   -0.000048
      2          6           0       -2.107442   -0.759749    0.000150
      3          6           0       -0.862602   -1.435315   -0.000260
      4          6           0        0.281835   -0.660046   -0.000376
      5          6           0        0.212710    0.757284    0.000122
      6          6           0       -1.037277    1.413015    0.000336
      7          7           0        1.620925   -1.030917    0.000092
      8          6           0        1.559172    1.202627   -0.000174
      9          6           0        2.382925    0.057103   -0.000040
     10          1           0        1.994956   -1.993542    0.001111
     11          1           0        1.906326    2.229010   -0.000330
     12          1           0        3.461757   -0.042814    0.000060
     13          1           0       -3.022113   -1.344467    0.000273
     14          1           0       -0.806173   -2.516845   -0.000212
     15          1           0       -3.173243    1.114366   -0.000181
     16          1           0       -1.096116    2.498001    0.000368
 ---------------------------------------------------------------------
 Rotational constants (GHZ):           3.8987067           1.6319719           1.1504158
 Standard basis: 6-31+G(d) (6D, 7F)
 There are   185 symmetry adapted cartesian basis functions of A   symmetry.
 There are   185 symmetry adapted basis functions of A   symmetry.
   185 basis functions,   316 primitive gaussians,   185 cartesian basis functions
    31 alpha electrons       31 beta electrons
       nuclear repulsion energy       400.2963554584 Hartrees.
 NAtoms=   16 NActive=   16 NUniq=   16 SFac= 1.00D+00 NAtFMM=   60 NAOKFM=F Big=F
 Integral buffers will be    131072 words long.
 Regular integral format.
 Two-electron integral symmetry is turned on.
 One-electron integrals computed using PRISM.
 NBasis=   185 RedAO= T EigKep=  1.22D-06  NBF=   185
 NBsUse=   185 1.00D-06 EigRej= -1.00D+00 NBFU=   185
 Initial guess from the checkpoint file:  "FuncsSOGGA11X-V-2nd.chk"
 B after Tr=     0.000000   -0.000000   -0.000000
         Rot=    0.999898   -0.000014    0.000000   -0.014284 Ang=  -1.64 deg.
 ExpMin= 4.38D-02 ExpMax= 4.17D+03 ExpMxC= 6.27D+02 IAcc=3 IRadAn=         5 AccDes= 0.00D+00
 Harris functional with IExCor= 5143 and IRadAn=       5 diagonalized for initial guess.
 HarFok:  IExCor= 5143 AccDes= 0.00D+00 IRadAn=         5 IDoV= 1 UseB2=F ITyADJ=14
 ICtDFT=  3500011 ScaDFX=  1.000000  1.000000  1.000000  1.000000
 FoFCou: FMM=F IPFlag=           0 FMFlag=      100000 FMFlg1=           0
         NFxFlg=           0 DoJE=T BraDBF=F KetDBF=T FulRan=T
         wScrn=  0.000000 ICntrl=       500 IOpCl=  0 I1Cent=   200000004 NGrid=           0
         NMat0=    1 NMatS0=      1 NMatT0=    0 NMatD0=    1 NMtDS0=    0 NMtDT0=    0
 Petite list used in FoFCou.
 Keep R1 ints in memory in canonical form, NReq=152071459.
 Requested convergence on RMS density matrix=1.00D-08 within 128 cycles.
 Requested convergence on MAX density matrix=1.00D-06.
 Requested convergence on             energy=1.00D-06.
 No special actions if energy rises.
 SCF Done:  E(RSOGGA11X) =  -363.723307331     A.U. after   13 cycles
            NFock= 13  Conv=0.64D-08     -V/T= 2.0083
 DoSCS=F DFT=T ScalE2(SS,OS)=  1.000000  1.000000
 ExpMin= 4.38D-02 ExpMax= 4.17D+03 ExpMxC= 6.27D+02 IAcc=3 IRadAn=         5 AccDes= 0.00D+00
 HarFok:  IExCor=  205 AccDes= 0.00D+00 IRadAn=         5 IDoV=-2 UseB2=F ITyADJ=14
 ICtDFT= 12500011 ScaDFX=  1.000000  1.000000  1.000000  1.000000
 Range of M.O.s used for correlation:    10   185
 NBasis=   185 NAE=    31 NBE=    31 NFC=     9 NFV=     0
 NROrb=    176 NOA=    22 NOB=    22 NVA=   154 NVB=   154

 **** Warning!!: The largest alpha MO coefficient is  0.20439831D+03

 Orbital symmetries:
       Occupied  (A) (A) (A) (A) (A) (A) (A) (A) (A) (A) (A) (A)
                 (A) (A) (A) (A) (A) (A) (A) (A) (A) (A) (A) (A)
                 (A) (A) (A) (A) (A) (A) (A)
       Virtual   (A) (A) (A) (A) (A) (A) (A) (A) (A) (A) (A) (A)
                 (A) (A) (A) (A) (A) (A) (A) (A) (A) (A) (A) (A)
                 (A) (A) (A) (A) (A) (A) (A) (A) (A) (A) (A) (A)
                 (A) (A) (A) (A) (A) (A) (A) (A) (A) (A) (A) (A)
                 (A) (A) (A) (A) (A) (A) (A) (A) (A) (A) (A) (A)
                 (A) (A) (A) (A) (A) (A) (A) (A) (A) (A) (A) (A)
                 (A) (A) (A) (A) (A) (A) (A) (A) (A) (A) (A) (A)
                 (A) (A) (A) (A) (A) (A) (A) (A) (A) (A) (A) (A)
                 (A) (A) (A) (A) (A) (A) (A) (A) (A) (A) (A) (A)
                 (A) (A) (A) (A) (A) (A) (A) (A) (A) (A) (A) (A)
                 (A) (A) (A) (A) (A) (A) (A) (A) (A) (A) (A) (A)
                 (A) (A) (A) (A) (A) (A) (A) (A) (A) (A) (A) (A)
                 (A) (A) (A) (A) (A) (A) (A) (A) (A) (A)
 Generating guess from densities on rwf.
 Convergence on wavefunction:    0.000001000000000
 Iteration     1 Dimension    12 NMult     0 NNew     12
 CISAX will form    12 AO SS matrices at one time.
 New state      2 was old state      3
 New state      3 was old state      2
 New state      4 was old state      6
 New state      6 was old state      4
 Iteration     2 Dimension    24 NMult    12 NNew     12
 New state      2 was old state      3
 New state      3 was old state      2
 Iteration     3 Dimension    36 NMult    24 NNew     12
 Iteration     4 Dimension    48 NMult    36 NNew     12
 Iteration     5 Dimension    60 NMult    48 NNew     12
 Iteration     6 Dimension    72 NMult    60 NNew     12
 Iteration     7 Dimension    84 NMult    72 NNew     12
 Iteration     8 Dimension    96 NMult    84 NNew     12
 Iteration     9 Dimension   108 NMult    96 NNew     12
 Iteration    10 Dimension   118 NMult   108 NNew     10
 Iteration    11 Dimension   124 NMult   118 NNew      6
 Iteration    12 Dimension   126 NMult   124 NNew      2
 ***********************************************************************
 Excited states from <AA,BB:AA,BB> singles matrix:
 ***********************************************************************
 
 Ground to excited state transition densities written to RWF  633
 Ground to excited state transition electric dipole moments (Au):
       state          X           Y           Z        Dip. S.      Osc.
         1        -0.9634      0.6221     -0.0009      1.3152      0.1525
         2         0.0087     -0.0053     -0.1333      0.0179      0.0021
         3        -0.0286     -0.1967     -0.0001      0.0395      0.0050
         4        -0.0003     -0.0002     -0.0482      0.0023      0.0003
         5        -0.0004     -0.0002      0.1614      0.0261      0.0036
         6        -0.0009      0.0003     -0.0915      0.0084      0.0012
 Ground to excited state transition velocity dipole moments (Au):
       state          X           Y           Z        Dip. S.      Osc.
         1         0.1562     -0.1184      0.0001      0.0384      0.1473
         2        -0.0014      0.0010      0.0154      0.0002      0.0009
         3         0.0041      0.0397      0.0000      0.0016      0.0057
         4         0.0001      0.0000      0.0113      0.0001      0.0004
         5         0.0001      0.0001     -0.0295      0.0009      0.0028
         6         0.0002     -0.0001      0.0228      0.0005      0.0016
 Ground to excited state transition magnetic dipole moments (Au):
       state          X           Y           Z
         1         0.0015     -0.0010      0.1691
         2         0.1606     -0.1025     -0.0010
         3        -0.0004     -0.0001      0.0920
         4         0.2401     -0.2733      0.0001
         5         0.1638      0.2790      0.0001
         6        -0.0319     -0.1483      0.0001
 Ground to excited state transition velocity quadrupole moments (Au):
       state          XX          YY          ZZ          XY          XZ          YZ
         1         0.2243     -0.1659      0.0240      0.0557      0.0007      0.0005
         2        -0.0020      0.0016     -0.0002     -0.0004      0.0716      0.0618
         3        -0.0425     -0.0486      0.0190      0.0259     -0.0000     -0.0002
         4         0.0001     -0.0002      0.0000      0.0001      0.2879      0.2123
         5        -0.0001     -0.0002      0.0001     -0.0001     -0.2342      0.0537
         6        -0.0002     -0.0002      0.0001      0.0003      0.0736     -0.0769
 <0|del|b> * <b|rxdel|0> + <0|del|b> * <b|delr+rdel|0>
 Rotatory Strengths (R) in cgs (10**-40 erg-esu-cm/Gauss)
       state          XX          YY          ZZ    R(velocity)    E-M Angle
         1         0.4272      0.6503      0.3884      0.4886       89.38
         2        -0.4057     -0.6484     -0.3444     -0.4661       96.72
         3        -0.0013     -0.0021     -0.0141     -0.0058       90.00
         4        -0.0239      0.0495      0.0038      0.0098       90.00
         5         0.0545      0.0229      0.0220      0.0331       90.00
         6         0.0376     -0.0470      0.0242      0.0049       90.00
 1/2[<0|r|b>*<b|rxdel|0> + (<0|rxdel|b>*<b|r|0>)*]
 Rotatory Strengths (R) in cgs (10**-40 erg-esu-cm/Gauss)
       state          XX          YY          ZZ     R(length)
         1         1.0178      0.4205      0.1097      0.5160
         2        -0.9829     -0.3820     -0.0931     -0.4860
         3        -0.0081     -0.0174      0.0037     -0.0073
         4         0.0506     -0.0343      0.0029      0.0064
         5         0.0475      0.0422     -0.0159      0.0246
         6        -0.0211      0.0286      0.0048      0.0041
  1/2[<0|del|b>*<b|r|0> + (<0|r|b>*<b|del|0>)*] (Au)
       state          X           Y           Z        Dip. S.   Osc.(frdel)
         1        -0.1505     -0.0736     -0.0000      0.2242      0.1494
         2        -0.0000     -0.0000     -0.0021      0.0021      0.0014
         3        -0.0001     -0.0078     -0.0000      0.0079      0.0053
         4        -0.0000     -0.0000     -0.0005      0.0005      0.0004
         5        -0.0000     -0.0000     -0.0048      0.0048      0.0032
         6        -0.0000     -0.0000     -0.0021      0.0021      0.0014

 Excitation energies and oscillator strengths:
 
 Excited State   1:      Singlet-A      4.7316 eV  262.03 nm  f=0.1525  <S**2>=0.000
      30 -> 36         0.14010
      31 -> 32         0.68257
 
 Excited State   2:      Singlet-A      4.7574 eV  260.62 nm  f=0.0021  <S**2>=0.000
      31 -> 33         0.69928
 This state for optimization and/or second-order correction.
 Total Energy, E(TD-HF/TD-DFT) =  -363.548477553    
 Copying the excited state density for this state as the 1-particle RhoCI density.
 
 Excited State   3:      Singlet-A      5.1273 eV  241.81 nm  f=0.0050  <S**2>=0.000
      30 -> 32         0.52927
      31 -> 36        -0.44722
 
 Excited State   4:      Singlet-A      5.4976 eV  225.52 nm  f=0.0003  <S**2>=0.000
      31 -> 34         0.68555
 
 Excited State   5:      Singlet-A      5.5966 eV  221.54 nm  f=0.0036  <S**2>=0.000
      31 -> 35         0.67716
      31 -> 37         0.12692
 
 Excited State   6:      Singlet-A      5.7679 eV  214.96 nm  f=0.0012  <S**2>=0.000
      30 -> 33         0.68734
 SavETr:  write IOETrn=   770 NScale= 10 NData=  16 NLR=1 NState=    6 LETran=     118.
          IDoAtm=1111111111111111
          Differentiating once with respect to electric field.
                with respect to dipole field.
          Differentiating once with respect to nuclear coordinates.
 Keep R1 ints in memory in canonical form, NReq=152083851.
          There are     1 degrees of freedom in the 1st order CPHF.  IDoFFX=0 NUNeed=     1.
 LinEq1:  Iter=  0 NonCon=     1 RMS=1.17D-02 Max=2.14D-01 NDo=     1
 AX will form     1 AO Fock derivatives at one time.
 LinEq1:  Iter=  1 NonCon=     1 RMS=5.78D-03 Max=1.20D-01 NDo=     1
 LinEq1:  Iter=  2 NonCon=     1 RMS=3.57D-03 Max=8.36D-02 NDo=     1
 LinEq1:  Iter=  3 NonCon=     1 RMS=1.28D-03 Max=3.15D-02 NDo=     1
 LinEq1:  Iter=  4 NonCon=     1 RMS=6.90D-04 Max=1.66D-02 NDo=     1
 LinEq1:  Iter=  5 NonCon=     1 RMS=3.11D-04 Max=7.41D-03 NDo=     1
 LinEq1:  Iter=  6 NonCon=     1 RMS=2.08D-04 Max=5.41D-03 NDo=     1
 LinEq1:  Iter=  7 NonCon=     1 RMS=5.48D-05 Max=1.06D-03 NDo=     1
 LinEq1:  Iter=  8 NonCon=     1 RMS=2.64D-05 Max=5.31D-04 NDo=     1
 LinEq1:  Iter=  9 NonCon=     1 RMS=1.16D-05 Max=2.13D-04 NDo=     1
 LinEq1:  Iter= 10 NonCon=     1 RMS=5.83D-06 Max=1.98D-04 NDo=     1
 LinEq1:  Iter= 11 NonCon=     1 RMS=2.74D-06 Max=4.81D-05 NDo=     1
 LinEq1:  Iter= 12 NonCon=     1 RMS=1.07D-06 Max=1.74D-05 NDo=     1
 LinEq1:  Iter= 13 NonCon=     1 RMS=5.21D-07 Max=8.18D-06 NDo=     1
 LinEq1:  Iter= 14 NonCon=     1 RMS=1.52D-07 Max=2.91D-06 NDo=     1
 LinEq1:  Iter= 15 NonCon=     1 RMS=5.07D-08 Max=8.69D-07 NDo=     1
 LinEq1:  Iter= 16 NonCon=     1 RMS=2.24D-08 Max=4.29D-07 NDo=     1
 LinEq1:  Iter= 17 NonCon=     1 RMS=5.62D-09 Max=1.67D-07 NDo=     1
 LinEq1:  Iter= 18 NonCon=     1 RMS=1.27D-09 Max=2.97D-08 NDo=     1
 LinEq1:  Iter= 19 NonCon=     1 RMS=3.22D-10 Max=5.93D-09 NDo=     1
 LinEq1:  Iter= 20 NonCon=     1 RMS=1.17D-10 Max=1.66D-09 NDo=     1
 LinEq1:  Iter= 21 NonCon=     0 RMS=4.49D-11 Max=5.69D-10 NDo=     1
 Linear equations converged to 1.000D-10 1.000D-09 after    21 iterations.
 End of Minotr F.D. properties file   721 does not exist.
 End of Minotr F.D. properties file   722 does not exist.
 End of Minotr F.D. properties file   788 does not exist.
 Calling FoFJK, ICntrl=  10005127 FMM=F ISym2X=0 I1Cent= 0 IOpClX= 0 NMat=1 NMatS=1 NMatT=0.
 ***** Axes restored to original set *****
 -------------------------------------------------------------------
 Center     Atomic                   Forces (Hartrees/Bohr)
 Number     Number              X              Y              Z
 -------------------------------------------------------------------
      1        6           0.003527850    0.001187816    0.000058956
      2        6           0.000658479    0.000008113   -0.000058423
      3        6           0.003770605   -0.000608035   -0.000045334
      4        6          -0.012484760   -0.007337765    0.000181856
      5        6           0.011410945    0.001325438   -0.000104171
      6        6          -0.003169252    0.001626017   -0.000116568
      7        7           0.005201527    0.017480452    0.000050168
      8        6          -0.012191593    0.014775572    0.000069934
      9        6          -0.003034522   -0.020037657   -0.000055774
     10        1           0.003481882   -0.007244695   -0.000071378
     11        1           0.001101042   -0.000496790    0.000007161
     12        1           0.001598608    0.000777809    0.000004019
     13        1           0.000503843   -0.001057985    0.000001435
     14        1          -0.001498407    0.000125473    0.000029175
     15        1           0.000488600   -0.000011917    0.000015749
     16        1           0.000635154   -0.000511845    0.000033195
 -------------------------------------------------------------------
 Cartesian Forces:  Max     0.020037657 RMS     0.005714357

 GradGradGradGradGradGradGradGradGradGradGradGradGradGradGradGradGradGrad
 Berny optimization.
 Using GEDIIS/GDIIS optimizer.
 FormGI is forming the generalized inverse of G from B-inverse, IUseBI=4.
 Internal  Forces:  Max     0.011132421 RMS     0.002438082
 Search for a local minimum.
 Step number   2 out of a maximum of   94
 All quantities printed in internal units (Hartrees-Bohrs-Radians)
 Mixed Optimization -- RFO/linear search
 Update second derivatives using D2CorX and points    1    2
 DE= -8.63D-03 DEPred=-7.70D-03 R= 1.12D+00
 TightC=F SS=  1.41D+00  RLast= 1.80D-01 DXNew= 5.0454D-01 5.3907D-01
 Trust test= 1.12D+00 RLast= 1.80D-01 DXMaxT set to 5.05D-01
 ITU=  1  0
 Use linear search instead of GDIIS.
     Eigenvalues ---    0.01855   0.01932   0.01987   0.02011   0.02069
     Eigenvalues ---    0.02113   0.02148   0.02158   0.02172   0.02210
     Eigenvalues ---    0.02233   0.02248   0.02343   0.15787   0.16000
     Eigenvalues ---    0.16000   0.16000   0.16000   0.16000   0.16201
     Eigenvalues ---    0.21910   0.22201   0.22436   0.24229   0.25106
     Eigenvalues ---    0.35458   0.35713   0.35741   0.35819   0.35829
     Eigenvalues ---    0.36457   0.36783   0.37350   0.40625   0.42703
     Eigenvalues ---    0.43987   0.45812   0.46870   0.47531   0.47649
     Eigenvalues ---    0.49135   0.52264
 RFO step:  Lambda=-1.34987076D-03 EMin= 1.85530967D-02
 Quartic linear search produced a step of  0.16850.
 Iteration  1 RMS(Cart)=  0.00902507 RMS(Int)=  0.00005469
 Iteration  2 RMS(Cart)=  0.00006100 RMS(Int)=  0.00002231
 Iteration  3 RMS(Cart)=  0.00000000 RMS(Int)=  0.00002231
 Variable       Old X    -DE/DX   Delta X   Delta X   Delta X     New X
                                 (Linear)    (Quad)   (Total)
    R1        2.64539   0.00160  -0.00170   0.00459   0.00288   2.64827
    R2        2.63824  -0.00244   0.00427  -0.00814  -0.00388   2.63436
    R3        2.05177  -0.00044   0.00127  -0.00210  -0.00083   2.05094
    R4        2.67649  -0.00144   0.01027  -0.00907   0.00119   2.67768
    R5        2.05148   0.00011   0.00124  -0.00030   0.00094   2.05242
    R6        2.61219  -0.00367  -0.00363  -0.00717  -0.01080   2.60139
    R7        2.04658  -0.00016   0.00021  -0.00063  -0.00042   2.04615
    R8        2.68155   0.00509   0.00016   0.01472   0.01496   2.69651
    R9        2.62577   0.00299   0.00413   0.00415   0.00829   2.63407
   R10        2.66743  -0.00023   0.00332  -0.00196   0.00137   2.66880
   R11        2.68001  -0.00637  -0.00478  -0.01462  -0.01937   2.66064
   R12        2.05334  -0.00053   0.00136  -0.00245  -0.00109   2.05225
   R13        2.51016  -0.00950  -0.01610  -0.01506  -0.03122   2.47894
   R14        1.95159   0.00799   0.00946   0.01488   0.02434   1.97593
   R15        2.66632   0.01113   0.01476   0.01760   0.03232   2.69863
   R16        2.04752  -0.00008   0.00225  -0.00146   0.00079   2.04831
   R17        2.04742   0.00149   0.00221   0.00359   0.00581   2.05323
    A1        2.09529   0.00172  -0.00319   0.01015   0.00697   2.10226
    A2        2.09053  -0.00064   0.00180  -0.00360  -0.00180   2.08873
    A3        2.09737  -0.00108   0.00139  -0.00655  -0.00516   2.09220
    A4        2.13272   0.00078   0.00295   0.00114   0.00407   2.13680
    A5        2.07488   0.00081  -0.00148   0.00810   0.00663   2.08151
    A6        2.07558  -0.00159  -0.00147  -0.00924  -0.01070   2.06488
    A7        2.04896  -0.00214  -0.00042  -0.01115  -0.01156   2.03740
    A8        2.12014  -0.00046   0.00126  -0.00616  -0.00491   2.11523
    A9        2.11408   0.00260  -0.00084   0.01731   0.01647   2.13055
   A10        2.11748   0.00254  -0.00276   0.01488   0.01211   2.12959
   A11        2.27599   0.00150  -0.00050   0.00674   0.00620   2.28219
   A12        1.88971  -0.00404   0.00326  -0.02163  -0.01831   1.87141
   A13        2.10266  -0.00154   0.00504  -0.00970  -0.00466   2.09799
   A14        1.84149   0.00406  -0.00399   0.02311   0.01919   1.86068
   A15        2.33904  -0.00252  -0.00105  -0.01342  -0.01452   2.32452
   A16        2.06926  -0.00135  -0.00162  -0.00532  -0.00692   2.06234
   A17        2.10583   0.00131   0.00047   0.00750   0.00795   2.11378
   A18        2.10810   0.00004   0.00115  -0.00218  -0.00104   2.10706
   A19        1.91158   0.00224   0.00070   0.00860   0.00927   1.92084
   A20        2.21158  -0.00029   0.00360  -0.00076   0.00286   2.21444
   A21        2.16003  -0.00196  -0.00430  -0.00785  -0.01213   2.14790
   A22        1.87481  -0.00416   0.00086  -0.01964  -0.01879   1.85601
   A23        2.21637   0.00331  -0.00013   0.01856   0.01843   2.23481
   A24        2.19201   0.00085  -0.00073   0.00108   0.00036   2.19236
   A25        1.90720   0.00189  -0.00083   0.00955   0.00864   1.91583
   A26        2.08941   0.00004  -0.00221   0.00404   0.00188   2.09129
   A27        2.28658  -0.00194   0.00304  -0.01360  -0.01052   2.27607
    D1       -0.00083   0.00002  -0.00014   0.00151   0.00138   0.00055
    D2        3.14114   0.00001  -0.00008   0.00060   0.00053  -3.14152
    D3        3.14110   0.00002  -0.00007   0.00113   0.00106  -3.14102
    D4       -0.00011   0.00000  -0.00001   0.00022   0.00021   0.00010
    D5        0.00064  -0.00003   0.00011  -0.00149  -0.00138  -0.00074
    D6       -3.14140   0.00001   0.00004   0.00042   0.00047  -3.14093
    D7       -3.14129  -0.00002   0.00005  -0.00111  -0.00106   3.14083
    D8       -0.00015   0.00001  -0.00002   0.00081   0.00079   0.00064
    D9        0.00040  -0.00001   0.00006  -0.00034  -0.00027   0.00014
   D10       -3.14147  -0.00002   0.00001  -0.00071  -0.00069   3.14103
   D11       -3.14157   0.00001   0.00001   0.00058   0.00058  -3.14099
   D12       -0.00026   0.00000  -0.00005   0.00020   0.00016  -0.00010
   D13        0.00018  -0.00001   0.00003  -0.00082  -0.00079  -0.00061
   D14        3.14080   0.00003  -0.00016   0.00209   0.00195  -3.14044
   D15       -3.14113  -0.00000   0.00008  -0.00044  -0.00036  -3.14149
   D16       -0.00051   0.00004  -0.00011   0.00246   0.00237   0.00186
   D17       -0.00034   0.00001  -0.00005   0.00082   0.00076   0.00042
   D18       -3.14159  -0.00000  -0.00001  -0.00018  -0.00021   3.14139
   D19       -3.14115  -0.00002   0.00010  -0.00153  -0.00142   3.14062
   D20        0.00078  -0.00004   0.00014  -0.00252  -0.00239  -0.00160
   D21       -3.14142  -0.00002  -0.00003  -0.00095  -0.00099   3.14078
   D22       -0.00058   0.00001   0.00009   0.00054   0.00064   0.00006
   D23       -0.00071   0.00002  -0.00020   0.00168   0.00146   0.00075
   D24        3.14013   0.00006  -0.00008   0.00317   0.00308  -3.13997
   D25       -0.00008   0.00001  -0.00002   0.00036   0.00035   0.00027
   D26       -3.14122  -0.00003   0.00005  -0.00155  -0.00150   3.14047
   D27        3.14105   0.00003  -0.00007   0.00171   0.00164  -3.14050
   D28       -0.00009  -0.00001  -0.00000  -0.00021  -0.00021  -0.00030
   D29       -0.00059   0.00004  -0.00003   0.00244   0.00240   0.00181
   D30        3.14115   0.00002  -0.00004   0.00100   0.00095  -3.14109
   D31        3.14142   0.00002   0.00002   0.00124   0.00125  -3.14052
   D32       -0.00003  -0.00000   0.00001  -0.00020  -0.00021  -0.00024
   D33        0.00033   0.00001   0.00019  -0.00010   0.00009   0.00041
   D34       -3.14136  -0.00000   0.00008  -0.00030  -0.00022  -3.14158
   D35       -3.14054  -0.00003   0.00006  -0.00153  -0.00147   3.14117
   D36        0.00096  -0.00003  -0.00004  -0.00173  -0.00177  -0.00082
   D37        0.00018  -0.00003  -0.00009  -0.00151  -0.00160  -0.00142
   D38       -3.14130  -0.00002   0.00002  -0.00128  -0.00125   3.14063
   D39       -3.14156  -0.00000  -0.00008  -0.00010  -0.00019   3.14144
   D40        0.00015   0.00000   0.00003   0.00013   0.00015   0.00031
         Item               Value     Threshold  Converged?
 Maximum Force            0.011132     0.000450     NO 
 RMS     Force            0.002438     0.000300     NO 
 Maximum Displacement     0.032499     0.001800     NO 
 RMS     Displacement     0.009036     0.001200     NO 
 Predicted change in Energy=-8.758522D-04
 GradGradGradGradGradGradGradGradGradGradGradGradGradGradGradGradGradGrad

                          Input orientation:                          
 ---------------------------------------------------------------------
 Center     Atomic      Atomic             Coordinates (Angstroms)
 Number     Number       Type             X           Y           Z
 ---------------------------------------------------------------------
      1          6           0       -2.171607    0.704661   -0.000399
      2          6           0       -2.126156   -0.696005   -0.000130
      3          6           0       -0.906147   -1.416680    0.000376
      4          6           0        0.252341   -0.673095    0.000763
      5          6           0        0.235445    0.753736   -0.000075
      6          6           0       -0.993394    1.449760   -0.000833
      7          7           0        1.588514   -1.070038    0.000076
      8          6           0        1.579791    1.172130    0.000910
      9          6           0        2.370671   -0.016925   -0.000169
     10          1           0        1.951833   -2.050506   -0.000946
     11          1           0        1.963948    2.185690    0.001107
     12          1           0        3.449595   -0.145193   -0.000711
     13          1           0       -3.055946   -1.257336    0.000136
     14          1           0       -0.894372   -2.499393    0.001101
     15          1           0       -3.131506    1.211113   -0.000245
[...]
 ! D9    D(1,2,3,4)             -0.0091         -DE/DX =    0.0                 !
 ! D10   D(1,2,3,14)           179.9535         -DE/DX =    0.0                 !
 ! D11   D(13,2,3,4)           179.9927         -DE/DX =    0.0                 !
 ! D12   D(13,2,3,14)           -0.0446         -DE/DX =    0.0                 !
 ! D13   D(2,3,4,5)              0.0088         -DE/DX =    0.0                 !
 ! D14   D(2,3,4,7)           -179.9879         -DE/DX =    0.0                 !
 ! D15   D(14,3,4,5)          -179.9532         -DE/DX =    0.0                 !
 ! D16   D(14,3,4,7)             0.0501         -DE/DX =    0.0                 !
 ! D17   D(3,4,5,6)             -0.0036         -DE/DX =    0.0                 !
 ! D18   D(3,4,5,8)           -179.9899         -DE/DX =    0.0                 !
 ! D19   D(7,4,5,6)            179.9937         -DE/DX =    0.0                 !
 ! D20   D(7,4,5,8)              0.0074         -DE/DX =    0.0                 !
 ! D21   D(3,4,7,9)            179.9759         -DE/DX =    0.0                 !
 ! D22   D(3,4,7,10)             0.0361         -DE/DX =    0.0                 !
 ! D23   D(5,4,7,9)             -0.0213         -DE/DX =    0.0                 !
 ! D24   D(5,4,7,10)          -179.961          -DE/DX =    0.0                 !
 ! D25   D(4,5,6,1)             -0.0019         -DE/DX =    0.0                 !
 ! D26   D(4,5,6,16)          -179.9998         -DE/DX =    0.0                 !
 ! D27   D(8,5,6,1)            179.9802         -DE/DX =    0.0                 !
 ! D28   D(8,5,6,16)            -0.0178         -DE/DX =    0.0                 !
 ! D29   D(4,5,8,9)              0.0076         -DE/DX =    0.0                 !
 ! D30   D(4,5,8,11)           179.9931         -DE/DX =    0.0                 !
 ! D31   D(6,5,8,9)           -179.9761         -DE/DX =    0.0                 !
 ! D32   D(6,5,8,11)             0.0094         -DE/DX =    0.0                 !
 ! D33   D(4,7,9,8)              0.0257         -DE/DX =    0.0                 !
 ! D34   D(4,7,9,12)           179.9849         -DE/DX =    0.0                 !
 ! D35   D(10,7,9,8)           179.9651         -DE/DX =    0.0                 !
 ! D36   D(10,7,9,12)           -0.0758         -DE/DX =    0.0                 !
 ! D37   D(5,8,9,7)             -0.0203         -DE/DX =    0.0                 !
 ! D38   D(5,8,9,12)          -179.9748         -DE/DX =    0.0                 !
 ! D39   D(11,8,9,7)          -180.0064         -DE/DX =    0.0                 !
 ! D40   D(11,8,9,12)            0.0392         -DE/DX =    0.0                 !
 --------------------------------------------------------------------------------
 GradGradGradGradGradGradGradGradGradGradGradGradGradGradGradGradGradGrad

                          Input orientation:                          
 ---------------------------------------------------------------------
 Center     Atomic      Atomic             Coordinates (Angstroms)
 Number     Number       Type             X           Y           Z
 ---------------------------------------------------------------------
      1          6           0       -2.184634    0.686939   -0.000618
      2          6           0       -2.153616   -0.696876   -0.000365
      3          6           0       -0.908134   -1.443677    0.000272
      4          6           0        0.247796   -0.659187    0.000403
      5          6           0        0.247471    0.751757    0.000144
      6          6           0       -0.993117    1.468746   -0.000361
      7          7           0        1.590285   -1.063300    0.000735
      8          6           0        1.601773    1.161939    0.000153
      9          6           0        2.424947   -0.010476    0.000238
     10          1           0        1.888218   -2.028347    0.000399
     11          1           0        1.982037    2.175719   -0.000113
     12          1           0        3.499323   -0.120635    0.000629
     13          1           0       -3.087404   -1.252798   -0.000617
     14          1           0       -0.892037   -2.528239    0.001215
     15          1           0       -3.146699    1.192577   -0.001007
     16          1           0       -1.019307    2.553305   -0.000571
 ---------------------------------------------------------------------
                    Distance matrix (angstroms):
                    1          2          3          4          5
     1  C    0.000000
     2  C    1.384162   0.000000
     3  C    2.483743   1.452219   0.000000
     4  C    2.780067   2.401709   1.396997   0.000000
     5  C    2.432969   2.804240   2.480999   1.410944   0.000000
     6  C    1.425109   2.456965   2.913663   2.463324   1.432876
     7  N    4.160931   3.761790   2.527208   1.401992   2.257782
     8  C    3.816085   4.190244   3.617854   2.269307   1.415056
     9  C    4.662041   4.629729   3.628153   2.271742   2.307033
    10  H    4.894988   4.255496   2.856820   2.136723   3.228162
    11  H    4.424660   5.035418   4.631751   3.323294   2.244190
    12  H    5.741040   5.682233   4.601751   3.295825   3.366839
    13  H    2.139527   1.086742   2.187614   3.387615   3.890969
    14  H    3.465282   2.223843   1.084682   2.189196   3.472298
    15  H    1.086849   2.134537   3.458470   3.866734   3.422677
    16  H    2.200297   3.442431   3.998528   3.453354   2.202340
                    6          7          8          9         10
     6  C    0.000000
     7  N    3.617351   0.000000
     8  C    2.612965   2.225269   0.000000
     9  C    3.724415   1.343540   1.432541   0.000000
    10  H    4.531198   1.009990   3.203120   2.088032   0.000000
    11  H    3.057999   3.262624   1.082751   2.230609   4.205112
    12  H    4.765307   2.129095   2.290347   1.080008   2.497002
    13  H    3.434071   4.681526   5.274404   5.650609   5.035702
    14  H    3.998264   2.882354   4.453819   4.164314   2.824838
    15  H    2.171217   5.246713   4.748572   5.700051   5.977018
    16  H    1.084875   4.459798   2.967484   4.293700   5.426346
                   11         12         13         14         15
    11  H    0.000000
    12  H    2.752344   0.000000
    13  H    6.119965   6.683320   0.000000
    14  H    5.512488   5.008053   2.538974   0.000000
    15  H    5.222117   6.774521   2.446094   4.350630   0.000000
    16  H    3.025002   5.250521   4.331679   5.083138   2.525347
                   16
    16  H    0.000000
 Stoichiometry    C8H7N
 Framework group  C1[X(C8H7N)]
 Deg. of freedom    42
 Full point group                 C1      NOp   1
 Largest Abelian subgroup         C1      NOp   1
 Largest concise Abelian subgroup C1      NOp   1
                         Standard orientation:                         
 ---------------------------------------------------------------------
 Center     Atomic      Atomic             Coordinates (Angstroms)
 Number     Number       Type             X           Y           Z
 ---------------------------------------------------------------------
      1          6           0       -2.197122    0.646895   -0.000109
      2          6           0       -2.141877   -0.736165   -0.000175
      3          6           0       -0.883508   -1.461042    0.000051
      4          6           0        0.258508   -0.656429    0.000137
      5          6           0        0.233475    0.754292    0.000198
      6          6           0       -1.019479    1.449447    0.000095
      7          7           0        1.607867   -1.036972    0.000117
      8          6           0        1.580387    1.188127    0.000037
      9          6           0        2.423965    0.030306   -0.000302
     10          1           0        1.922654   -1.996654   -0.000495
     11          1           0        1.942840    2.208410   -0.000072
     12          1           0        3.500105   -0.061022   -0.000144
     13          1           0       -3.065787   -1.308353   -0.000373
     14          1           0       -0.848421   -2.545156    0.000744
     15          1           0       -3.167894    1.135609   -0.000197
     16          1           0       -1.064656    2.533381    0.000136
 ---------------------------------------------------------------------
 Rotational constants (GHZ):           3.8485568           1.6080506           1.1341615

 **********************************************************************

            Population analysis using the CI Density.

 **********************************************************************

 Orbital symmetries:
       Occupied  (A) (A) (A) (A) (A) (A) (A) (A) (A) (A) (A) (A)
                 (A) (A) (A) (A) (A) (A) (A) (A) (A) (A) (A) (A)
                 (A) (A) (A) (A) (A) (A) (A)
       Virtual   (A) (A) (A) (A) (A) (A) (A) (A) (A) (A) (A) (A)
                 (A) (A) (A) (A) (A) (A) (A) (A) (A) (A) (A) (A)
                 (A) (A) (A) (A) (A) (A) (A) (A) (A) (A) (A) (A)
                 (A) (A) (A) (A) (A) (A) (A) (A) (A) (A) (A) (A)
                 (A) (A) (A) (A) (A) (A) (A) (A) (A) (A) (A) (A)
                 (A) (A) (A) (A) (A) (A) (A) (A) (A) (A) (A) (A)
                 (A) (A) (A) (A) (A) (A) (A) (A) (A) (A) (A) (A)
                 (A) (A) (A) (A) (A) (A) (A) (A) (A) (A) (A) (A)
                 (A) (A) (A) (A) (A) (A) (A) (A) (A) (A) (A) (A)
                 (A) (A) (A) (A) (A) (A) (A) (A) (A) (A) (A) (A)
                 (A) (A) (A) (A) (A) (A) (A) (A) (A) (A) (A) (A)
                 (A) (A) (A) (A) (A) (A) (A) (A) (A) (A) (A) (A)
                 (A) (A) (A) (A) (A) (A) (A) (A) (A) (A)
 The electronic state is 1-A.
 Alpha  occ. eigenvalues --  -14.71341 -10.50104 -10.49414 -10.47081 -10.46446
 Alpha  occ. eigenvalues --  -10.46087 -10.45938 -10.45581 -10.44847  -1.09112
 Alpha  occ. eigenvalues --   -0.93065  -0.86624  -0.82763  -0.79146  -0.70214
 Alpha  occ. eigenvalues --   -0.66688  -0.64632  -0.60324  -0.54460  -0.53030
 Alpha  occ. eigenvalues --   -0.49236  -0.48631  -0.47771  -0.45536  -0.44417
 Alpha  occ. eigenvalues --   -0.39763  -0.39320  -0.37975  -0.31333  -0.26618
 Alpha  occ. eigenvalues --   -0.22599
 Alpha virt. eigenvalues --   -0.00822   0.00424   0.02477   0.03042   0.04207
 Alpha virt. eigenvalues --    0.04325   0.04545   0.06139   0.06659   0.07068
 Alpha virt. eigenvalues --    0.07153   0.07574   0.09660   0.09969   0.11168
 Alpha virt. eigenvalues --    0.11301   0.12350   0.13740   0.14646   0.15052
 Alpha virt. eigenvalues --    0.16255   0.16383   0.17578   0.17896   0.18774
 Alpha virt. eigenvalues --    0.19432   0.20094   0.20206   0.20973   0.21371
 Alpha virt. eigenvalues --    0.22229   0.22713   0.23234   0.23647   0.24840
 Alpha virt. eigenvalues --    0.24978   0.25260   0.25936   0.26678   0.27554
 Alpha virt. eigenvalues --    0.28508   0.28738   0.30077   0.31230   0.32013
 Alpha virt. eigenvalues --    0.33043   0.33884   0.35403   0.37244   0.38516
 Alpha virt. eigenvalues --    0.40106   0.42062   0.46242   0.48737   0.55120
 Alpha virt. eigenvalues --    0.61971   0.65402   0.71479   0.72619   0.74925
 Alpha virt. eigenvalues --    0.76771   0.77543   0.77881   0.78554   0.79074
 Alpha virt. eigenvalues --    0.80828   0.81858   0.82830   0.84467   0.84546
 Alpha virt. eigenvalues --    0.86182   0.90671   0.94854   0.95821   0.97056
 Alpha virt. eigenvalues --    1.00230   1.00970   1.01744   1.02114   1.04785
 Alpha virt. eigenvalues --    1.05760   1.08628   1.10635   1.12106   1.13715
 Alpha virt. eigenvalues --    1.16143   1.17546   1.21890   1.22332   1.25340
 Alpha virt. eigenvalues --    1.27231   1.27903   1.29489   1.36228   1.37016
 Alpha virt. eigenvalues --    1.39028   1.40751   1.44945   1.45311   1.49058
 Alpha virt. eigenvalues --    1.51688   1.51981   1.53774   1.54714   1.60007
 Alpha virt. eigenvalues --    1.63403   1.68355   1.83805   1.87133   1.93941
 Alpha virt. eigenvalues --    1.94878   1.96047   1.99374   2.05039   2.05592
 Alpha virt. eigenvalues --    2.05694   2.09100   2.12316   2.18136   2.21201
 Alpha virt. eigenvalues --    2.21934   2.25860   2.27411   2.29720   2.33225
 Alpha virt. eigenvalues --    2.33363   2.36754   2.42410   2.45608   2.51766
 Alpha virt. eigenvalues --    2.58633   2.61155   2.67946   2.70078   2.71396
 Alpha virt. eigenvalues --    2.73365   2.79596   2.86042   2.89838   2.91421
 Alpha virt. eigenvalues --    3.01246   3.04222   3.15218   3.30822   3.46999
 Alpha virt. eigenvalues --    4.25159   4.35017   4.38819   4.42140   4.46435
 Alpha virt. eigenvalues --    4.50904   4.58258   4.62400   4.87901
          Condensed to atoms (all electrons):
               1          2          3          4          5          6
     1  C    6.124003   0.044971   0.741859  -0.700101   0.141278  -0.676554
     2  C    0.044971   6.302825  -0.847967   0.463594  -0.643724   1.035385
     3  C    0.741859  -0.847967  12.976809  -0.566550  -4.161868  -3.275955
     4  C   -0.700101   0.463594  -0.566550  12.514432  -4.994495  -1.717301
     5  C    0.141278  -0.643724  -4.161868  -4.994495  15.504411   0.934451
     6  C   -0.676554   1.035385  -3.275955  -1.717301   0.934451  13.188521
     7  N   -0.035391   0.027894  -0.615029  -0.235693   0.978587   0.156380
     8  C    0.206990  -0.408313   2.878365   3.242307  -4.837292  -4.164601
     9  C   -0.114944   0.055653  -0.989552  -1.032849   1.626623   1.018605
    10  H   -0.002689  -0.003557  -0.124985  -0.039891   0.151182   0.016477
    11  H    0.003619   0.001676  -0.001690  -0.057501   0.077391   0.066612
    12  H    0.001597  -0.000669   0.035709   0.096677  -0.134609  -0.012538
    13  H    0.058812   0.241087   0.017972  -0.004620   0.023519  -0.020217
    14  H   -0.009209   0.078832   0.126781   0.139344  -0.018172  -0.000361
    15  H    0.248349   0.045819   0.016673  -0.022385   0.036328  -0.018605
    16  H    0.065461  -0.013567   0.004904  -0.006059   0.134072   0.111775
               7          8          9         10         11         12
     1  C   -0.035391   0.206990  -0.114944  -0.002689   0.003619   0.001597
     2  C    0.027894  -0.408313   0.055653  -0.003557   0.001676  -0.000669
     3  C   -0.615029   2.878365  -0.989552  -0.124985  -0.001690   0.035709
     4  C   -0.235693   3.242307  -1.032849  -0.039891  -0.057501   0.096677
     5  C    0.978587  -4.837292   1.626623   0.151182   0.077391  -0.134609
     6  C    0.156380  -4.164601   1.018605   0.016477   0.066612  -0.012538
     7  N    7.148331  -0.846310   0.632300   0.273874   0.006354  -0.046621
     8  C   -0.846310  11.028757  -1.484052  -0.021922   0.210553   0.129499
     9  C    0.632300  -1.484052   6.255527  -0.001247   0.010246   0.260659
    10  H    0.273874  -0.021922  -0.001247   0.282542  -0.000053  -0.001318
    11  H    0.006354   0.210553   0.010246  -0.000053   0.419758  -0.000145
    12  H   -0.046621   0.129499   0.260659  -0.001318  -0.000145   0.411392
    13  H   -0.000269   0.002556   0.000774  -0.000001  -0.000000  -0.000000
    14  H   -0.004776  -0.005435   0.008003   0.001646   0.000002   0.000001
    15  H    0.000297   0.013923  -0.000365  -0.000000  -0.000001  -0.000000
    16  H   -0.000758   0.016906   0.000828   0.000003   0.001000  -0.000000
              13         14         15         16
     1  C    0.058812  -0.009209   0.248349   0.065461
     2  C    0.241087   0.078832   0.045819  -0.013567
     3  C    0.017972   0.126781   0.016673   0.004904
     4  C   -0.004620   0.139344  -0.022385  -0.006059
     5  C    0.023519  -0.018172   0.036328   0.134072
     6  C   -0.020217  -0.000361  -0.018605   0.111775
     7  N   -0.000269  -0.004776   0.000297  -0.000758
     8  C    0.002556  -0.005435   0.013923   0.016906
     9  C    0.000774   0.008003  -0.000365   0.000828
    10  H   -0.000001   0.001646  -0.000000   0.000003
    11  H   -0.000000   0.000002  -0.000001   0.001000
    12  H   -0.000000   0.000001  -0.000000  -0.000000
    13  H    0.467258  -0.001963  -0.002863  -0.000105
    14  H   -0.001963   0.460064  -0.000099   0.000010
    15  H   -0.002863  -0.000099   0.468394  -0.001870
    16  H   -0.000105   0.000010  -0.001870   0.460260
 Mulliken charges:
               1
     1  C   -0.098051
     2  C   -0.379939
     3  C   -0.215476
     4  C   -1.078906
     5  C    1.182319
     6  C   -0.642073
     7  N   -0.439169
     8  C    0.038070
     9  C   -0.246208
    10  H    0.469940
    11  H    0.262181
    12  H    0.260368
    13  H    0.218060
    14  H    0.225332
    15  H    0.216406
    16  H    0.227144
 Sum of Mulliken charges =  -0.00000
 Mulliken charges with hydrogens summed into heavy atoms:
               1
     1  C    0.118355
     2  C   -0.161878
     3  C    0.009856
     4  C   -1.078906
     5  C    1.182319
     6  C   -0.414928
     7  N    0.030771
     8  C    0.300251
     9  C    0.014160
 Electronic spatial extent (au):  <R**2>=           1025.7714
 Charge=             -0.0000 electrons
 Dipole moment (field-independent basis, Debye):
    X=              4.1946    Y=             -1.2887    Z=              0.0019  Tot=              4.3881
 Quadrupole moment (field-independent basis, Debye-Ang):
   XX=            -44.5720   YY=            -46.6028   ZZ=            -61.6623
   XY=             -2.1991   XZ=              0.0026   YZ=             -0.0035
 Traceless Quadrupole moment (field-independent basis, Debye-Ang):
   XX=              6.3737   YY=              4.3429   ZZ=            -10.7166
   XY=             -2.1991   XZ=              0.0026   YZ=             -0.0035
 Octapole moment (field-independent basis, Debye-Ang**2):
  XXX=             27.2916  YYY=             -9.1028  ZZZ=              0.0169  XYY=             15.1804
  XXY=             -7.0114  XXZ=              0.0100  XZZ=              4.8685  YZZ=             -1.3692
  YYZ=              0.0141  XYZ=              0.0006
 Hexadecapole moment (field-independent basis, Debye-Ang**3):
 XXXX=           -844.1903 YYYY=           -398.5651 ZZZZ=            -90.1135 XXXY=            -17.3920
 XXXZ=              0.0590 YYYX=            -14.2790 YYYZ=             -0.0384 ZZZX=              0.0279
 ZZZY=             -0.0228 XXYY=           -198.3215 XXZZ=           -205.4471 YYZZ=           -107.4507
 XXYZ=             -0.0085 YYXZ=             -0.0023 ZZXY=             -1.5050
 N-N= 3.976205386059D+02 E-N=-1.636949684482D+03  KE= 3.605788057652D+02
 Unable to Open any file for archive entry.
 1\1\GINC-EXP-4-42\FOpt\RSOGGA11X TD-FC\6-31+G(d)\C8H7N1\SCAPARAS\16-Ju
 n-2021\0\\# td= (nstates=6, root=2) SOGGA11X/6-31+G* Opt density=curre
 nt\\FuncsSOGGA11X-V-2nd\\0,1\C,-2.1846338745,0.6869388519,-0.000618438
 5\C,-2.1536163801,-0.6968760374,-0.000364675\C,-0.9081335297,-1.443677
 4825,0.000271521\C,0.247796361,-0.6591865527,0.0004031519\C,0.24747125
 81,0.7517570445,0.0001439919\C,-0.9931173768,1.4687462057,-0.000361386
 8\N,1.5902845352,-1.0633002157,0.0007351822\C,1.601773312,1.1619392622
 ,0.0001527835\C,2.4249472319,-0.0104763042,0.0002383322\H,1.8882184615
 ,-2.0283466799,0.0003994363\H,1.9820374399,2.1757187041,-0.0001132874\
 H,3.4993226247,-0.1206350894,0.0006294722\H,-3.087404005,-1.2527983485
 ,-0.0006165427\H,-0.8920367835,-2.5282392605,0.0012145271\H,-3.1466993
 069,1.1925771971,-0.001006671\H,-1.0193069678,2.5533047053,-0.00057139
 67\\Version=AS64L-G16RevC.01\State=1-A\HF=-363.7186247\RMSD=9.910e-09\
 RMSF=3.962e-05\Dipole=1.6503009,-0.5069962,0.0007517\Quadrupole=4.7386
 881,3.22887,-7.9675581,-1.6349783,0.0019569,-0.0025901\PG=C01 [X(C8H7N
 1)]\\@
 The archive entry for this job was punched.


 TWO ROADS DIVERGED IN A WOOD, AND I--
 I TOOK THE ONE LESS TRAVELED BY,
 AND THAT HAS MADE ALL THE DIFFERENCE.

                       -- ROBERT FROST
 Job cpu time:       0 days  9 hours 47 minutes 40.5 seconds.
 Elapsed time:       0 days  2 hours 34 minutes 55.6 seconds.
 File lengths (MBytes):  RWF=    238 Int=      0 D2E=      0 Chk=     11 Scr=      1
 Normal termination of Gaussian 16 at Wed Jun 16 12:46:34 2021.
