 Entering Gaussian System, Link 0=/cm/shared/apps/spack/cpu/opt/spack/linux-centos8-zen/gcc-8.3.1/gaussian-16.C.01-po5bqktfeugvmjyga3v7eigbecnokxng/g16/g16
 Initial command:
 /cm/shared/apps/spack/cpu/opt/spack/linux-centos8-zen/gcc-8.3.1/gaussian-16.C.01-po5bqktfeugvmjyga3v7eigbecnokxng/g16/l1.exe "/scratch/scaparas/job_3404230/Gau-66910.inp" -scrdir="/scratch/scaparas/job_3404230/"
 Entering Link 1 = /cm/shared/apps/spack/cpu/opt/spack/linux-centos8-zen/gcc-8.3.1/gaussian-16.C.01-po5bqktfeugvmjyga3v7eigbecnokxng/g16/l1.exe PID=     66911.
  
 Copyright (c) 1988-2019, Gaussian, Inc.  All Rights Reserved.
  
 This is part of the Gaussian(R) 16 program.  It is based on
 the Gaussian(R) 09 system (copyright 2009, Gaussian, Inc.),
 the Gaussian(R) 03 system (copyright 2003, Gaussian, Inc.),
 the Gaussian(R) 98 system (copyright 1998, Gaussian, Inc.),
 the Gaussian(R) 94 system (copyright 1995, Gaussian, Inc.),
 the Gaussian 92(TM) system (copyright 1992, Gaussian, Inc.),
 the Gaussian 90(TM) system (copyright 1990, Gaussian, Inc.),
 the Gaussian 88(TM) system (copyright 1988, Gaussian, Inc.),
 the Gaussian 86(TM) system (copyright 1986, Carnegie Mellon
 University), and the Gaussian 82(TM) system (copyright 1983,
 Carnegie Mellon University). Gaussian is a federally registered
 trademark of Gaussian, Inc.
  
 This software contains proprietary and confidential information,
 including trade secrets, belonging to Gaussian, Inc.
  
 This software is provided under written license and may be
 used, copied, transmitted, or stored only in accord with that
 written license.
  
 The following legend is applicable only to US Government
 contracts under FAR:
  
                    RESTRICTED RIGHTS LEGEND
  
 Use, reproduction and disclosure by the US Government is
 subject to restrictions as set forth in subparagraphs (a)
 and (c) of the Commercial Computer Software - Restricted
 Rights clause in FAR 52.227-19.
  
 Gaussian, Inc.
 340 Quinnipiac St., Bldg. 40, Wallingford CT 06492
  
  
 ---------------------------------------------------------------
 Warning -- This program may not be used in any manner that
 competes with the business of Gaussian, Inc. or will provide
 assistance to any competitor of Gaussian, Inc.  The licensee
 of this program is prohibited from giving any competitor of
 Gaussian, Inc. access to this program.  By using this program,
 the user acknowledges that Gaussian, Inc. is engaged in the
 business of creating and licensing software in the field of
 computational chemistry and represents and warrants to the
 licensee that it is not a competitor of Gaussian, Inc. and that
 it will not use this program in any manner prohibited above.
 ---------------------------------------------------------------
  

 Cite this work as:
 Gaussian 16, Revision C.01,
 M. J. Frisch, G. W. Trucks, H. B. Schlegel, G. E. Scuseria, 
 M. A. Robb, J. R. Cheeseman, G. Scalmani, V. Barone, 
 G. A. Petersson, H. Nakatsuji, X. Li, M. Caricato, A. V. Marenich, 
 J. Bloino, B. G. Janesko, R. Gomperts, B. Mennucci, H. P. Hratchian, 
 J. V. Ortiz, A. F. Izmaylov, J. L. Sonnenberg, D. Williams-Young, 
 F. Ding, F. Lipparini, F. Egidi, J. Goings, B. Peng, A. Petrone, 
 T. Henderson, D. Ranasinghe, V. G. Zakrzewski, J. Gao, N. Rega, 
 G. Zheng, W. Liang, M. Hada, M. Ehara, K. Toyota, R. Fukuda, 
 J. Hasegawa, M. Ishida, T. Nakajima, Y. Honda, O. Kitao, H. Nakai, 
 T. Vreven, K. Throssell, J. A. Montgomery, Jr., J. E. Peralta, 
 F. Ogliaro, M. J. Bearpark, J. J. Heyd, E. N. Brothers, K. N. Kudin, 
 V. N. Staroverov, T. A. Keith, R. Kobayashi, J. Normand, 
 K. Raghavachari, A. P. Rendell, J. C. Burant, S. S. Iyengar, 
 J. Tomasi, M. Cossi, J. M. Millam, M. Klene, C. Adamo, R. Cammi, 
 J. W. Ochterski, R. L. Martin, K. Morokuma, O. Farkas, 
 J. B. Foresman, and D. J. Fox, Gaussian, Inc., Wallingford CT, 2019.
 
 ******************************************
 Gaussian 16:  AS64L-G16RevC.01  3-Jul-2019
                14-Jun-2021 
 ******************************************
 %nprocshared=4
 Will use up to    4 processors via shared memory.
 %chk=FuncsB3PW91-V-1st.chk
 %Mem=3GB
 ------------------------------------------------------------
 # td= (nstates=6, root=1) B3PW91/6-31+G* Opt density=current
 ------------------------------------------------------------
 1/18=20,19=15,26=3,38=1/1,3;
 2/9=110,12=2,17=6,18=5,40=1/2;
 3/5=1,6=6,7=11,11=9,25=1,30=1,71=1,74=-6/1,2,3,8;
 4//1;
 5/5=2,38=5/2;
 8/6=1,10=2,107=1,108=6/1;
 9/8=1,15=2,41=6,42=1,70=2/14;
 10/5=4,28=1/2;
 6/7=2,8=2,9=2,10=2,22=-1/1;
 7/12=6,13=5,14=1/1,2,3,16;
 1/18=20,19=15,26=3/3(2);
 2/9=110/2;
 99//99;
 2/9=110/2;
 3/5=1,6=6,7=11,11=9,25=1,30=1,71=1,74=-6/1,2,3,8;
 4/5=5,16=3,69=1/1;
 5/5=2,38=5/2;
 8/6=1,10=2,107=1,108=6/1;
 9/8=1,15=2,41=6,42=1,49=4,70=2/14;
 10/5=4,28=1/2;
 7/12=6,13=5,14=1/1,2,3,16;
 1/18=20,19=15,26=3/3(-8);
 2/9=110/2;
 6/7=2,8=2,9=2,10=2,22=-1/1;
 99/9=10/99;
 -----------------
 FuncsB3PW91-V-1st
 -----------------
 Symbolic Z-matrix:
 Charge =  0 Multiplicity = 1
 C                    -2.15106   0.68921   0.00009 
 C                    -2.12793  -0.71582   0.00008 
 C                    -0.9323   -1.4131   -0.00001 
 C                     0.24691  -0.6702   -0.00004 
 C                     0.24819   0.7483    0. 
 C                    -0.97947   1.42353   0.00003 
 N                     1.56177  -1.07759  -0.00029 
 C                     1.62013   1.1629   -0.00016 
 C                     2.38201   0.03081   0.00025 
 H                     1.87632  -2.03001   0.00044 
 H                     1.99217   2.17301  -0.00035 
 H                     3.45255  -0.08243   0.00041 
 H                    -3.06159  -1.26202   0.00009 
 H                    -0.91725  -2.49534  -0.00007 
 H                    -3.1042    1.20079   0.00009 
 H                    -1.00935   2.50542  -0.00002 
 

 GradGradGradGradGradGradGradGradGradGradGradGradGradGradGradGradGradGrad
 Berny optimization.
 Initialization pass.
                           ----------------------------
                           !    Initial Parameters    !
                           ! (Angstroms and Degrees)  !
 --------------------------                            --------------------------
 ! Name  Definition              Value          Derivative Info.                !
 --------------------------------------------------------------------------------
 ! R1    R(1,2)                  1.4052         estimate D2E/DX2                !
 ! R2    R(1,6)                  1.3827         estimate D2E/DX2                !
 ! R3    R(1,15)                 1.0818         estimate D2E/DX2                !
 ! R4    R(2,3)                  1.3841         estimate D2E/DX2                !
 ! R5    R(2,13)                 1.0817         estimate D2E/DX2                !
 ! R6    R(3,4)                  1.3937         estimate D2E/DX2                !
 ! R7    R(3,14)                 1.0823         estimate D2E/DX2                !
 ! R8    R(4,5)                  1.4185         estimate D2E/DX2                !
 ! R9    R(4,7)                  1.3765         estimate D2E/DX2                !
 ! R10   R(5,6)                  1.4011         estimate D2E/DX2                !
 ! R11   R(5,8)                  1.4332         estimate D2E/DX2                !
 ! R12   R(6,16)                 1.0823         estimate D2E/DX2                !
 ! R13   R(7,9)                  1.3789         estimate D2E/DX2                !
 ! R14   R(7,10)                 1.003          estimate D2E/DX2                !
 ! R15   R(8,9)                  1.3646         estimate D2E/DX2                !
 ! R16   R(8,11)                 1.0764         estimate D2E/DX2                !
 ! R17   R(9,12)                 1.0765         estimate D2E/DX2                !
 ! A1    A(2,1,6)              121.1349         estimate D2E/DX2                !
 ! A2    A(2,1,15)             119.1671         estimate D2E/DX2                !
 ! A3    A(6,1,15)             119.698          estimate D2E/DX2                !
 ! A4    A(1,2,3)              121.1938         estimate D2E/DX2                !
 ! A5    A(1,2,13)             119.3846         estimate D2E/DX2                !
 ! A6    A(3,2,13)             119.4217         estimate D2E/DX2                !
 ! A7    A(2,3,4)              117.5387         estimate D2E/DX2                !
 ! A8    A(2,3,14)             121.0469         estimate D2E/DX2                !
 ! A9    A(4,3,14)             121.4144         estimate D2E/DX2                !
 ! A10   A(3,4,5)              122.2626         estimate D2E/DX2                !
 ! A11   A(3,4,7)              130.5743         estimate D2E/DX2                !
 ! A12   A(5,4,7)              107.163          estimate D2E/DX2                !
 ! A13   A(4,5,6)              118.7594         estimate D2E/DX2                !
 ! A14   A(4,5,8)              106.8666         estimate D2E/DX2                !
 ! A15   A(6,5,8)              134.374          estimate D2E/DX2                !
 ! A16   A(1,6,5)              119.1105         estimate D2E/DX2                !
 ! A17   A(1,6,16)             120.4966         estimate D2E/DX2                !
 ! A18   A(5,6,16)             120.3928         estimate D2E/DX2                !
 ! A19   A(4,7,9)              109.2874         estimate D2E/DX2                !
 ! A20   A(4,7,10)             125.4909         estimate D2E/DX2                !
 ! A21   A(9,7,10)             125.2217         estimate D2E/DX2                !
 ! A22   A(5,8,9)              107.125          estimate D2E/DX2                !
 ! A23   A(5,8,11)             127.0344         estimate D2E/DX2                !
 ! A24   A(9,8,11)             125.8405         estimate D2E/DX2                !
 ! A25   A(7,9,8)              109.5578         estimate D2E/DX2                !
 ! A26   A(7,9,12)             120.4645         estimate D2E/DX2                !
 ! A27   A(8,9,12)             129.9776         estimate D2E/DX2                !
 ! D1    D(6,1,2,3)             -0.0008         estimate D2E/DX2                !
 ! D2    D(6,1,2,13)          -179.9981         estimate D2E/DX2                !
 ! D3    D(15,1,2,3)           179.996          estimate D2E/DX2                !
 ! D4    D(15,1,2,13)           -0.0013         estimate D2E/DX2                !
 ! D5    D(2,1,6,5)             -0.0018         estimate D2E/DX2                !
 ! D6    D(2,1,6,16)           179.9965         estimate D2E/DX2                !
 ! D7    D(15,1,6,5)          -179.9986         estimate D2E/DX2                !
 ! D8    D(15,1,6,16)           -0.0003         estimate D2E/DX2                !
 ! D9    D(1,2,3,4)              0.002          estimate D2E/DX2                !
 ! D10   D(1,2,3,14)          -179.9968         estimate D2E/DX2                !
 ! D11   D(13,2,3,4)           179.9992         estimate D2E/DX2                !
 ! D12   D(13,2,3,14)            0.0005         estimate D2E/DX2                !
 ! D13   D(2,3,4,5)             -0.0005         estimate D2E/DX2                !
 ! D14   D(2,3,4,7)           -179.9911         estimate D2E/DX2                !
 ! D15   D(14,3,4,5)           179.9982         estimate D2E/DX2                !
 ! D16   D(14,3,4,7)             0.0076         estimate D2E/DX2                !
 ! D17   D(3,4,5,6)             -0.002          estimate D2E/DX2                !
 ! D18   D(3,4,5,8)           -179.9955         estimate D2E/DX2                !
 ! D19   D(7,4,5,6)            179.9905         estimate D2E/DX2                !
 ! D20   D(7,4,5,8)             -0.003          estimate D2E/DX2                !
 ! D21   D(3,4,7,9)           -179.98           estimate D2E/DX2                !
 ! D22   D(3,4,7,10)            -0.0649         estimate D2E/DX2                !
 ! D23   D(5,4,7,9)              0.0284         estimate D2E/DX2                !
 ! D24   D(5,4,7,10)           179.9434         estimate D2E/DX2                !
 ! D25   D(4,5,6,1)              0.0031         estimate D2E/DX2                !
 ! D26   D(4,5,6,16)          -179.9951         estimate D2E/DX2                !
 ! D27   D(8,5,6,1)            179.9944         estimate D2E/DX2                !
 ! D28   D(8,5,6,16)            -0.0038         estimate D2E/DX2                !
 ! D29   D(4,5,8,9)             -0.0234         estimate D2E/DX2                !
 ! D30   D(4,5,8,11)           179.9883         estimate D2E/DX2                !
 ! D31   D(6,5,8,9)            179.9846         estimate D2E/DX2                !
 ! D32   D(6,5,8,11)            -0.0037         estimate D2E/DX2                !
 ! D33   D(4,7,9,8)             -0.0444         estimate D2E/DX2                !
 ! D34   D(4,7,9,12)           179.9847         estimate D2E/DX2                !
 ! D35   D(10,7,9,8)          -179.9597         estimate D2E/DX2                !
 ! D36   D(10,7,9,12)            0.0693         estimate D2E/DX2                !
 ! D37   D(5,8,9,7)              0.0414         estimate D2E/DX2                !
 ! D38   D(5,8,9,12)          -179.9913         estimate D2E/DX2                !
 ! D39   D(11,8,9,7)          -179.9702         estimate D2E/DX2                !
 ! D40   D(11,8,9,12)           -0.0029         estimate D2E/DX2                !
 --------------------------------------------------------------------------------
 Trust Radius=3.00D-01 FncErr=1.00D-07 GrdErr=1.00D-06 EigMax=2.50D+02 EigMin=1.00D-04
 Number of steps in this run=     94 maximum allowed number of steps=    100.
 GradGradGradGradGradGradGradGradGradGradGradGradGradGradGradGradGradGrad

                          Input orientation:                          
 ---------------------------------------------------------------------
 Center     Atomic      Atomic             Coordinates (Angstroms)
 Number     Number       Type             X           Y           Z
 ---------------------------------------------------------------------
      1          6           0       -2.151063    0.689208    0.000088
      2          6           0       -2.127927   -0.715818    0.000075
      3          6           0       -0.932297   -1.413100   -0.000011
      4          6           0        0.246911   -0.670201   -0.000042
      5          6           0        0.248193    0.748299    0.000000
      6          6           0       -0.979474    1.423526    0.000032
      7          7           0        1.561774   -1.077592   -0.000285
      8          6           0        1.620133    1.162900   -0.000157
      9          6           0        2.382013    0.030806    0.000248
     10          1           0        1.876315   -2.030011    0.000438
     11          1           0        1.992173    2.173010   -0.000348
     12          1           0        3.452549   -0.082425    0.000408
     13          1           0       -3.061594   -1.262020    0.000088
     14          1           0       -0.917252   -2.495342   -0.000073
     15          1           0       -3.104203    1.200785    0.000090
     16          1           0       -1.009348    2.505421   -0.000015
 ---------------------------------------------------------------------
                    Distance matrix (angstroms):
                    1          2          3          4          5
     1  C    0.000000
     2  C    1.405216   0.000000
     3  C    2.430039   1.384100   0.000000
     4  C    2.756496   2.375276   1.393711   0.000000
     5  C    2.399984   2.790983   2.462763   1.418501   0.000000
     6  C    1.382694   2.428114   2.837018   2.426461   1.401106
     7  N    4.111781   3.707395   2.516536   1.376529   2.249305
     8  C    3.800829   4.192557   3.626386   2.290414   1.433218
     9  C    4.580641   4.571324   3.615178   2.247236   2.251218
    10  H    4.859416   4.214387   2.875566   2.122273   3.220216
    11  H    4.400917   5.031953   4.627387   3.336134   2.251948
    12  H    5.656491   5.616307   4.582311   3.259079   3.310287
    13  H    2.153220   1.081698   2.134650   3.361020   3.872476
    14  H    3.415208   2.152310   1.082347   2.164813   3.446661
    15  H    1.081752   2.150926   3.398466   3.838040   3.382795
    16  H    2.145261   3.409927   3.919278   3.415079   2.160761
                    6          7          8          9         10
     6  C    0.000000
     7  N    3.565604   0.000000
     8  C    2.612639   2.241252   0.000000
     9  C    3.638580   1.378890   1.364587   0.000000
    10  H    4.481345   1.003015   3.203172   2.121956   0.000000
    11  H    3.064704   3.278972   1.076446   2.177387   4.204618
    12  H    4.680888   2.136677   2.215532   1.076508   2.505515
    13  H    3.398144   4.627045   5.272457   5.595021   4.997275
    14  H    3.919362   2.855798   4.452085   4.155307   2.832058
    15  H    2.136372   5.192528   4.724488   5.609583   5.936632
    16  H    1.082307   4.410062   2.952378   4.198220   5.375611
                   11         12         13         14         15
    11  H    0.000000
    12  H    2.686947   0.000000
    13  H    6.110646   6.620083   0.000000
    14  H    5.500751   4.991726   2.473719   0.000000
    15  H    5.188282   6.681139   2.463174   4.294661   0.000000
    16  H    3.019872   5.158049   4.290143   5.001611   2.467892
                   16
    16  H    0.000000
 Stoichiometry    C8H7N
 Framework group  C1[X(C8H7N)]
 Deg. of freedom    42
 Full point group                 C1      NOp   1
 Largest Abelian subgroup         C1      NOp   1
 Largest concise Abelian subgroup C1      NOp   1
                         Standard orientation:                         
 ---------------------------------------------------------------------
 Center     Atomic      Atomic             Coordinates (Angstroms)
 Number     Number       Type             X           Y           Z
 ---------------------------------------------------------------------
      1          6           0       -2.151063    0.689208    0.000088
      2          6           0       -2.127927   -0.715818    0.000075
      3          6           0       -0.932297   -1.413100   -0.000011
      4          6           0        0.246911   -0.670201   -0.000042
      5          6           0        0.248193    0.748299    0.000000
      6          6           0       -0.979474    1.423526    0.000032
      7          7           0        1.561774   -1.077592   -0.000285
      8          6           0        1.620133    1.162900   -0.000157
      9          6           0        2.382013    0.030806    0.000248
     10          1           0        1.876315   -2.030011    0.000438
     11          1           0        1.992173    2.173010   -0.000348
     12          1           0        3.452549   -0.082425    0.000408
     13          1           0       -3.061594   -1.262020    0.000088
     14          1           0       -0.917252   -2.495342   -0.000073
     15          1           0       -3.104203    1.200785    0.000090
     16          1           0       -1.009348    2.505421   -0.000015
 ---------------------------------------------------------------------
 Rotational constants (GHZ):           3.9080822           1.6429452           1.1566805
 Standard basis: 6-31+G(d) (6D, 7F)
 There are   185 symmetry adapted cartesian basis functions of A   symmetry.
 There are   185 symmetry adapted basis functions of A   symmetry.
   185 basis functions,   316 primitive gaussians,   185 cartesian basis functions
    31 alpha electrons       31 beta electrons
       nuclear repulsion energy       401.3368668897 Hartrees.
 NAtoms=   16 NActive=   16 NUniq=   16 SFac= 1.00D+00 NAtFMM=   60 NAOKFM=F Big=F
 Integral buffers will be    131072 words long.
 Regular integral format.
 Two-electron integral symmetry is turned on.
 One-electron integrals computed using PRISM.
 NBasis=   185 RedAO= T EigKep=  1.26D-06  NBF=   185
 NBsUse=   185 1.00D-06 EigRej= -1.00D+00 NBFU=   185
 ExpMin= 4.38D-02 ExpMax= 4.17D+03 ExpMxC= 6.27D+02 IAcc=3 IRadAn=         5 AccDes= 0.00D+00
 Harris functional with IExCor=  408 and IRadAn=       5 diagonalized for initial guess.
 HarFok:  IExCor=  408 AccDes= 0.00D+00 IRadAn=         5 IDoV= 1 UseB2=F ITyADJ=14
 ICtDFT=  3500011 ScaDFX=  1.000000  1.000000  1.000000  1.000000
 FoFCou: FMM=F IPFlag=           0 FMFlag=      100000 FMFlg1=           0
         NFxFlg=           0 DoJE=T BraDBF=F KetDBF=T FulRan=T
         wScrn=  0.000000 ICntrl=       500 IOpCl=  0 I1Cent=   200000004 NGrid=           0
         NMat0=    1 NMatS0=      1 NMatT0=    0 NMatD0=    1 NMtDS0=    0 NMtDT0=    0
 Petite list used in FoFCou.
 Keep R1 ints in memory in canonical form, NReq=152071459.
 Requested convergence on RMS density matrix=1.00D-08 within 128 cycles.
 Requested convergence on MAX density matrix=1.00D-06.
 Requested convergence on             energy=1.00D-06.
 No special actions if energy rises.
 SCF Done:  E(RB3PW91) =  -363.692543051     A.U. after   14 cycles
            NFock= 14  Conv=0.90D-08     -V/T= 2.0093
 DoSCS=F DFT=T ScalE2(SS,OS)=  1.000000  1.000000
 ExpMin= 4.38D-02 ExpMax= 4.17D+03 ExpMxC= 6.27D+02 IAcc=3 IRadAn=         5 AccDes= 0.00D+00
 HarFok:  IExCor=  205 AccDes= 0.00D+00 IRadAn=         5 IDoV=-2 UseB2=F ITyADJ=14
 ICtDFT= 12500011 ScaDFX=  1.000000  1.000000  1.000000  1.000000
 Range of M.O.s used for correlation:    10   185
 NBasis=   185 NAE=    31 NBE=    31 NFC=     9 NFV=     0
 NROrb=    176 NOA=    22 NOB=    22 NVA=   154 NVB=   154

 **** Warning!!: The largest alpha MO coefficient is  0.17659314D+03

 Orbital symmetries:
       Occupied  (A) (A) (A) (A) (A) (A) (A) (A) (A) (A) (A) (A)
                 (A) (A) (A) (A) (A) (A) (A) (A) (A) (A) (A) (A)
                 (A) (A) (A) (A) (A) (A) (A)
       Virtual   (A) (A) (A) (A) (A) (A) (A) (A) (A) (A) (A) (A)
                 (A) (A) (A) (A) (A) (A) (A) (A) (A) (A) (A) (A)
                 (A) (A) (A) (A) (A) (A) (A) (A) (A) (A) (A) (A)
                 (A) (A) (A) (A) (A) (A) (A) (A) (A) (A) (A) (A)
                 (A) (A) (A) (A) (A) (A) (A) (A) (A) (A) (A) (A)
                 (A) (A) (A) (A) (A) (A) (A) (A) (A) (A) (A) (A)
                 (A) (A) (A) (A) (A) (A) (A) (A) (A) (A) (A) (A)
                 (A) (A) (A) (A) (A) (A) (A) (A) (A) (A) (A) (A)
                 (A) (A) (A) (A) (A) (A) (A) (A) (A) (A) (A) (A)
                 (A) (A) (A) (A) (A) (A) (A) (A) (A) (A) (A) (A)
                 (A) (A) (A) (A) (A) (A) (A) (A) (A) (A) (A) (A)
                 (A) (A) (A) (A) (A) (A) (A) (A) (A) (A) (A) (A)
                 (A) (A) (A) (A) (A) (A) (A) (A) (A) (A)
    24 initial guesses have been made.
 Convergence on wavefunction:    0.000001000000000
 Iteration     1 Dimension    24 NMult     0 NNew     24
 CISAX will form    24 AO SS matrices at one time.
 New state      1 was old state      2
 New state      2 was old state      3
 New state      3 was old state      1
 New state      4 was old state      5
 New state      5 was old state      6
 New state      6 was old state      7
 Iteration     2 Dimension    36 NMult    24 NNew     12
 New state      1 was old state      3
 New state      2 was old state      1
 New state      3 was old state      2
 Iteration     3 Dimension    48 NMult    36 NNew     12
 Iteration     4 Dimension    60 NMult    48 NNew     12
 Iteration     5 Dimension    72 NMult    60 NNew     12
 Iteration     6 Dimension    84 NMult    72 NNew     12
 Iteration     7 Dimension    96 NMult    84 NNew     12
 Iteration     8 Dimension   108 NMult    96 NNew     12
 Iteration     9 Dimension   120 NMult   108 NNew     12
 Iteration    10 Dimension   126 NMult   120 NNew      6
 Iteration    11 Dimension   130 NMult   126 NNew      4
 ***********************************************************************
 Excited states from <AA,BB:AA,BB> singles matrix:
 ***********************************************************************
 
 Ground to excited state transition densities written to RWF  633
 Ground to excited state transition electric dipole moments (Au):
       state          X           Y           Z        Dip. S.      Osc.
         1        -0.5247      0.6187     -0.0001      0.6581      0.0776
         2        -0.5374     -0.0954     -0.0001      0.2979      0.0362
         3         0.0007     -0.0003     -0.1233      0.0152      0.0019
         4        -0.0005      0.0001     -0.1386      0.0192      0.0027
         5         0.0006      0.0000      0.0195      0.0004      0.0001
         6         0.0010      0.0003      0.1010      0.0102      0.0015
 Ground to excited state transition velocity dipole moments (Au):
       state          X           Y           Z        Dip. S.      Osc.
         1         0.0840     -0.1185      0.0000      0.0211      0.0796
         2         0.0924      0.0179      0.0000      0.0089      0.0324
         3        -0.0001      0.0001      0.0151      0.0002      0.0008
         4         0.0001     -0.0000      0.0301      0.0009      0.0029
         5        -0.0001     -0.0000     -0.0029      0.0000      0.0000
         6        -0.0002     -0.0001     -0.0217      0.0005      0.0014
 Ground to excited state transition magnetic dipole moments (Au):
       state          X           Y           Z
         1         0.0003     -0.0000      0.1750
         2        -0.0000     -0.0002     -0.0213
         3         0.1233     -0.0694      0.0001
         4         0.0496     -0.2293     -0.0000
         5         0.3029     -0.1260      0.0003
         6         0.0975      0.3526      0.0007
 Ground to excited state transition velocity quadrupole moments (Au):
       state          XX          YY          ZZ          XY          XZ          YZ
         1         0.1858     -0.1062      0.0084      0.0436      0.0001      0.0001
         2         0.0747     -0.1125      0.0241      0.0033      0.0001     -0.0000
         3        -0.0002      0.0001      0.0001      0.0001      0.0607      0.0550
         4        -0.0001      0.0000     -0.0000     -0.0000      0.1621     -0.0080
         5        -0.0002     -0.0000      0.0000      0.0002      0.1587      0.2559
         6         0.0000     -0.0001      0.0001      0.0003     -0.3152      0.0071
 <0|del|b> * <b|rxdel|0> + <0|del|b> * <b|delr+rdel|0>
 Rotatory Strengths (R) in cgs (10**-40 erg-esu-cm/Gauss)
       state          XX          YY          ZZ    R(velocity)    E-M Angle
         1         0.0360      0.0602      0.0189      0.0384       90.00
         2        -0.0116     -0.0099     -0.0039     -0.0085       90.00
         3        -0.0126     -0.0347     -0.0153     -0.0209       90.00
         4         0.0129      0.0080      0.0128      0.0112       90.00
         5        -0.0021     -0.1200     -0.0101     -0.0441       90.00
         6        -0.0975     -0.0459     -0.0329     -0.0588       90.00
 1/2[<0|r|b>*<b|rxdel|0> + (<0|rxdel|b>*<b|r|0>)*]
 Rotatory Strengths (R) in cgs (10**-40 erg-esu-cm/Gauss)
       state          XX          YY          ZZ     R(length)
         1         0.0977      0.0144      0.0158      0.0426
         2        -0.0103     -0.0135     -0.0020     -0.0086
         3        -0.0586     -0.0166      0.0112     -0.0213
         4         0.0170      0.0146     -0.0003      0.0104
         5        -0.1340      0.0001     -0.0037     -0.0459
         6        -0.0664     -0.0791     -0.0482     -0.0646
  1/2[<0|del|b>*<b|r|0> + (<0|r|b>*<b|del|0>)*] (Au)
       state          X           Y           Z        Dip. S.   Osc.(frdel)
         1        -0.0441     -0.0733     -0.0000      0.1174      0.0783
         2        -0.0497     -0.0017     -0.0000      0.0514      0.0342
         3        -0.0000     -0.0000     -0.0019      0.0019      0.0012
         4        -0.0000     -0.0000     -0.0042      0.0042      0.0028
         5        -0.0000     -0.0000     -0.0001      0.0001      0.0000
         6        -0.0000     -0.0000     -0.0022      0.0022      0.0015

 Excitation energies and oscillator strengths:
 
 Excited State   1:      Singlet-A      4.8116 eV  257.68 nm  f=0.0776  <S**2>=0.000
      30 -> 32        -0.14142
      30 -> 34         0.15211
      31 -> 32         0.66091
 This state for optimization and/or second-order correction.
 Total Energy, E(TD-HF/TD-DFT) =  -363.515721747    
 Copying the excited state density for this state as the 1-particle RhoCI density.
 
 Excited State   2:      Singlet-A      4.9584 eV  250.05 nm  f=0.0362  <S**2>=0.000
      30 -> 32         0.56072
      31 -> 32         0.11871
      31 -> 34        -0.40488
 
 Excited State   3:      Singlet-A      5.1866 eV  239.05 nm  f=0.0019  <S**2>=0.000
      31 -> 33         0.70372
 
 Excited State   4:      Singlet-A      5.6583 eV  219.12 nm  f=0.0027  <S**2>=0.000
      30 -> 33         0.68991
      31 -> 35         0.12744
 
 Excited State   5:      Singlet-A      5.7518 eV  215.56 nm  f=0.0001  <S**2>=0.000
      30 -> 33        -0.12943
      31 -> 35         0.68992
 
 Excited State   6:      Singlet-A      5.8819 eV  210.79 nm  f=0.0015  <S**2>=0.000
      31 -> 36         0.69803
 SavETr:  write IOETrn=   770 NScale= 10 NData=  16 NLR=1 NState=    6 LETran=     118.
          IDoAtm=1111111111111111
          Differentiating once with respect to electric field.
                with respect to dipole field.
          Differentiating once with respect to nuclear coordinates.
 Keep R1 ints in memory in canonical form, NReq=152083851.
          There are     1 degrees of freedom in the 1st order CPHF.  IDoFFX=0 NUNeed=     1.
 LinEq1:  Iter=  0 NonCon=     1 RMS=1.22D-02 Max=3.56D-01 NDo=     1
 AX will form     1 AO Fock derivatives at one time.
 LinEq1:  Iter=  1 NonCon=     1 RMS=4.76D-03 Max=8.86D-02 NDo=     1
 LinEq1:  Iter=  2 NonCon=     1 RMS=3.98D-03 Max=1.21D-01 NDo=     1
 LinEq1:  Iter=  3 NonCon=     1 RMS=1.64D-03 Max=4.24D-02 NDo=     1
 LinEq1:  Iter=  4 NonCon=     1 RMS=1.18D-03 Max=4.17D-02 NDo=     1
 LinEq1:  Iter=  5 NonCon=     1 RMS=5.42D-04 Max=9.68D-03 NDo=     1
 LinEq1:  Iter=  6 NonCon=     1 RMS=3.43D-04 Max=1.17D-02 NDo=     1
 LinEq1:  Iter=  7 NonCon=     1 RMS=1.83D-04 Max=4.79D-03 NDo=     1
 LinEq1:  Iter=  8 NonCon=     1 RMS=1.08D-04 Max=2.31D-03 NDo=     1
 LinEq1:  Iter=  9 NonCon=     1 RMS=5.12D-05 Max=1.09D-03 NDo=     1
 LinEq1:  Iter= 10 NonCon=     1 RMS=2.62D-05 Max=6.67D-04 NDo=     1
 LinEq1:  Iter= 11 NonCon=     1 RMS=1.18D-05 Max=2.18D-04 NDo=     1
 LinEq1:  Iter= 12 NonCon=     1 RMS=6.48D-06 Max=1.10D-04 NDo=     1
 LinEq1:  Iter= 13 NonCon=     1 RMS=2.05D-06 Max=3.83D-05 NDo=     1
 LinEq1:  Iter= 14 NonCon=     1 RMS=1.18D-06 Max=2.01D-05 NDo=     1
 LinEq1:  Iter= 15 NonCon=     1 RMS=2.52D-07 Max=5.84D-06 NDo=     1
 LinEq1:  Iter= 16 NonCon=     1 RMS=5.34D-08 Max=9.02D-07 NDo=     1
 LinEq1:  Iter= 17 NonCon=     1 RMS=3.07D-08 Max=6.96D-07 NDo=     1
 LinEq1:  Iter= 18 NonCon=     1 RMS=1.26D-08 Max=2.08D-07 NDo=     1
 LinEq1:  Iter= 19 NonCon=     1 RMS=2.30D-09 Max=3.07D-08 NDo=     1
 LinEq1:  Iter= 20 NonCon=     1 RMS=3.89D-10 Max=5.11D-09 NDo=     1
 LinEq1:  Iter= 21 NonCon=     1 RMS=1.03D-10 Max=1.21D-09 NDo=     1
 LinEq1:  Iter= 22 NonCon=     0 RMS=3.22D-11 Max=4.27D-10 NDo=     1
 Linear equations converged to 1.000D-10 1.000D-09 after    22 iterations.
 End of Minotr F.D. properties file   721 does not exist.
 End of Minotr F.D. properties file   722 does not exist.
 End of Minotr F.D. properties file   788 does not exist.

 **********************************************************************

            Population analysis using the CI Density.

 **********************************************************************

 Orbital symmetries:
       Occupied  (A) (A) (A) (A) (A) (A) (A) (A) (A) (A) (A) (A)
                 (A) (A) (A) (A) (A) (A) (A) (A) (A) (A) (A) (A)
                 (A) (A) (A) (A) (A) (A) (A)
       Virtual   (A) (A) (A) (A) (A) (A) (A) (A) (A) (A) (A) (A)
                 (A) (A) (A) (A) (A) (A) (A) (A) (A) (A) (A) (A)
                 (A) (A) (A) (A) (A) (A) (A) (A) (A) (A) (A) (A)
                 (A) (A) (A) (A) (A) (A) (A) (A) (A) (A) (A) (A)
                 (A) (A) (A) (A) (A) (A) (A) (A) (A) (A) (A) (A)
                 (A) (A) (A) (A) (A) (A) (A) (A) (A) (A) (A) (A)
                 (A) (A) (A) (A) (A) (A) (A) (A) (A) (A) (A) (A)
                 (A) (A) (A) (A) (A) (A) (A) (A) (A) (A) (A) (A)
                 (A) (A) (A) (A) (A) (A) (A) (A) (A) (A) (A) (A)
                 (A) (A) (A) (A) (A) (A) (A) (A) (A) (A) (A) (A)
                 (A) (A) (A) (A) (A) (A) (A) (A) (A) (A) (A) (A)
                 (A) (A) (A) (A) (A) (A) (A) (A) (A) (A) (A) (A)
                 (A) (A) (A) (A) (A) (A) (A) (A) (A) (A)
 The electronic state is 1-A.
 Alpha  occ. eigenvalues --  -14.37762 -10.21161 -10.20963 -10.17953 -10.17551
 Alpha  occ. eigenvalues --  -10.17404 -10.17401 -10.16907 -10.16686  -0.99217
 Alpha  occ. eigenvalues --   -0.84791  -0.79100  -0.74317  -0.72482  -0.63164
 Alpha  occ. eigenvalues --   -0.60220  -0.58850  -0.54678  -0.48893  -0.47661
 Alpha  occ. eigenvalues --   -0.44294  -0.43433  -0.42839  -0.41606  -0.39662
 Alpha  occ. eigenvalues --   -0.35944  -0.34042  -0.33904  -0.28480  -0.22900
 Alpha  occ. eigenvalues --   -0.21211
 Alpha virt. eigenvalues --   -0.01825   0.00754   0.01808   0.02593   0.03209
 Alpha virt. eigenvalues --    0.04706   0.04800   0.04835   0.06876   0.07074
 Alpha virt. eigenvalues --    0.07561   0.07635   0.09600   0.09867   0.11638
 Alpha virt. eigenvalues --    0.11686   0.12093   0.13561   0.14500   0.14809
 Alpha virt. eigenvalues --    0.16241   0.16755   0.17417   0.17453   0.17822
 Alpha virt. eigenvalues --    0.18538   0.19441   0.19761   0.20421   0.20559
 Alpha virt. eigenvalues --    0.20787   0.20922   0.22551   0.23140   0.23797
 Alpha virt. eigenvalues --    0.24462   0.24473   0.25198   0.26252   0.26706
 Alpha virt. eigenvalues --    0.27791   0.27976   0.28422   0.30215   0.30646
 Alpha virt. eigenvalues --    0.31426   0.32299   0.33803   0.35661   0.37067
 Alpha virt. eigenvalues --    0.38241   0.40315   0.43623   0.45338   0.51708
 Alpha virt. eigenvalues --    0.58319   0.62785   0.67718   0.67928   0.70225
 Alpha virt. eigenvalues --    0.71994   0.72403   0.73388   0.73964   0.74521
 Alpha virt. eigenvalues --    0.75583   0.76039   0.78059   0.79497   0.80333
 Alpha virt. eigenvalues --    0.81819   0.85614   0.89680   0.90396   0.91564
 Alpha virt. eigenvalues --    0.93899   0.94590   0.95544   0.96182   0.98656
 Alpha virt. eigenvalues --    1.00499   1.03336   1.05052   1.06752   1.09692
 Alpha virt. eigenvalues --    1.11536   1.11833   1.17272   1.18091   1.20654
 Alpha virt. eigenvalues --    1.22690   1.23277   1.25350   1.31841   1.31885
 Alpha virt. eigenvalues --    1.33877   1.36953   1.41226   1.41834   1.45233
 Alpha virt. eigenvalues --    1.45793   1.46501   1.49577   1.50141   1.53980
 Alpha virt. eigenvalues --    1.58980   1.65057   1.78718   1.84466   1.88363
 Alpha virt. eigenvalues --    1.89128   1.92200   1.94310   1.99482   1.99785
 Alpha virt. eigenvalues --    2.00482   2.06359   2.10007   2.14251   2.17288
 Alpha virt. eigenvalues --    2.17368   2.19889   2.24876   2.26067   2.26581
 Alpha virt. eigenvalues --    2.28695   2.31553   2.38141   2.40930   2.44761
 Alpha virt. eigenvalues --    2.54970   2.55930   2.63875   2.66040   2.67114
 Alpha virt. eigenvalues --    2.70138   2.73788   2.81163   2.84910   2.85974
 Alpha virt. eigenvalues --    2.95748   2.98228   3.11507   3.24507   3.45107
 Alpha virt. eigenvalues --    4.15466   4.26570   4.29551   4.33040   4.36610
 Alpha virt. eigenvalues --    4.40164   4.48511   4.52432   4.79446
          Condensed to atoms (all electrons):
               1          2          3          4          5          6
     1  C    5.792118   0.394993   0.314881  -0.813545   0.193324  -0.320229
     2  C    0.394993   6.254436  -0.445958   0.526155  -0.974484   0.763650
     3  C    0.314881  -0.445958  14.328650  -2.416668  -4.047985  -3.316344
     4  C   -0.813545   0.526155  -2.416668  13.445796  -3.839576  -0.674782
     5  C    0.193324  -0.974484  -4.047985  -3.839576  15.603629  -0.428281
     6  C   -0.320229   0.763650  -3.316344  -0.674782  -0.428281  13.697997
     7  N   -0.028211   0.005413  -0.607970  -0.442202   1.028578   0.186609
     8  C    0.151111  -0.349726   3.611427   1.882919  -5.239477  -4.236729
     9  C   -0.090390   0.037310  -1.317901  -0.624175   1.879826   1.120515
    10  H   -0.001225  -0.009807  -0.123674  -0.048525   0.153789   0.020506
    11  H    0.003626   0.001389   0.001491  -0.002844   0.020995   0.032280
    12  H    0.001281   0.000233   0.041945   0.113136  -0.128351  -0.025551
    13  H    0.030940   0.242367   0.013619   0.008166   0.014481  -0.007470
    14  H    0.011493   0.062620   0.163657   0.075845   0.003577  -0.020018
    15  H    0.249417   0.026222   0.021917  -0.023620   0.028997  -0.009899
    16  H    0.039530   0.007819  -0.028578   0.020232   0.093985   0.190303
               7          8          9         10         11         12
     1  C   -0.028211   0.151111  -0.090390  -0.001225   0.003626   0.001281
     2  C    0.005413  -0.349726   0.037310  -0.009807   0.001389   0.000233
     3  C   -0.607970   3.611427  -1.317901  -0.123674   0.001491   0.041945
     4  C   -0.442202   1.882919  -0.624175  -0.048525  -0.002844   0.113136
     5  C    1.028578  -5.239477   1.879826   0.153789   0.020995  -0.128351
     6  C    0.186609  -4.236729   1.120515   0.020506   0.032280  -0.025551
     7  N    7.207670  -0.815691   0.630395   0.261382   0.005028  -0.059948
     8  C   -0.815691  12.818811  -2.299694   0.003717   0.242198   0.072763
     9  C    0.630395  -2.299694   6.722231  -0.028430  -0.007452   0.297253
    10  H    0.261382   0.003717  -0.028430   0.325023  -0.000065  -0.002005
    11  H    0.005028   0.242198  -0.007452  -0.000065   0.467142  -0.000679
    12  H   -0.059948   0.072763   0.297253  -0.002005  -0.000679   0.462514
    13  H   -0.000557   0.000472   0.001238  -0.000002  -0.000000  -0.000000
    14  H   -0.011318  -0.005963   0.007697   0.002297   0.000002   0.000003
    15  H    0.000337   0.009389  -0.000244  -0.000000  -0.000002  -0.000000
    16  H   -0.001064  -0.038346   0.004509   0.000005   0.001419  -0.000001
              13         14         15         16
     1  C    0.030940   0.011493   0.249417   0.039530
     2  C    0.242367   0.062620   0.026222   0.007819
     3  C    0.013619   0.163657   0.021917  -0.028578
     4  C    0.008166   0.075845  -0.023620   0.020232
     5  C    0.014481   0.003577   0.028997   0.093985
     6  C   -0.007470  -0.020018  -0.009899   0.190303
     7  N   -0.000557  -0.011318   0.000337  -0.001064
     8  C    0.000472  -0.005963   0.009389  -0.038346
     9  C    0.001238   0.007697  -0.000244   0.004509
    10  H   -0.000002   0.002297  -0.000000   0.000005
    11  H   -0.000000   0.000002  -0.000002   0.001419
    12  H   -0.000000   0.000003  -0.000000  -0.000001
    13  H    0.513069  -0.004446  -0.004400  -0.000158
    14  H   -0.004446   0.522983  -0.000159   0.000019
    15  H   -0.004400  -0.000159   0.513596  -0.004327
    16  H   -0.000158   0.000019  -0.004327   0.517239
 Mulliken charges:
               1
     1  C    0.070887
     2  C   -0.542632
     3  C   -0.192511
     4  C   -1.186314
     5  C    1.636972
     6  C   -0.972559
     7  N   -0.358453
     8  C    0.192818
     9  C   -0.332688
    10  H    0.447016
    11  H    0.235471
    12  H    0.227406
    13  H    0.192681
    14  H    0.191713
    15  H    0.192778
    16  H    0.197413
 Sum of Mulliken charges =  -0.00000
 Mulliken charges with hydrogens summed into heavy atoms:
               1
     1  C    0.263665
     2  C   -0.349950
     3  C   -0.000798
     4  C   -1.186314
     5  C    1.636972
     6  C   -0.775146
     7  N    0.088563
     8  C    0.428289
     9  C   -0.105282
 Electronic spatial extent (au):  <R**2>=           1006.8130
 Charge=             -0.0000 electrons
 Dipole moment (field-independent basis, Debye):
    X=              4.0898    Y=             -1.1353    Z=             -0.0008  Tot=              4.2444
 Quadrupole moment (field-independent basis, Debye-Ang):
   XX=            -45.5726   YY=            -45.3525   ZZ=            -59.8853
   XY=             -2.6599   XZ=             -0.0006   YZ=             -0.0004
 Traceless Quadrupole moment (field-independent basis, Debye-Ang):
   XX=              4.6976   YY=              4.9176   ZZ=             -9.6152
   XY=             -2.6599   XZ=             -0.0006   YZ=             -0.0004
 Octapole moment (field-independent basis, Debye-Ang**2):
  XXX=             24.3016  YYY=             -8.7538  ZZZ=             -0.0119  XYY=             15.9594
  XXY=             -5.4383  XXZ=             -0.0028  XZZ=              4.7462  YZZ=             -0.8087
  YYZ=             -0.0074  XYZ=             -0.0020
 Hexadecapole moment (field-independent basis, Debye-Ang**3):
 XXXX=           -842.3601 YYYY=           -385.6465 ZZZZ=            -83.1894 XXXY=            -19.2953
 XXXZ=             -0.0161 YYYX=            -15.9873 YYYZ=              0.0063 ZZZX=             -0.0120
 ZZZY=              0.0118 XXYY=           -191.0622 XXZZ=           -197.5873 YYZZ=           -100.6513
 XXYZ=             -0.0010 YYXZ=              0.0025 ZZXY=             -2.1716
 N-N= 4.013368668897D+02 E-N=-1.645061787034D+03  KE= 3.604868893858D+02
 Calling FoFJK, ICntrl=  10005127 FMM=F ISym2X=0 I1Cent= 0 IOpClX= 0 NMat=1 NMatS=1 NMatT=0.
 ***** Axes restored to original set *****
 -------------------------------------------------------------------
 Center     Atomic                   Forces (Hartrees/Bohr)
 Number     Number              X              Y              Z
 -------------------------------------------------------------------
      1        6          -0.025283379   -0.037092496   -0.000003255
      2        6          -0.040846256    0.041001652    0.000002642
      3        6           0.036723853   -0.033844259    0.000005486
      4        6          -0.013087084    0.019656077   -0.000019838
      5        6           0.011039599   -0.018932321   -0.000025835
      6        6           0.012281786    0.034235286   -0.000000183
      7        7           0.013253817    0.028205616    0.000057963
      8        6          -0.034160180    0.020701962    0.000022283
      9        6           0.037386254   -0.050371100   -0.000035388
     10        1           0.003146584   -0.006870992   -0.000001969
     11        1           0.002055353    0.003861976    0.000002670
     12        1           0.003381734   -0.000918141   -0.000005251
     13        1          -0.003370749   -0.001243541    0.000000128
     14        1           0.000634913   -0.003588573   -0.000003587
     15        1          -0.003366716    0.001560997    0.000001048
     16        1           0.000210470    0.003637858    0.000003085
 -------------------------------------------------------------------
 Cartesian Forces:  Max     0.050371100 RMS     0.018743349

 GradGradGradGradGradGradGradGradGradGradGradGradGradGradGradGradGradGrad
 Berny optimization.
 FormGI is forming the generalized inverse of G from B-inverse, IUseBI=4.
 Internal  Forces:  Max     0.050649020 RMS     0.010026646
 Search for a local minimum.
 Step number   1 out of a maximum of   94
 All quantities printed in internal units (Hartrees-Bohrs-Radians)
 Mixed Optimization -- RFO/linear search
 Second derivative matrix not updated -- first step.
 ITU=  0
     Eigenvalues ---    0.01853   0.01931   0.01986   0.02012   0.02070
     Eigenvalues ---    0.02113   0.02148   0.02153   0.02172   0.02209
     Eigenvalues ---    0.02233   0.02248   0.02338   0.16000   0.16000
     Eigenvalues ---    0.16000   0.16000   0.16000   0.16000   0.16000
     Eigenvalues ---    0.22000   0.22188   0.22662   0.24011   0.24651
     Eigenvalues ---    0.35712   0.35717   0.35783   0.35790   0.36420
     Eigenvalues ---    0.36427   0.37009   0.38432   0.42633   0.43465
     Eigenvalues ---    0.45769   0.46692   0.47162   0.47468   0.47567
     Eigenvalues ---    0.48125   0.50955
 RFO step:  Lambda=-1.85493998D-02 EMin= 1.85287394D-02
 Linear search not attempted -- first point.
 Iteration  1 RMS(Cart)=  0.03177013 RMS(Int)=  0.00033479
 Iteration  2 RMS(Cart)=  0.00041913 RMS(Int)=  0.00014201
 Iteration  3 RMS(Cart)=  0.00000009 RMS(Int)=  0.00014201
 Variable       Old X    -DE/DX   Delta X   Delta X   Delta X     New X
                                 (Linear)    (Quad)   (Total)
    R1        2.65547  -0.01300   0.00000  -0.02576  -0.02573   2.62975
    R2        2.61291   0.03727   0.00000   0.07490   0.07492   2.68783
    R3        2.04421   0.00370   0.00000   0.00984   0.00984   2.05406
    R4        2.61557   0.05065   0.00000   0.10184   0.10186   2.71743
    R5        2.04411   0.00354   0.00000   0.00940   0.00940   2.05351
    R6        2.63373   0.01047   0.00000   0.02047   0.02045   2.65418
    R7        2.04534   0.00360   0.00000   0.00957   0.00957   2.05491
    R8        2.68058  -0.00673   0.00000  -0.02109  -0.02135   2.65923
    R9        2.60126   0.02041   0.00000   0.03687   0.03711   2.63837
   R10        2.64771   0.02259   0.00000   0.04678   0.04677   2.69447
   R11        2.70839   0.00331   0.00000   0.00878   0.00840   2.71679
   R12        2.04526   0.00363   0.00000   0.00966   0.00966   2.05493
   R13        2.60573  -0.01644   0.00000  -0.03059  -0.03021   2.57552
   R14        1.89542   0.00751   0.00000   0.01532   0.01532   1.91075
   R15        2.57870   0.04335   0.00000   0.08399   0.08399   2.66268
   R16        2.03419   0.00433   0.00000   0.01132   0.01132   2.04551
   R17        2.03430   0.00346   0.00000   0.00904   0.00904   2.04334
    A1        2.11420   0.00072   0.00000   0.00825   0.00825   2.12245
    A2        2.07986  -0.00058   0.00000  -0.00537  -0.00537   2.07449
    A3        2.08912  -0.00014   0.00000  -0.00289  -0.00289   2.08624
    A4        2.11523  -0.00131   0.00000  -0.00042  -0.00043   2.11480
    A5        2.08365   0.00001   0.00000  -0.00339  -0.00339   2.08027
    A6        2.08430   0.00130   0.00000   0.00381   0.00381   2.08811
    A7        2.05144  -0.00388   0.00000  -0.01750  -0.01755   2.03389
    A8        2.11267   0.00254   0.00000   0.01210   0.01212   2.12479
    A9        2.11908   0.00134   0.00000   0.00540   0.00542   2.12450
   A10        2.13389   0.00452   0.00000   0.01645   0.01636   2.15025
   A11        2.27895  -0.00607   0.00000  -0.01314  -0.01308   2.26587
   A12        1.87035   0.00155   0.00000  -0.00331  -0.00328   1.86707
   A13        2.07274   0.00483   0.00000   0.01455   0.01475   2.08749
   A14        1.86517  -0.00326   0.00000  -0.01503  -0.01557   1.84960
   A15        2.34527  -0.00157   0.00000   0.00048   0.00083   2.34610
   A16        2.07887  -0.00488   0.00000  -0.02133  -0.02138   2.05749
   A17        2.10306   0.00276   0.00000   0.01245   0.01247   2.11553
   A18        2.10125   0.00212   0.00000   0.00889   0.00891   2.11016
   A19        1.90743   0.01246   0.00000   0.04787   0.04841   1.95583
   A20        2.19023  -0.00544   0.00000  -0.01951  -0.01978   2.17045
   A21        2.18553  -0.00702   0.00000  -0.02836  -0.02863   2.15690
   A22        1.86968   0.00698   0.00000   0.03646   0.03610   1.90578
   A23        2.21717  -0.00288   0.00000  -0.01485  -0.01466   2.20250
   A24        2.19633  -0.00409   0.00000  -0.02161  -0.02143   2.17490
   A25        1.91215  -0.01773   0.00000  -0.06599  -0.06565   1.84650
   A26        2.10250   0.00830   0.00000   0.02982   0.02965   2.13215
   A27        2.26854   0.00943   0.00000   0.03617   0.03600   2.30454
    D1       -0.00001   0.00000   0.00000   0.00001   0.00001  -0.00001
    D2       -3.14156  -0.00000   0.00000  -0.00002  -0.00002  -3.14158
    D3        3.14152   0.00000   0.00000   0.00005   0.00005   3.14157
    D4       -0.00002   0.00000   0.00000   0.00003   0.00003   0.00000
    D5       -0.00003   0.00000   0.00000   0.00006   0.00006   0.00003
    D6        3.14153   0.00000   0.00000   0.00006   0.00006  -3.14159
    D7       -3.14157   0.00000   0.00000   0.00001   0.00001  -3.14156
    D8       -0.00001   0.00000   0.00000   0.00002   0.00002   0.00001
    D9        0.00003  -0.00000   0.00000  -0.00005  -0.00005  -0.00002
   D10       -3.14154  -0.00000   0.00000   0.00000   0.00000  -3.14153
   D11        3.14158  -0.00000   0.00000  -0.00002  -0.00002   3.14156
   D12        0.00001   0.00000   0.00000   0.00003   0.00003   0.00004
   D13       -0.00001  -0.00000   0.00000   0.00003   0.00003   0.00002
   D14       -3.14144  -0.00000   0.00000  -0.00004  -0.00004  -3.14148
   D15        3.14156  -0.00000   0.00000  -0.00002  -0.00002   3.14154
   D16        0.00013  -0.00000   0.00000  -0.00009  -0.00009   0.00004
   D17       -0.00004   0.00000   0.00000   0.00003   0.00003  -0.00000
   D18       -3.14151   0.00000   0.00000  -0.00004  -0.00005  -3.14156
   D19        3.14143   0.00000   0.00000   0.00008   0.00008   3.14151
   D20       -0.00005   0.00000   0.00000   0.00001   0.00001  -0.00004
   D21       -3.14124  -0.00000   0.00000  -0.00026  -0.00027  -3.14152
   D22       -0.00113   0.00001   0.00000   0.00021   0.00021  -0.00093
   D23        0.00049  -0.00001   0.00000  -0.00032  -0.00034   0.00016
   D24        3.14060   0.00001   0.00000   0.00015   0.00015   3.14075
   D25        0.00005  -0.00000   0.00000  -0.00008  -0.00007  -0.00002
   D26       -3.14151  -0.00000   0.00000  -0.00008  -0.00008  -3.14159
   D27        3.14150  -0.00000   0.00000   0.00002   0.00003   3.14152
   D28       -0.00007  -0.00000   0.00000   0.00002   0.00002  -0.00005
   D29       -0.00041   0.00001   0.00000   0.00032   0.00033  -0.00008
   D30        3.14139   0.00000   0.00000   0.00001   0.00001   3.14140
   D31        3.14132   0.00001   0.00000   0.00023   0.00023   3.14156
   D32       -0.00006  -0.00000   0.00000  -0.00008  -0.00008  -0.00015
   D33       -0.00077   0.00003   0.00000   0.00058   0.00057  -0.00021
   D34        3.14133   0.00001   0.00000   0.00030   0.00030  -3.14156
   D35       -3.14089   0.00001   0.00000   0.00010   0.00008  -3.14081
   D36        0.00121  -0.00001   0.00000  -0.00018  -0.00019   0.00102
   D37        0.00072  -0.00002   0.00000  -0.00056  -0.00055   0.00017
   D38       -3.14144  -0.00001   0.00000  -0.00025  -0.00025   3.14150
   D39       -3.14107  -0.00001   0.00000  -0.00024  -0.00024  -3.14131
   D40       -0.00005   0.00000   0.00000   0.00007   0.00007   0.00002
         Item               Value     Threshold  Converged?
 Maximum Force            0.050649     0.000450     NO 
 RMS     Force            0.010027     0.000300     NO 
 Maximum Displacement     0.118937     0.001800     NO 
 RMS     Displacement     0.031730     0.001200     NO 
 Predicted change in Energy=-9.683421D-03
 GradGradGradGradGradGradGradGradGradGradGradGradGradGradGradGradGradGrad

                          Input orientation:                          
 ---------------------------------------------------------------------
 Center     Atomic      Atomic             Coordinates (Angstroms)
 Number     Number       Type             X           Y           Z
 ---------------------------------------------------------------------
      1          6           0       -2.193673    0.684340    0.000017
      2          6           0       -2.167041   -0.707006    0.000016
      3          6           0       -0.922609   -1.427587    0.000034
      4          6           0        0.250043   -0.654543    0.000032
      5          6           0        0.245280    0.752653    0.000041
      6          6           0       -0.996816    1.452835    0.000045
      7          7           0        1.586754   -1.057640   -0.000079
      8          6           0        1.626081    1.152985   -0.000009
      9          6           0        2.441535    0.003896    0.000060
     10          1           0        1.892090   -2.021559    0.000595
     11          1           0        1.996757    2.169975   -0.000186
     12          1           0        3.515488   -0.121861   -0.000026
     13          1           0       -3.105390   -1.255051   -0.000018
     14          1           0       -0.890942   -2.514540   -0.000021
     15          1           0       -3.155504    1.190664   -0.000014
     16          1           0       -1.025150    2.539886    0.000048
 ---------------------------------------------------------------------
                    Distance matrix (angstroms):
                    1          2          3          4          5
     1  C    0.000000
     2  C    1.391601   0.000000
     3  C    2.464922   1.438001   0.000000
     4  C    2.786460   2.417653   1.404532   0.000000
     5  C    2.439910   2.819556   2.473341   1.407205   0.000000
     6  C    1.422339   2.456489   2.881378   2.448612   1.425853
     7  N    4.162466   3.770135   2.536487   1.396168   2.253157
     8  C    3.848396   4.224611   3.627006   2.271704   1.437664
     9  C    4.684886   4.663084   3.656037   2.288270   2.320382
    10  H    4.900546   4.266684   2.876688   2.136598   3.226180
    11  H    4.445988   5.061050   4.633050   3.320981   2.253103
    12  H    5.765802   5.712576   4.626189   3.308607   3.385119
    13  H    2.143004   1.086671   2.189589   3.408745   3.906132
    14  H    3.453975   2.212602   1.087413   2.182071   3.459126
    15  H    1.086960   2.139675   3.441084   3.873311   3.428876
    16  H    2.192828   3.441834   3.968799   3.439549   2.192760
                    6          7          8          9         10
     6  C    0.000000
     7  N    3.602405   0.000000
     8  C    2.639982   2.210974   0.000000
     9  C    3.731177   1.362904   1.409031   0.000000
    10  H    4.518539   1.011124   3.185670   2.098656   0.000000
    11  H    3.078274   3.253553   1.082437   2.211273   4.192842
    12  H    4.779179   2.143757   2.279274   1.081291   2.498855
    13  H    3.432015   4.696295   5.308998   5.687998   5.055922
    14  H    3.968787   2.874288   4.448161   4.177070   2.826357
    15  H    2.174550   5.248227   4.781734   5.721474   5.983025
    16  H    1.087421   4.445699   2.992077   4.295248   5.414525
                   11         12         13         14         15
    11  H    0.000000
    12  H    2.749374   0.000000
    13  H    6.145137   6.717153   0.000000
    14  H    5.503043   5.014133   2.547566   0.000000
    15  H    5.244506   6.798886   2.446228   4.342439   0.000000
    16  H    3.044463   5.263297   4.327696   5.056208   2.521668
                   16
    16  H    0.000000
 Stoichiometry    C8H7N
 Framework group  C1[X(C8H7N)]
 Deg. of freedom    42
 Full point group                 C1      NOp   1
 Largest Abelian subgroup         C1      NOp   1
 Largest concise Abelian subgroup C1      NOp   1
                         Standard orientation:                         
 ---------------------------------------------------------------------
 Center     Atomic      Atomic             Coordinates (Angstroms)
 Number     Number       Type             X           Y           Z
 ---------------------------------------------------------------------
      1          6           0       -2.201126    0.659498   -0.000003
      2          6           0       -2.160090   -0.731498   -0.000004
      3          6           0       -0.908264   -1.439156    0.000014
      4          6           0        0.256321   -0.654013    0.000012
      5          6           0        0.236989    0.753059    0.000021
      6          6           0       -1.012290    1.440343    0.000025
      7          7           0        1.597134   -1.043248   -0.000099
      8          6           0        1.613572    1.167665   -0.000029
      9          6           0        2.440878    0.027081    0.000039
     10          1           0        1.912433   -2.003955    0.000574
     11          1           0        1.973698    2.188439   -0.000206
     12          1           0        3.516076   -0.087550   -0.000046
     13          1           0       -3.092715   -1.289229   -0.000038
     14          1           0       -0.865345   -2.525723   -0.000041
     15          1           0       -3.168148    1.155836   -0.000034
     16          1           0       -1.051877    2.527043    0.000028
 ---------------------------------------------------------------------
 Rotational constants (GHZ):           3.8963324           1.5895471           1.1289719
 Standard basis: 6-31+G(d) (6D, 7F)
 There are   185 symmetry adapted cartesian basis functions of A   symmetry.
 There are   185 symmetry adapted basis functions of A   symmetry.
   185 basis functions,   316 primitive gaussians,   185 cartesian basis functions
    31 alpha electrons       31 beta electrons
       nuclear repulsion energy       397.2756824797 Hartrees.
 NAtoms=   16 NActive=   16 NUniq=   16 SFac= 1.00D+00 NAtFMM=   60 NAOKFM=F Big=F
 Integral buffers will be    131072 words long.
 Regular integral format.
 Two-electron integral symmetry is turned on.
 One-electron integrals computed using PRISM.
 NBasis=   185 RedAO= T EigKep=  1.33D-06  NBF=   185
 NBsUse=   185 1.00D-06 EigRej= -1.00D+00 NBFU=   185
 Initial guess from the checkpoint file:  "FuncsB3PW91-V-1st.chk"
 B after Tr=    -0.000000   -0.000000    0.000000
         Rot=    0.999986    0.000005    0.000006   -0.005239 Ang=   0.60 deg.
 ExpMin= 4.38D-02 ExpMax= 4.17D+03 ExpMxC= 6.27D+02 IAcc=3 IRadAn=         5 AccDes= 0.00D+00
 Harris functional with IExCor=  408 and IRadAn=       5 diagonalized for initial guess.
 HarFok:  IExCor=  408 AccDes= 0.00D+00 IRadAn=         5 IDoV= 1 UseB2=F ITyADJ=14
 ICtDFT=  3500011 ScaDFX=  1.000000  1.000000  1.000000  1.000000
 FoFCou: FMM=F IPFlag=           0 FMFlag=      100000 FMFlg1=           0
         NFxFlg=           0 DoJE=T BraDBF=F KetDBF=T FulRan=T
         wScrn=  0.000000 ICntrl=       500 IOpCl=  0 I1Cent=   200000004 NGrid=           0
         NMat0=    1 NMatS0=      1 NMatT0=    0 NMatD0=    1 NMtDS0=    0 NMtDT0=    0
 Petite list used in FoFCou.
 Keep R1 ints in memory in canonical form, NReq=152071459.
 Requested convergence on RMS density matrix=1.00D-08 within 128 cycles.
 Requested convergence on MAX density matrix=1.00D-06.
 Requested convergence on             energy=1.00D-06.
 No special actions if energy rises.
 SCF Done:  E(RB3PW91) =  -363.685892820     A.U. after   13 cycles
            NFock= 13  Conv=0.59D-08     -V/T= 2.0105
 DoSCS=F DFT=T ScalE2(SS,OS)=  1.000000  1.000000
 ExpMin= 4.38D-02 ExpMax= 4.17D+03 ExpMxC= 6.27D+02 IAcc=3 IRadAn=         5 AccDes= 0.00D+00
 HarFok:  IExCor=  205 AccDes= 0.00D+00 IRadAn=         5 IDoV=-2 UseB2=F ITyADJ=14
 ICtDFT= 12500011 ScaDFX=  1.000000  1.000000  1.000000  1.000000
 Range of M.O.s used for correlation:    10   185
 NBasis=   185 NAE=    31 NBE=    31 NFC=     9 NFV=     0
 NROrb=    176 NOA=    22 NOB=    22 NVA=   154 NVB=   154

 **** Warning!!: The largest alpha MO coefficient is  0.18990260D+03

 Orbital symmetries:
       Occupied  (A) (A) (A) (A) (A) (A) (A) (A) (A) (A) (A) (A)
                 (A) (A) (A) (A) (A) (A) (A) (A) (A) (A) (A) (A)
                 (A) (A) (A) (A) (A) (A) (A)
       Virtual   (A) (A) (A) (A) (A) (A) (A) (A) (A) (A) (A) (A)
                 (A) (A) (A) (A) (A) (A) (A) (A) (A) (A) (A) (A)
                 (A) (A) (A) (A) (A) (A) (A) (A) (A) (A) (A) (A)
                 (A) (A) (A) (A) (A) (A) (A) (A) (A) (A) (A) (A)
                 (A) (A) (A) (A) (A) (A) (A) (A) (A) (A) (A) (A)
                 (A) (A) (A) (A) (A) (A) (A) (A) (A) (A) (A) (A)
                 (A) (A) (A) (A) (A) (A) (A) (A) (A) (A) (A) (A)
                 (A) (A) (A) (A) (A) (A) (A) (A) (A) (A) (A) (A)
                 (A) (A) (A) (A) (A) (A) (A) (A) (A) (A) (A) (A)
                 (A) (A) (A) (A) (A) (A) (A) (A) (A) (A) (A) (A)
                 (A) (A) (A) (A) (A) (A) (A) (A) (A) (A) (A) (A)
                 (A) (A) (A) (A) (A) (A) (A) (A) (A) (A) (A) (A)
                 (A) (A) (A) (A) (A) (A) (A) (A) (A) (A)
 Generating guess from densities on rwf.
 Convergence on wavefunction:    0.000001000000000
 Iteration     1 Dimension    12 NMult     0 NNew     12
 CISAX will form    12 AO SS matrices at one time.
 New state      4 was old state      5
 New state      5 was old state      4
 Iteration     2 Dimension    24 NMult    12 NNew     12
 New state      5 was old state      6
 New state      6 was old state      5
 Iteration     3 Dimension    36 NMult    24 NNew     12
 Iteration     4 Dimension    48 NMult    36 NNew     12
 Iteration     5 Dimension    60 NMult    48 NNew     12
 Iteration     6 Dimension    72 NMult    60 NNew     12
 Iteration     7 Dimension    84 NMult    72 NNew     12
 Iteration     8 Dimension    96 NMult    84 NNew     12
 Iteration     9 Dimension   108 NMult    96 NNew     12
 Iteration    10 Dimension   116 NMult   108 NNew      8
 Iteration    11 Dimension   120 NMult   116 NNew      4
 Iteration    12 Dimension   122 NMult   120 NNew      2
 ***********************************************************************
 Excited states from <AA,BB:AA,BB> singles matrix:
 ***********************************************************************
 
 Ground to excited state transition densities written to RWF  633
 Ground to excited state transition electric dipole moments (Au):
       state          X           Y           Z        Dip. S.      Osc.
         1        -0.6594      0.6657     -0.0000      0.8780      0.0935
         2        -0.3149     -0.1652     -0.0001      0.1265      0.0149
         3         0.0003     -0.0001     -0.1256      0.0158      0.0019
         4         0.0003      0.0000     -0.0140      0.0002      0.0000
         5         0.0003      0.0001      0.1330      0.0177      0.0025
         6        -0.0017     -0.0002     -0.1145      0.0131      0.0019
 Ground to excited state transition velocity dipole moments (Au):
       state          X           Y           Z        Dip. S.      Osc.
         1         0.0958     -0.1160      0.0000      0.0226      0.0944
         2         0.0521      0.0310      0.0000      0.0037      0.0139
         3        -0.0001      0.0000      0.0148      0.0002      0.0008
         4        -0.0000     -0.0000      0.0046      0.0000      0.0001
         5        -0.0001     -0.0000     -0.0272      0.0007      0.0024
         6         0.0004      0.0000      0.0262      0.0007      0.0021
 Ground to excited state transition magnetic dipole moments (Au):
       state          X           Y           Z
         1         0.0001      0.0000      0.1533
         2        -0.0000     -0.0001      0.0460
         3         0.1349     -0.0718      0.0001
         4         0.3046     -0.1473      0.0001
         5         0.0850      0.3711      0.0002
         6         0.0037     -0.1421     -0.0005
 Ground to excited state transition velocity quadrupole moments (Au):
       state          XX          YY          ZZ          XY          XZ          YZ
         1         0.1741     -0.1145      0.0091      0.0622      0.0000     -0.0000
         2         0.0341     -0.0832      0.0248      0.0083      0.0000      0.0000
         3        -0.0000      0.0001      0.0001      0.0001      0.0642      0.0545
         4         0.0000     -0.0001      0.0000      0.0001      0.1716      0.2385
         5         0.0000     -0.0000      0.0000      0.0001     -0.3330     -0.0042
         6         0.0002     -0.0002     -0.0000     -0.0003      0.0743     -0.0578
 <0|del|b> * <b|rxdel|0> + <0|del|b> * <b|delr+rdel|0>
 Rotatory Strengths (R) in cgs (10**-40 erg-esu-cm/Gauss)
       state          XX          YY          ZZ    R(velocity)    E-M Angle
         1         0.0014      0.0144      0.0013      0.0057       90.00
         2        -0.0072     -0.0017     -0.0061     -0.0050       90.00
         3         0.0005     -0.0177     -0.0086     -0.0086       90.00
         4         0.0024     -0.0450     -0.0056     -0.0161       90.00
         5        -0.0285     -0.0123     -0.0088     -0.0165       90.00
         6        -0.0526     -0.0430      0.0310     -0.0215       90.00
 1/2[<0|r|b>*<b|rxdel|0> + (<0|rxdel|b>*<b|r|0>)*]
 Rotatory Strengths (R) in cgs (10**-40 erg-esu-cm/Gauss)
       state          XX          YY          ZZ     R(length)
         1         0.0324     -0.0136      0.0049      0.0079
         2        -0.0061     -0.0105      0.0022     -0.0048
         3        -0.0326     -0.0042      0.0109     -0.0086
         4        -0.0547      0.0002      0.0015     -0.0177
         5        -0.0162     -0.0225     -0.0187     -0.0191
         6         0.0044     -0.0220     -0.0434     -0.0203
  1/2[<0|del|b>*<b|r|0> + (<0|r|b>*<b|del|0>)*] (Au)
       state          X           Y           Z        Dip. S.   Osc.(frdel)
         1        -0.0632     -0.0772     -0.0000      0.1404      0.0936
         2        -0.0164     -0.0051     -0.0000      0.0215      0.0144
         3        -0.0000     -0.0000     -0.0019      0.0019      0.0012
         4        -0.0000     -0.0000     -0.0001      0.0001      0.0000
         5        -0.0000     -0.0000     -0.0036      0.0036      0.0024
         6        -0.0000     -0.0000     -0.0030      0.0030      0.0020

 Excitation energies and oscillator strengths:
 
 Excited State   1:      Singlet-A      4.3489 eV  285.09 nm  f=0.0935  <S**2>=0.000
      29 -> 32         0.11296
      30 -> 34         0.10356
      31 -> 32         0.68096
 This state for optimization and/or second-order correction.
 Total Energy, E(TD-HF/TD-DFT) =  -363.526072916    
 Copying the excited state density for this state as the 1-particle RhoCI density.
 
 Excited State   2:      Singlet-A      4.8099 eV  257.77 nm  f=0.0149  <S**2>=0.000
      30 -> 32         0.55459
      31 -> 34        -0.42809
 
 Excited State   3:      Singlet-A      4.9532 eV  250.31 nm  f=0.0019  <S**2>=0.000
      31 -> 33         0.70393
 
 Excited State   4:      Singlet-A      5.5338 eV  224.05 nm  f=0.0000  <S**2>=0.000
      31 -> 35         0.69983
 
 Excited State   5:      Singlet-A      5.6749 eV  218.48 nm  f=0.0025  <S**2>=0.000
      31 -> 36        -0.69595
 
 Excited State   6:      Singlet-A      5.8311 eV  212.63 nm  f=0.0019  <S**2>=0.000
      30 -> 33         0.69699
 SavETr:  write IOETrn=   770 NScale= 10 NData=  16 NLR=1 NState=    6 LETran=     118.
          IDoAtm=1111111111111111
          Differentiating once with respect to electric field.
                with respect to dipole field.
          Differentiating once with respect to nuclear coordinates.
 Keep R1 ints in memory in canonical form, NReq=152083851.
          There are     1 degrees of freedom in the 1st order CPHF.  IDoFFX=0 NUNeed=     1.
 LinEq1:  Iter=  0 NonCon=     1 RMS=1.52D-02 Max=4.84D-01 NDo=     1
 AX will form     1 AO Fock derivatives at one time.
 LinEq1:  Iter=  1 NonCon=     1 RMS=5.67D-03 Max=1.14D-01 NDo=     1
 LinEq1:  Iter=  2 NonCon=     1 RMS=5.11D-03 Max=1.84D-01 NDo=     1
 LinEq1:  Iter=  3 NonCon=     1 RMS=2.18D-03 Max=5.01D-02 NDo=     1
 LinEq1:  Iter=  4 NonCon=     1 RMS=1.69D-03 Max=5.35D-02 NDo=     1
 LinEq1:  Iter=  5 NonCon=     1 RMS=7.56D-04 Max=1.53D-02 NDo=     1
 LinEq1:  Iter=  6 NonCon=     1 RMS=5.44D-04 Max=1.78D-02 NDo=     1
 LinEq1:  Iter=  7 NonCon=     1 RMS=2.36D-04 Max=6.46D-03 NDo=     1
 LinEq1:  Iter=  8 NonCon=     1 RMS=1.47D-04 Max=2.65D-03 NDo=     1
 LinEq1:  Iter=  9 NonCon=     1 RMS=7.03D-05 Max=1.86D-03 NDo=     1
 LinEq1:  Iter= 10 NonCon=     1 RMS=3.91D-05 Max=8.14D-04 NDo=     1
 LinEq1:  Iter= 11 NonCon=     1 RMS=2.21D-05 Max=5.00D-04 NDo=     1
 LinEq1:  Iter= 12 NonCon=     1 RMS=1.11D-05 Max=2.34D-04 NDo=     1
 LinEq1:  Iter= 13 NonCon=     1 RMS=3.92D-06 Max=9.49D-05 NDo=     1
 LinEq1:  Iter= 14 NonCon=     1 RMS=2.27D-06 Max=3.44D-05 NDo=     1
 LinEq1:  Iter= 15 NonCon=     1 RMS=4.11D-07 Max=9.84D-06 NDo=     1
 LinEq1:  Iter= 16 NonCon=     1 RMS=1.09D-07 Max=2.36D-06 NDo=     1
 LinEq1:  Iter= 17 NonCon=     1 RMS=7.20D-08 Max=1.32D-06 NDo=     1
 LinEq1:  Iter= 18 NonCon=     1 RMS=2.16D-08 Max=4.93D-07 NDo=     1
 LinEq1:  Iter= 19 NonCon=     1 RMS=3.78D-09 Max=4.16D-08 NDo=     1
 LinEq1:  Iter= 20 NonCon=     1 RMS=7.31D-10 Max=9.02D-09 NDo=     1
 LinEq1:  Iter= 21 NonCon=     1 RMS=1.20D-10 Max=1.06D-09 NDo=     1
 LinEq1:  Iter= 22 NonCon=     0 RMS=3.46D-11 Max=4.79D-10 NDo=     1
 Linear equations converged to 1.000D-10 1.000D-09 after    22 iterations.
 End of Minotr F.D. properties file   721 does not exist.
 End of Minotr F.D. properties file   722 does not exist.
 End of Minotr F.D. properties file   788 does not exist.
 Calling FoFJK, ICntrl=  10005127 FMM=F ISym2X=0 I1Cent= 0 IOpClX= 0 NMat=1 NMatS=1 NMatT=0.
 ***** Axes restored to original set *****
 -------------------------------------------------------------------
 Center     Atomic                   Forces (Hartrees/Bohr)
 Number     Number              X              Y              Z
 -------------------------------------------------------------------
      1        6          -0.001032030   -0.011718755   -0.000001064
      2        6          -0.001663025    0.013432378    0.000000424
      3        6           0.006485478   -0.011899887    0.000002375
      4        6          -0.009491709    0.011572608   -0.000003410
      5        6           0.004221765   -0.009086507   -0.000004479
      6        6           0.003525467    0.009720585   -0.000001012
      7        7           0.013917076    0.005841026    0.000030679
      8        6          -0.012128145    0.012656723   -0.000005677
      9        6          -0.002900727   -0.020144444   -0.000011929
     10        1          -0.000694103   -0.001161394   -0.000013750
     11        1           0.000737342    0.000565485    0.000003727
     12        1          -0.001133650    0.000703998    0.000003138
     13        1           0.000821714   -0.001314956    0.000000385
     14        1          -0.000995704    0.000987044   -0.000001431
     15        1           0.000431763    0.000989692    0.000000269
     16        1          -0.000101513   -0.001143597    0.000001756
 -------------------------------------------------------------------
 Cartesian Forces:  Max     0.020144444 RMS     0.006286911

 GradGradGradGradGradGradGradGradGradGradGradGradGradGradGradGradGradGrad
 Berny optimization.
 Using GEDIIS/GDIIS optimizer.
 FormGI is forming the generalized inverse of G from B-inverse, IUseBI=4.
 Internal  Forces:  Max     0.011910666 RMS     0.002668602
 Search for a local minimum.
 Step number   2 out of a maximum of   94
 All quantities printed in internal units (Hartrees-Bohrs-Radians)
 Mixed Optimization -- RFO/linear search
 Update second derivatives using D2CorX and points    1    2
 DE= -1.04D-02 DEPred=-9.68D-03 R= 1.07D+00
 TightC=F SS=  1.41D+00  RLast= 2.10D-01 DXNew= 5.0454D-01 6.3054D-01
 Trust test= 1.07D+00 RLast= 2.10D-01 DXMaxT set to 5.05D-01
 ITU=  1  0
 Use linear search instead of GDIIS.
     Eigenvalues ---    0.01852   0.01931   0.01986   0.02011   0.02069
     Eigenvalues ---    0.02113   0.02146   0.02150   0.02172   0.02210
     Eigenvalues ---    0.02234   0.02248   0.02341   0.15958   0.16000
     Eigenvalues ---    0.16000   0.16000   0.16000   0.16000   0.16023
     Eigenvalues ---    0.20540   0.22007   0.23968   0.24513   0.24724
     Eigenvalues ---    0.35638   0.35714   0.35787   0.35855   0.36082
     Eigenvalues ---    0.36480   0.36564   0.38676   0.40310   0.42778
     Eigenvalues ---    0.43993   0.46041   0.46985   0.47170   0.47659
     Eigenvalues ---    0.49102   0.53408
 RFO step:  Lambda=-1.77668223D-03 EMin= 1.85211975D-02
 Quartic linear search produced a step of  0.14483.
 Iteration  1 RMS(Cart)=  0.00971599 RMS(Int)=  0.00006639
 Iteration  2 RMS(Cart)=  0.00011554 RMS(Int)=  0.00001894
 Iteration  3 RMS(Cart)=  0.00000000 RMS(Int)=  0.00001894
 Variable       Old X    -DE/DX   Delta X   Delta X   Delta X     New X
                                 (Linear)    (Quad)   (Total)
    R1        2.62975  -0.00590  -0.00373  -0.01379  -0.01754   2.61220
    R2        2.68783   0.00291   0.01085   0.00301   0.01383   2.70167
    R3        2.05406   0.00008   0.00143  -0.00025   0.00117   2.05523
    R4        2.71743   0.00405   0.01475   0.00441   0.01916   2.73659
    R5        2.05351  -0.00005   0.00136  -0.00063   0.00073   2.05424
    R6        2.65418  -0.00110   0.00296  -0.00364  -0.00066   2.65352
    R7        2.05491  -0.00102   0.00139  -0.00373  -0.00234   2.05257
    R8        2.65923  -0.00331  -0.00309  -0.00802  -0.01110   2.64813
    R9        2.63837   0.00531   0.00537   0.00958   0.01498   2.65336
   R10        2.69447  -0.00082   0.00677  -0.00442   0.00236   2.69683
   R11        2.71679  -0.00585   0.00122  -0.01616  -0.01498   2.70181
   R12        2.05493  -0.00114   0.00140  -0.00413  -0.00273   2.05220
   R13        2.57552  -0.01191  -0.00438  -0.02621  -0.03055   2.54496
   R14        1.91075   0.00090   0.00222   0.00140   0.00362   1.91436
   R15        2.66268   0.01186   0.01216   0.02239   0.03455   2.69723
   R16        2.04551   0.00078   0.00164   0.00187   0.00351   2.04902
   R17        2.04334  -0.00121   0.00131  -0.00424  -0.00293   2.04041
    A1        2.12245   0.00181   0.00120   0.00917   0.01031   2.13277
    A2        2.07449   0.00020  -0.00078   0.00331   0.00256   2.07705
    A3        2.08624  -0.00201  -0.00042  -0.01248  -0.01287   2.07337
    A4        2.11480   0.00275  -0.00006   0.01457   0.01448   2.12929
    A5        2.08027   0.00022  -0.00049   0.00417   0.00369   2.08396
    A6        2.08811  -0.00297   0.00055  -0.01874  -0.01818   2.06994
    A7        2.03389  -0.00562  -0.00254  -0.02736  -0.02989   2.00400
    A8        2.12479   0.00182   0.00176   0.00647   0.00822   2.13301
    A9        2.12450   0.00380   0.00079   0.02089   0.02167   2.14617
   A10        2.15025   0.00326   0.00237   0.01545   0.01786   2.16810
   A11        2.26587  -0.00418  -0.00189  -0.01794  -0.01987   2.24600
   A12        1.86707   0.00092  -0.00048   0.00249   0.00201   1.86908
   A13        2.08749   0.00226   0.00214   0.00964   0.01183   2.09931
   A14        1.84960   0.00151  -0.00226   0.00832   0.00601   1.85561
   A15        2.34610  -0.00377   0.00012  -0.01797  -0.01784   2.32826
   A16        2.05749  -0.00446  -0.00310  -0.02147  -0.02460   2.03289
   A17        2.11553   0.00210   0.00181   0.00969   0.01150   2.12704
   A18        2.11016   0.00237   0.00129   0.01179   0.01309   2.12325
   A19        1.95583  -0.00098   0.00701  -0.00913  -0.00205   1.95378
   A20        2.17045  -0.00048  -0.00286  -0.00252  -0.00542   2.16503
   A21        2.15690   0.00146  -0.00415   0.01165   0.00747   2.16438
   A22        1.90578  -0.00304   0.00523  -0.01461  -0.00942   1.89636
   A23        2.20250   0.00203  -0.00212   0.01073   0.00863   2.21113
   A24        2.17490   0.00101  -0.00310   0.00388   0.00079   2.17569
   A25        1.84650   0.00159  -0.00951   0.01293   0.00345   1.84995
   A26        2.13215  -0.00021   0.00429  -0.00219   0.00209   2.13424
   A27        2.30454  -0.00137   0.00521  -0.01074  -0.00554   2.29900
    D1       -0.00001   0.00000   0.00000   0.00001   0.00001   0.00000
    D2       -3.14158  -0.00000  -0.00000  -0.00000  -0.00000  -3.14158
    D3        3.14157   0.00000   0.00001   0.00002   0.00003  -3.14158
    D4        0.00000   0.00000   0.00000   0.00001   0.00001   0.00002
    D5        0.00003   0.00000   0.00001   0.00000   0.00001   0.00004
    D6       -3.14159   0.00000   0.00001   0.00003   0.00004  -3.14155
    D7       -3.14156  -0.00000   0.00000  -0.00001  -0.00001  -3.14156
    D8        0.00001   0.00000   0.00000   0.00002   0.00002   0.00003
    D9       -0.00002   0.00000  -0.00001   0.00001   0.00000  -0.00001
   D10       -3.14153   0.00000   0.00000   0.00001   0.00001  -3.14152
   D11        3.14156   0.00000  -0.00000   0.00002   0.00002   3.14157
   D12        0.00004   0.00000   0.00000   0.00002   0.00002   0.00006
   D13        0.00002  -0.00000   0.00000  -0.00004  -0.00004  -0.00001
   D14       -3.14148  -0.00000  -0.00001  -0.00005  -0.00005  -3.14153
   D15        3.14154  -0.00000  -0.00000  -0.00004  -0.00004   3.14150
   D16        0.00004  -0.00000  -0.00001  -0.00005  -0.00006  -0.00002
   D17       -0.00000   0.00000   0.00000   0.00006   0.00006   0.00005
   D18       -3.14156   0.00000  -0.00001   0.00003   0.00003  -3.14154
   D19        3.14151   0.00000   0.00001   0.00006   0.00007   3.14158
   D20       -0.00004   0.00000   0.00000   0.00004   0.00004  -0.00001
   D21       -3.14152  -0.00000  -0.00004  -0.00007  -0.00011   3.14156
   D22       -0.00093   0.00001   0.00003   0.00028   0.00030  -0.00062
   D23        0.00016  -0.00000  -0.00005  -0.00007  -0.00013   0.00003
   D24        3.14075   0.00001   0.00002   0.00027   0.00029   3.14104
   D25       -0.00002  -0.00000  -0.00001  -0.00004  -0.00004  -0.00006
   D26       -3.14159  -0.00000  -0.00001  -0.00006  -0.00007   3.14152
   D27        3.14152  -0.00000   0.00000  -0.00000   0.00000   3.14152
   D28       -0.00005  -0.00000   0.00000  -0.00003  -0.00003  -0.00007
   D29       -0.00008   0.00000   0.00005   0.00001   0.00006  -0.00002
   D30        3.14140   0.00000   0.00000   0.00008   0.00009   3.14149
   D31        3.14156   0.00000   0.00003  -0.00002   0.00002   3.14157
   D32       -0.00015   0.00000  -0.00001   0.00006   0.00004  -0.00010
   D33       -0.00021   0.00000   0.00008   0.00008   0.00016  -0.00005
   D34       -3.14156   0.00000   0.00004   0.00000   0.00005  -3.14152
   D35       -3.14081  -0.00000   0.00001  -0.00025  -0.00024  -3.14105
   D36        0.00102  -0.00001  -0.00003  -0.00033  -0.00036   0.00066
   D37        0.00017  -0.00000  -0.00008  -0.00005  -0.00013   0.00004
   D38        3.14150   0.00000  -0.00004   0.00004  -0.00000   3.14150
   D39       -3.14131  -0.00000  -0.00003  -0.00013  -0.00016  -3.14147
   D40        0.00002  -0.00000   0.00001  -0.00004  -0.00003  -0.00001
         Item               Value     Threshold  Converged?
 Maximum Force            0.011911     0.000450     NO 
 RMS     Force            0.002669     0.000300     NO 
 Maximum Displacement     0.030201     0.001800     NO 
 RMS     Displacement     0.009776     0.001200     NO 
 Predicted change in Energy=-1.050944D-03
 GradGradGradGradGradGradGradGradGradGradGradGradGradGradGradGradGradGrad

                          Input orientation:                          
 ---------------------------------------------------------------------
 Center     Atomic      Atomic             Coordinates (Angstroms)
 Number     Number       Type             X           Y           Z
 ---------------------------------------------------------------------
      1          6           0       -2.186925    0.681453   -0.000003
      2          6           0       -2.157524   -0.700553    0.000006
      3          6           0       -0.913377   -1.441640    0.000051
      4          6           0        0.245254   -0.648353    0.000067
      5          6           0        0.240963    0.752971    0.000026
      6          6           0       -0.993616    1.468816    0.000031
      7          7           0        1.588606   -1.056876    0.000039
      8          6           0        1.611864    1.158899   -0.000018
      9          6           0        2.433545   -0.008174    0.000025
     10          1           0        1.887022   -2.024964    0.000525
     11          1           0        1.986169    2.176540   -0.000150
     12          1           0        3.506183   -0.131814   -0.000066
     13          1           0       -3.092999   -1.254253   -0.000029
[...]
 ! D11   D(13,2,3,4)           180.0002         -DE/DX =    0.0                 !
 ! D12   D(13,2,3,14)            0.0034         -DE/DX =    0.0                 !
 ! D13   D(2,3,4,5)             -0.0008         -DE/DX =    0.0                 !
 ! D14   D(2,3,4,7)           -179.9987         -DE/DX =    0.0                 !
 ! D15   D(14,3,4,5)           179.9959         -DE/DX =    0.0                 !
 ! D16   D(14,3,4,7)            -0.0021         -DE/DX =    0.0                 !
 ! D17   D(3,4,5,6)              0.0008         -DE/DX =    0.0                 !
 ! D18   D(3,4,5,8)           -179.9979         -DE/DX =    0.0                 !
 ! D19   D(7,4,5,6)            179.9991         -DE/DX =    0.0                 !
 ! D20   D(7,4,5,8)              0.0005         -DE/DX =    0.0                 !
 ! D21   D(3,4,7,9)            180.0012         -DE/DX =    0.0                 !
 ! D22   D(3,4,7,10)            -0.0062         -DE/DX =    0.0                 !
 ! D23   D(5,4,7,9)              0.0029         -DE/DX =    0.0                 !
 ! D24   D(5,4,7,10)           179.9956         -DE/DX =    0.0                 !
 ! D25   D(4,5,6,1)             -0.0003         -DE/DX =    0.0                 !
 ! D26   D(4,5,6,16)           179.9982         -DE/DX =    0.0                 !
 ! D27   D(8,5,6,1)            179.9979         -DE/DX =    0.0                 !
 ! D28   D(8,5,6,16)            -0.0036         -DE/DX =    0.0                 !
 ! D29   D(4,5,8,9)             -0.0035         -DE/DX =    0.0                 !
 ! D30   D(4,5,8,11)           179.9991         -DE/DX =    0.0                 !
 ! D31   D(6,5,8,9)           -180.0019         -DE/DX =    0.0                 !
 ! D32   D(6,5,8,11)             0.0007         -DE/DX =    0.0                 !
 ! D33   D(4,7,9,8)             -0.005          -DE/DX =    0.0                 !
 ! D34   D(4,7,9,12)          -180.002          -DE/DX =    0.0                 !
 ! D35   D(10,7,9,8)          -179.9976         -DE/DX =    0.0                 !
 ! D36   D(10,7,9,12)            0.0054         -DE/DX =    0.0                 !
 ! D37   D(5,8,9,7)              0.0052         -DE/DX =    0.0                 !
 ! D38   D(5,8,9,12)           180.0019         -DE/DX =    0.0                 !
 ! D39   D(11,8,9,7)           180.0027         -DE/DX =    0.0                 !
 ! D40   D(11,8,9,12)           -0.0006         -DE/DX =    0.0                 !
 --------------------------------------------------------------------------------
 GradGradGradGradGradGradGradGradGradGradGradGradGradGradGradGradGradGrad

                          Input orientation:                          
 ---------------------------------------------------------------------
 Center     Atomic      Atomic             Coordinates (Angstroms)
 Number     Number       Type             X           Y           Z
 ---------------------------------------------------------------------
      1          6           0       -2.182656    0.684237   -0.000005
      2          6           0       -2.150137   -0.699618    0.000047
      3          6           0       -0.916844   -1.448987    0.000083
      4          6           0        0.241311   -0.649774    0.000070
      5          6           0        0.237272    0.747580    0.000009
      6          6           0       -0.991502    1.471690   -0.000027
      7          7           0        1.593772   -1.057782    0.000073
      8          6           0        1.607095    1.159754   -0.000035
      9          6           0        2.428969   -0.009912    0.000082
     10          1           0        1.888538   -2.025694    0.000176
     11          1           0        1.985550    2.174468   -0.000099
     12          1           0        3.503920   -0.117563    0.000118
     13          1           0       -3.087235   -1.251757    0.000057
     14          1           0       -0.897945   -2.533019    0.000065
     15          1           0       -3.146433    1.187837   -0.000034
     16          1           0       -1.016772    2.555987   -0.000044
 ---------------------------------------------------------------------
                    Distance matrix (angstroms):
                    1          2          3          4          5
     1  C    0.000000
     2  C    1.384238   0.000000
     3  C    2.480509   1.443109   0.000000
     4  C    2.766804   2.391967   1.407149   0.000000
     5  C    2.420758   2.791792   2.481309   1.397360   0.000000
     6  C    1.427911   2.461100   2.921631   2.453658   1.426262
     7  N    4.158851   3.761002   2.540913   1.412665   2.258191
     8  C    3.819468   4.192142   3.629849   2.267103   1.430490
     9  C    4.663575   4.630756   3.642170   2.279313   2.318907
    10  H    4.890639   4.250808   2.864046   2.146279   3.227651
    11  H    4.426593   5.036295   4.642555   3.319444   2.256653
    12  H    5.742824   5.683937   4.616909   3.305732   3.379269
    13  H    2.136898   1.087663   2.179334   3.382544   3.879394
    14  H    3.464277   2.220212   1.084196   2.201026   3.471462
    15  H    1.087418   2.134266   3.453101   3.854040   3.412226
    16  H    2.205161   3.447243   4.006221   3.443788   2.200673
                    6          7          8          9         10
     6  C    0.000000
     7  N    3.616887   0.000000
     8  C    2.617253   2.217576   0.000000
     9  C    3.727569   1.339994   1.429544   0.000000
    10  H    4.530599   1.011801   3.197857   2.086969   0.000000
    11  H    3.058878   3.255907   1.082992   2.228932   4.201282
    12  H    4.768076   2.129008   2.286806   1.080328   2.500085
    13  H    3.436460   4.685025   5.277511   5.654263   5.035603
    14  H    4.005801   2.895683   4.462264   4.175455   2.832290
    15  H    2.173545   5.245221   4.753611   5.702605   5.973082
    16  H    1.084592   4.458057   2.972229   4.296158   5.425185
                   11         12         13         14         15
    11  H    0.000000
    12  H    2.749337   0.000000
    13  H    6.121451   6.688028   0.000000
    14  H    5.520414   5.021040   2.536656   0.000000
    15  H    5.225962   6.777260   2.440312   4.347466   0.000000
    16  H    3.026465   5.252097   4.334251   5.090393   2.531262
                   16
    16  H    0.000000
 Stoichiometry    C8H7N
 Framework group  C1[X(C8H7N)]
 Deg. of freedom    42
 Full point group                 C1      NOp   1
 Largest Abelian subgroup         C1      NOp   1
 Largest concise Abelian subgroup C1      NOp   1
                         Standard orientation:                         
 ---------------------------------------------------------------------
 Center     Atomic      Atomic             Coordinates (Angstroms)
 Number     Number       Type             X           Y           Z
 ---------------------------------------------------------------------
      1          6           0       -2.192942    0.650026   -0.000039
      2          6           0       -2.139968   -0.733198    0.000013
      3          6           0       -0.895733   -1.464253    0.000049
      4          6           0        0.250481   -0.648006    0.000036
      5          6           0        0.225786    0.749135   -0.000024
      6          6           0       -1.013559    1.455001   -0.000061
      7          7           0        1.608826   -1.035977    0.000039
      8          6           0        1.589366    1.181514   -0.000068
      9          6           0        2.428441    0.024125    0.000048
     10          1           0        1.917868   -1.999425    0.000142
     11          1           0        1.952778    2.201712   -0.000132
     12          1           0        3.504866   -0.067622    0.000084
     13          1           0       -3.068803   -1.299129    0.000023
     14          1           0       -0.860811   -2.547887    0.000031
     15          1           0       -3.164058    1.139323   -0.000068
     16          1           0       -1.054855    2.538806   -0.000078
 ---------------------------------------------------------------------
 Rotational constants (GHZ):           3.8525147           1.6060009           1.1334844

 **********************************************************************

            Population analysis using the CI Density.

 **********************************************************************

 Orbital symmetries:
       Occupied  (A) (A) (A) (A) (A) (A) (A) (A) (A) (A) (A) (A)
                 (A) (A) (A) (A) (A) (A) (A) (A) (A) (A) (A) (A)
                 (A) (A) (A) (A) (A) (A) (A)
       Virtual   (A) (A) (A) (A) (A) (A) (A) (A) (A) (A) (A) (A)
                 (A) (A) (A) (A) (A) (A) (A) (A) (A) (A) (A) (A)
                 (A) (A) (A) (A) (A) (A) (A) (A) (A) (A) (A) (A)
                 (A) (A) (A) (A) (A) (A) (A) (A) (A) (A) (A) (A)
                 (A) (A) (A) (A) (A) (A) (A) (A) (A) (A) (A) (A)
                 (A) (A) (A) (A) (A) (A) (A) (A) (A) (A) (A) (A)
                 (A) (A) (A) (A) (A) (A) (A) (A) (A) (A) (A) (A)
                 (A) (A) (A) (A) (A) (A) (A) (A) (A) (A) (A) (A)
                 (A) (A) (A) (A) (A) (A) (A) (A) (A) (A) (A) (A)
                 (A) (A) (A) (A) (A) (A) (A) (A) (A) (A) (A) (A)
                 (A) (A) (A) (A) (A) (A) (A) (A) (A) (A) (A) (A)
                 (A) (A) (A) (A) (A) (A) (A) (A) (A) (A) (A) (A)
                 (A) (A) (A) (A) (A) (A) (A) (A) (A) (A)
 The electronic state is 1-A.
 Alpha  occ. eigenvalues --  -14.38036 -10.21777 -10.21445 -10.19107 -10.18406
 Alpha  occ. eigenvalues --  -10.18051 -10.17958 -10.17662 -10.16861  -0.99242
 Alpha  occ. eigenvalues --   -0.84412  -0.78104  -0.74618  -0.71432  -0.63448
 Alpha  occ. eigenvalues --   -0.60038  -0.58215  -0.54648  -0.48830  -0.47738
 Alpha  occ. eigenvalues --   -0.44211  -0.43712  -0.42687  -0.40648  -0.39605
 Alpha  occ. eigenvalues --   -0.35494  -0.34777  -0.33940  -0.27695  -0.23809
 Alpha  occ. eigenvalues --   -0.20036
 Alpha virt. eigenvalues --   -0.03029   0.00636   0.01749   0.02520   0.03238
 Alpha virt. eigenvalues --    0.04322   0.04600   0.04765   0.06791   0.07089
 Alpha virt. eigenvalues --    0.07479   0.07514   0.09502   0.09746   0.11468
 Alpha virt. eigenvalues --    0.11615   0.11942   0.13563   0.14313   0.14642
 Alpha virt. eigenvalues --    0.16014   0.16553   0.17127   0.17220   0.17958
 Alpha virt. eigenvalues --    0.18137   0.19145   0.19378   0.20221   0.20404
 Alpha virt. eigenvalues --    0.20630   0.20859   0.22349   0.22669   0.23629
 Alpha virt. eigenvalues --    0.24211   0.24263   0.24768   0.25776   0.26565
 Alpha virt. eigenvalues --    0.27541   0.27830   0.28355   0.29261   0.30410
 Alpha virt. eigenvalues --    0.30710   0.32200   0.33737   0.35348   0.35464
 Alpha virt. eigenvalues --    0.36664   0.39458   0.42091   0.45105   0.50686
 Alpha virt. eigenvalues --    0.57495   0.60387   0.67195   0.67660   0.70119
 Alpha virt. eigenvalues --    0.71959   0.72625   0.72987   0.73538   0.73643
 Alpha virt. eigenvalues --    0.75695   0.75885   0.77613   0.78854   0.79295
 Alpha virt. eigenvalues --    0.81006   0.85296   0.88912   0.89508   0.90454
 Alpha virt. eigenvalues --    0.94047   0.94820   0.95474   0.95958   0.98346
 Alpha virt. eigenvalues --    0.99957   1.03039   1.04715   1.06168   1.08977
 Alpha virt. eigenvalues --    1.11351   1.12443   1.16982   1.17487   1.20777
 Alpha virt. eigenvalues --    1.22350   1.23411   1.24423   1.31471   1.31509
 Alpha virt. eigenvalues --    1.34289   1.35802   1.39551   1.39951   1.43360
 Alpha virt. eigenvalues --    1.46434   1.47123   1.48412   1.49478   1.54020
 Alpha virt. eigenvalues --    1.57553   1.62373   1.78577   1.81521   1.86661
 Alpha virt. eigenvalues --    1.89138   1.89826   1.92467   1.98418   1.99023
 Alpha virt. eigenvalues --    1.99829   2.02755   2.05971   2.11765   2.15575
 Alpha virt. eigenvalues --    2.15800   2.19405   2.21087   2.23573   2.26877
 Alpha virt. eigenvalues --    2.26923   2.29941   2.35865   2.38730   2.45048
 Alpha virt. eigenvalues --    2.51285   2.53979   2.60751   2.63460   2.64793
 Alpha virt. eigenvalues --    2.66176   2.72709   2.78698   2.82177   2.83678
 Alpha virt. eigenvalues --    2.93520   2.97239   3.06718   3.22065   3.39194
 Alpha virt. eigenvalues --    4.14772   4.24467   4.28338   4.31695   4.35625
 Alpha virt. eigenvalues --    4.39973   4.47481   4.51906   4.77265
          Condensed to atoms (all electrons):
               1          2          3          4          5          6
     1  C    5.719696   0.339588   0.467360  -0.474114  -0.140758  -0.273977
     2  C    0.339588   5.916816  -0.387715   0.202162  -0.533280   0.835109
     3  C    0.467360  -0.387715  13.828742  -0.663141  -5.267384  -3.215395
     4  C   -0.474114   0.202162  -0.663141  13.968963  -5.716482  -2.103952
     5  C   -0.140758  -0.533280  -5.267384  -5.716482  17.449569   1.041972
     6  C   -0.273977   0.835109  -3.215395  -2.103952   1.041972  13.256830
     7  N   -0.031300   0.014211  -0.562354  -0.485211   1.092208   0.169190
     8  C    0.185362  -0.387737   3.259403   3.380039  -5.729936  -4.137344
     9  C   -0.094292   0.048313  -1.096066  -0.991404   1.862942   1.008918
    10  H   -0.003086  -0.003965  -0.133997  -0.061159   0.177365   0.018755
    11  H    0.002818   0.001548   0.003960  -0.006501   0.001553   0.040845
    12  H    0.001389  -0.000340   0.038201   0.115575  -0.134034  -0.020057
    13  H    0.043702   0.239297   0.004744   0.000602   0.016585  -0.005643
    14  H    0.009692   0.042130   0.208211   0.053625   0.005442  -0.015469
    15  H    0.245240   0.036863   0.016829  -0.019032   0.027843  -0.014582
    16  H    0.027445   0.007518  -0.024079   0.014247   0.081425   0.222205
               7          8          9         10         11         12
     1  C   -0.031300   0.185362  -0.094292  -0.003086   0.002818   0.001389
     2  C    0.014211  -0.387737   0.048313  -0.003965   0.001548  -0.000340
     3  C   -0.562354   3.259403  -1.096066  -0.133997   0.003960   0.038201
     4  C   -0.485211   3.380039  -0.991404  -0.061159  -0.006501   0.115575
     5  C    1.092208  -5.729936   1.862942   0.177365   0.001553  -0.134034
     6  C    0.169190  -4.137344   1.008918   0.018755   0.040845  -0.020057
     7  N    7.132011  -0.819646   0.630996   0.262516   0.006043  -0.056866
     8  C   -0.819646  11.702436  -1.752938  -0.009811   0.269824   0.071458
     9  C    0.630996  -1.752938   6.333813  -0.019329  -0.021368   0.301105
    10  H    0.262516  -0.009811  -0.019329   0.325615  -0.000075  -0.002213
    11  H    0.006043   0.269824  -0.021368  -0.000075   0.462858  -0.000471
    12  H   -0.056866   0.071458   0.301105  -0.002213  -0.000471   0.450210
    13  H   -0.000478   0.000773   0.001164  -0.000002  -0.000000  -0.000000
    14  H   -0.009025  -0.005164   0.006057   0.002122   0.000002   0.000001
    15  H    0.000287   0.008626  -0.000167  -0.000000  -0.000002  -0.000000
    16  H   -0.000772  -0.037121   0.003590   0.000004   0.001369  -0.000001
              13         14         15         16
     1  C    0.043702   0.009692   0.245240   0.027445
     2  C    0.239297   0.042130   0.036863   0.007518
     3  C    0.004744   0.208211   0.016829  -0.024079
     4  C    0.000602   0.053625  -0.019032   0.014247
     5  C    0.016585   0.005442   0.027843   0.081425
     6  C   -0.005643  -0.015469  -0.014582   0.222205
     7  N   -0.000478  -0.009025   0.000287  -0.000772
     8  C    0.000773  -0.005164   0.008626  -0.037121
     9  C    0.001164   0.006057  -0.000167   0.003590
    10  H   -0.000002   0.002122  -0.000000   0.000004
    11  H   -0.000000   0.000002  -0.000002   0.001369
    12  H   -0.000000   0.000001  -0.000000  -0.000001
    13  H    0.517115  -0.003399  -0.004955  -0.000135
    14  H   -0.003399   0.512590  -0.000127   0.000013
    15  H   -0.004955  -0.000127   0.517864  -0.003261
    16  H   -0.000135   0.000013  -0.003261   0.510339
 Mulliken charges:
               1
     1  C   -0.024764
     2  C   -0.370518
     3  C   -0.477319
     4  C   -1.214218
     5  C    1.764971
     6  C   -0.807404
     7  N   -0.341811
     8  C    0.001776
     9  C   -0.221332
    10  H    0.447259
    11  H    0.237599
    12  H    0.236043
    13  H    0.190630
    14  H    0.193299
    15  H    0.188574
    16  H    0.197214
 Sum of Mulliken charges =  -0.00000
 Mulliken charges with hydrogens summed into heavy atoms:
               1
     1  C    0.163810
     2  C   -0.179888
     3  C   -0.284020
     4  C   -1.214218
     5  C    1.764971
     6  C   -0.610189
     7  N    0.105449
     8  C    0.239375
     9  C    0.014711
 Electronic spatial extent (au):  <R**2>=           1024.0806
 Charge=              0.0000 electrons
 Dipole moment (field-independent basis, Debye):
    X=              4.9136    Y=             -1.1719    Z=              0.0000  Tot=              5.0514
 Quadrupole moment (field-independent basis, Debye-Ang):
   XX=            -43.4199   YY=            -46.2540   ZZ=            -60.1154
   XY=             -2.2138   XZ=              0.0004   YZ=             -0.0004
 Traceless Quadrupole moment (field-independent basis, Debye-Ang):
   XX=              6.5099   YY=              3.6757   ZZ=            -10.1856
   XY=             -2.2138   XZ=              0.0004   YZ=             -0.0004
 Octapole moment (field-independent basis, Debye-Ang**2):
  XXX=             31.5703  YYY=             -8.3765  ZZZ=             -0.0004  XYY=             16.8389
  XXY=             -6.8003  XXZ=              0.0007  XZZ=              6.0875  YZZ=             -1.1380
  YYZ=             -0.0004  XYZ=             -0.0012
 Hexadecapole moment (field-independent basis, Debye-Ang**3):
 XXXX=           -827.7987 YYYY=           -396.0407 ZZZZ=            -82.3586 XXXY=            -17.1729
 XXXZ=             -0.0002 YYYX=            -15.2859 YYYZ=              0.0055 ZZZX=             -0.0047
 ZZZY=              0.0101 XXYY=           -196.2374 XXZZ=           -197.4658 YYZZ=           -103.7967
 XXYZ=             -0.0004 YYXZ=              0.0001 ZZXY=             -1.8957
 N-N= 3.975517154227D+02 E-N=-1.637207149881D+03  KE= 3.600576130454D+02
 Unable to Open any file for archive entry.
 1\1\GINC-EXP-2-16\FOpt\RB3PW91 TD-FC\6-31+G(d)\C8H7N1\SCAPARAS\14-Jun-
 2021\0\\# td= (nstates=6, root=1) B3PW91/6-31+G* Opt density=current\\
 FuncsB3PW91-V-1st\\0,1\C,-2.1826564365,0.6842370723,-0.000005366\C,-2.
 1501365103,-0.6996183969,0.0000466406\C,-0.9168444177,-1.4489873157,0.
 0000830322\C,0.2413113801,-0.6497737651,0.0000697513\C,0.2372723681,0.
 74758004,0.0000094271\C,-0.9915023653,1.4716896516,-0.0000268987\N,1.5
 937722533,-1.0577822604,0.0000725072\C,1.6070953654,1.1597537842,-0.00
 00346123\C,2.4289689059,-0.0099124511,0.0000819641\H,1.8885380123,-2.0
 256941937,0.0001761813\H,1.9855495083,2.1744679311,-0.0000985281\H,3.5
 039199128,-0.1175625555,0.0001177576\H,-3.0872353681,-1.2517566827,0.0
 000571079\H,-0.8979451503,-2.5330186518,0.00006522\H,-3.14643253,1.187
 8367313,-0.0000341177\H,-1.0167719279,2.5559870625,-0.0000440665\\Vers
 ion=AS64L-G16RevC.01\State=1-A\HF=-363.6817498\RMSD=5.260e-09\RMSF=4.0
 08e-05\Dipole=1.9331493,-0.4610579,0.0000162\Quadrupole=4.8399426,2.73
 28267,-7.5727693,-1.6458823,0.0002942,-0.0003327\PG=C01 [X(C8H7N1)]\\@
 The archive entry for this job was punched.


 YE HAVE SOWN MUCH, AND BRING IN LITTLE.
 YE EAT, BUT YE HAVE NOT ENOUGH.
 YE DRINK, BUT YE ARE NOT FILLED WITH DRINK.
 YE CLOTHE YOU, BUT THERE IS NONE WARM.
 AND HE THAT EARNETH WAGES EARNETH WAGES TO PUT
 IT INTO A BAG WITH HOLES.
                                     HAGGAI I,6
 Job cpu time:       0 days  1 hours 49 minutes 43.3 seconds.
 Elapsed time:       0 days  0 hours 27 minutes 50.1 seconds.
 File lengths (MBytes):  RWF=    238 Int=      0 D2E=      0 Chk=     14 Scr=      1
 Normal termination of Gaussian 16 at Mon Jun 14 10:59:57 2021.
