 Entering Gaussian System, Link 0=/opt/gaussian/16.C.01/g16/g16
 Initial command:
 /opt/gaussian/16.C.01/g16/l1.exe "/scratch/scaparas/38465411/Gau-30886.inp" -scrdir="/scratch/scaparas/38465411/"
 Entering Link 1 = /opt/gaussian/16.C.01/g16/l1.exe PID=     30887.
  
 Copyright (c) 1988-2019, Gaussian, Inc.  All Rights Reserved.
  
 This is part of the Gaussian(R) 16 program.  It is based on
 the Gaussian(R) 09 system (copyright 2009, Gaussian, Inc.),
 the Gaussian(R) 03 system (copyright 2003, Gaussian, Inc.),
 the Gaussian(R) 98 system (copyright 1998, Gaussian, Inc.),
 the Gaussian(R) 94 system (copyright 1995, Gaussian, Inc.),
 the Gaussian 92(TM) system (copyright 1992, Gaussian, Inc.),
 the Gaussian 90(TM) system (copyright 1990, Gaussian, Inc.),
 the Gaussian 88(TM) system (copyright 1988, Gaussian, Inc.),
 the Gaussian 86(TM) system (copyright 1986, Carnegie Mellon
 University), and the Gaussian 82(TM) system (copyright 1983,
 Carnegie Mellon University). Gaussian is a federally registered
 trademark of Gaussian, Inc.
  
 This software contains proprietary and confidential information,
 including trade secrets, belonging to Gaussian, Inc.
  
 This software is provided under written license and may be
 used, copied, transmitted, or stored only in accord with that
 written license.
  
 The following legend is applicable only to US Government
 contracts under FAR:
  
                    RESTRICTED RIGHTS LEGEND
  
 Use, reproduction and disclosure by the US Government is
 subject to restrictions as set forth in subparagraphs (a)
 and (c) of the Commercial Computer Software - Restricted
 Rights clause in FAR 52.227-19.
  
 Gaussian, Inc.
 340 Quinnipiac St., Bldg. 40, Wallingford CT 06492
  
  
 ---------------------------------------------------------------
 Warning -- This program may not be used in any manner that
 competes with the business of Gaussian, Inc. or will provide
 assistance to any competitor of Gaussian, Inc.  The licensee
 of this program is prohibited from giving any competitor of
 Gaussian, Inc. access to this program.  By using this program,
 the user acknowledges that Gaussian, Inc. is engaged in the
 business of creating and licensing software in the field of
 computational chemistry and represents and warrants to the
 licensee that it is not a competitor of Gaussian, Inc. and that
 it will not use this program in any manner prohibited above.
 ---------------------------------------------------------------
  

 Cite this work as:
 Gaussian 16, Revision C.01,
 M. J. Frisch, G. W. Trucks, H. B. Schlegel, G. E. Scuseria, 
 M. A. Robb, J. R. Cheeseman, G. Scalmani, V. Barone, 
 G. A. Petersson, H. Nakatsuji, X. Li, M. Caricato, A. V. Marenich, 
 J. Bloino, B. G. Janesko, R. Gomperts, B. Mennucci, H. P. Hratchian, 
 J. V. Ortiz, A. F. Izmaylov, J. L. Sonnenberg, D. Williams-Young, 
 F. Ding, F. Lipparini, F. Egidi, J. Goings, B. Peng, A. Petrone, 
 T. Henderson, D. Ranasinghe, V. G. Zakrzewski, J. Gao, N. Rega, 
 G. Zheng, W. Liang, M. Hada, M. Ehara, K. Toyota, R. Fukuda, 
 J. Hasegawa, M. Ishida, T. Nakajima, Y. Honda, O. Kitao, H. Nakai, 
 T. Vreven, K. Throssell, J. A. Montgomery, Jr., J. E. Peralta, 
 F. Ogliaro, M. J. Bearpark, J. J. Heyd, E. N. Brothers, K. N. Kudin, 
 V. N. Staroverov, T. A. Keith, R. Kobayashi, J. Normand, 
 K. Raghavachari, A. P. Rendell, J. C. Burant, S. S. Iyengar, 
 J. Tomasi, M. Cossi, J. M. Millam, M. Klene, C. Adamo, R. Cammi, 
 J. W. Ochterski, R. L. Martin, K. Morokuma, O. Farkas, 
 J. B. Foresman, and D. J. Fox, Gaussian, Inc., Wallingford CT, 2019.
 
 ******************************************
 Gaussian 16:  ES64L-G16RevC.01  3-Jul-2019
                15-Feb-2021 
 ******************************************
 %NProcShared=2
 Will use up to    2 processors via shared memory.
 %Chk=FuncsAPFD2nd.chk
 -----------------------------------------------------------
 # td= (nstates=6, root=2) APFD/6-31G(d) Opt density=current
 -----------------------------------------------------------
 1/18=20,19=15,26=3,38=1/1,3;
 2/9=110,12=2,17=6,18=5,40=1/2;
 3/5=1,6=6,7=1,11=9,25=1,30=1,71=1,74=-44/1,2,3,8;
 4//1;
 5/5=2,38=5/2;
 8/6=1,10=2,107=2,108=6/1;
 9/8=2,15=2,41=6,42=1,70=2/14;
 10/5=4,28=2/2;
 6/7=2,8=2,9=2,10=2,22=-1/1;
 7/12=6,13=5,14=2/1,2,3,16;
 1/18=20,19=15,26=3/3(2);
 2/9=110/2;
 99//99;
 2/9=110/2;
 3/5=1,6=6,7=1,11=9,25=1,30=1,71=1,74=-44/1,2,3,8;
 4/5=5,16=3,69=1/1;
 5/5=2,38=5/2;
 8/6=1,10=2,107=2,108=6/1;
 9/8=2,15=2,41=6,42=1,49=4,70=2/14;
 10/5=4,28=2/2;
 7/12=6,13=5,14=2/1,2,3,16;
 1/18=20,19=15,26=3/3(-8);
 2/9=110/2;
 6/7=2,8=2,9=2,10=2,22=-1/1;
 99/9=10/99;
 ------------
 FuncsAPFD2nd
 ------------
 Symbolic Z-matrix:
 Charge =  0 Multiplicity = 1
 C                    -2.15936   0.69162   0.00011 
 C                    -2.13588  -0.71874  -0.00002 
 C                    -0.93512  -1.41882  -0.00005 
 C                     0.24791  -0.67197  -0.00001 
 C                     0.24999   0.75191  -0.00006 
 C                    -0.98269   1.42884  -0.00006 
 N                     1.56678  -1.08097  -0.00025 
 C                     1.62599   1.16698  -0.0001 
 C                     2.39038   0.03047   0.00027 
 H                     1.88117  -2.03854   0.00076 
 H                     1.99815   2.18234  -0.00037 
 H                     3.46533  -0.08657   0.0004 
 H                    -3.07324  -1.26832   0.00023 
 H                    -0.91789  -2.50582  -0.00015 
 H                    -3.11663   1.20635   0.00023 
 H                    -1.01169   2.51556   0.00019 
 

 GradGradGradGradGradGradGradGradGradGradGradGradGradGradGradGradGradGrad
 Berny optimization.
 Initialization pass.
                           ----------------------------
                           !    Initial Parameters    !
                           ! (Angstroms and Degrees)  !
 --------------------------                            --------------------------
 ! Name  Definition              Value          Derivative Info.                !
 --------------------------------------------------------------------------------
 ! R1    R(1,2)                  1.4106         estimate D2E/DX2                !
 ! R2    R(1,6)                  1.3885         estimate D2E/DX2                !
 ! R3    R(1,15)                 1.0869         estimate D2E/DX2                !
 ! R4    R(2,3)                  1.3899         estimate D2E/DX2                !
 ! R5    R(2,13)                 1.0866         estimate D2E/DX2                !
 ! R6    R(3,4)                  1.3991         estimate D2E/DX2                !
 ! R7    R(3,14)                 1.0871         estimate D2E/DX2                !
 ! R8    R(4,5)                  1.4239         estimate D2E/DX2                !
 ! R9    R(4,7)                  1.3808         estimate D2E/DX2                !
 ! R10   R(5,6)                  1.4063         estimate D2E/DX2                !
 ! R11   R(5,8)                  1.4372         estimate D2E/DX2                !
 ! R12   R(6,16)                 1.0871         estimate D2E/DX2                !
 ! R13   R(7,9)                  1.3833         estimate D2E/DX2                !
 ! R14   R(7,10)                 1.0079         estimate D2E/DX2                !
 ! R15   R(8,9)                  1.3697         estimate D2E/DX2                !
 ! R16   R(8,11)                 1.0814         estimate D2E/DX2                !
 ! R17   R(9,12)                 1.0813         estimate D2E/DX2                !
 ! A1    A(2,1,6)              121.1146         estimate D2E/DX2                !
 ! A2    A(2,1,15)             119.221          estimate D2E/DX2                !
 ! A3    A(6,1,15)             119.6644         estimate D2E/DX2                !
 ! A4    A(1,2,3)              121.1973         estimate D2E/DX2                !
 ! A5    A(1,2,13)             119.4296         estimate D2E/DX2                !
 ! A6    A(3,2,13)             119.3731         estimate D2E/DX2                !
 ! A7    A(2,3,4)              117.4922         estimate D2E/DX2                !
 ! A8    A(2,3,14)             121.1516         estimate D2E/DX2                !
 ! A9    A(4,3,14)             121.3562         estimate D2E/DX2                !
 ! A10   A(3,4,5)              122.348          estimate D2E/DX2                !
 ! A11   A(3,4,7)              130.5063         estimate D2E/DX2                !
 ! A12   A(5,4,7)              107.1457         estimate D2E/DX2                !
 ! A13   A(4,5,6)              118.6898         estimate D2E/DX2                !
 ! A14   A(4,5,8)              106.8696         estimate D2E/DX2                !
 ! A15   A(6,5,8)              134.4406         estimate D2E/DX2                !
 ! A16   A(1,6,5)              119.1581         estimate D2E/DX2                !
 ! A17   A(1,6,16)             120.5398         estimate D2E/DX2                !
 ! A18   A(5,6,16)             120.3021         estimate D2E/DX2                !
 ! A19   A(4,7,9)              109.3098         estimate D2E/DX2                !
 ! A20   A(4,7,10)             125.4054         estimate D2E/DX2                !
 ! A21   A(9,7,10)             125.2847         estimate D2E/DX2                !
 ! A22   A(5,8,9)              107.1379         estimate D2E/DX2                !
 ! A23   A(5,8,11)             126.9153         estimate D2E/DX2                !
 ! A24   A(9,8,11)             125.9467         estimate D2E/DX2                !
 ! A25   A(7,9,8)              109.5369         estimate D2E/DX2                !
 ! A26   A(7,9,12)             120.3254         estimate D2E/DX2                !
 ! A27   A(8,9,12)             130.1377         estimate D2E/DX2                !
 ! D1    D(6,1,2,3)              0.0131         estimate D2E/DX2                !
 ! D2    D(6,1,2,13)           179.9933         estimate D2E/DX2                !
 ! D3    D(15,1,2,3)          -179.994          estimate D2E/DX2                !
 ! D4    D(15,1,2,13)           -0.0138         estimate D2E/DX2                !
 ! D5    D(2,1,6,5)             -0.0143         estimate D2E/DX2                !
 ! D6    D(2,1,6,16)          -179.991          estimate D2E/DX2                !
 ! D7    D(15,1,6,5)           179.9928         estimate D2E/DX2                !
 ! D8    D(15,1,6,16)            0.0162         estimate D2E/DX2                !
 ! D9    D(1,2,3,4)             -0.0029         estimate D2E/DX2                !
 ! D10   D(1,2,3,14)           180.0            estimate D2E/DX2                !
 ! D11   D(13,2,3,4)          -179.9831         estimate D2E/DX2                !
 ! D12   D(13,2,3,14)            0.0198         estimate D2E/DX2                !
 ! D13   D(2,3,4,5)             -0.0057         estimate D2E/DX2                !
 ! D14   D(2,3,4,7)           -179.9877         estimate D2E/DX2                !
 ! D15   D(14,3,4,5)           179.9914         estimate D2E/DX2                !
 ! D16   D(14,3,4,7)             0.0093         estimate D2E/DX2                !
 ! D17   D(3,4,5,6)              0.0043         estimate D2E/DX2                !
 ! D18   D(3,4,5,8)           -179.9957         estimate D2E/DX2                !
 ! D19   D(7,4,5,6)            179.9901         estimate D2E/DX2                !
 ! D20   D(7,4,5,8)             -0.01           estimate D2E/DX2                !
 ! D21   D(3,4,7,9)           -179.9844         estimate D2E/DX2                !
 ! D22   D(3,4,7,10)            -0.0882         estimate D2E/DX2                !
 ! D23   D(5,4,7,9)              0.0315         estimate D2E/DX2                !
 ! D24   D(5,4,7,10)           179.9277         estimate D2E/DX2                !
 ! D25   D(4,5,6,1)              0.0057         estimate D2E/DX2                !
 ! D26   D(4,5,6,16)           179.9824         estimate D2E/DX2                !
 ! D27   D(8,5,6,1)           -179.9942         estimate D2E/DX2                !
 ! D28   D(8,5,6,16)            -0.0175         estimate D2E/DX2                !
 ! D29   D(4,5,8,9)             -0.0151         estimate D2E/DX2                !
 ! D30   D(4,5,8,11)           179.9849         estimate D2E/DX2                !
 ! D31   D(6,5,8,9)            179.9849         estimate D2E/DX2                !
 ! D32   D(6,5,8,11)            -0.0151         estimate D2E/DX2                !
 ! D33   D(4,7,9,8)             -0.0422         estimate D2E/DX2                !
 ! D34   D(4,7,9,12)           179.9865         estimate D2E/DX2                !
 ! D35   D(10,7,9,8)          -179.9385         estimate D2E/DX2                !
 ! D36   D(10,7,9,12)            0.0902         estimate D2E/DX2                !
 ! D37   D(5,8,9,7)              0.0348         estimate D2E/DX2                !
 ! D38   D(5,8,9,12)          -179.9976         estimate D2E/DX2                !
 ! D39   D(11,8,9,7)          -179.9652         estimate D2E/DX2                !
 ! D40   D(11,8,9,12)            0.0024         estimate D2E/DX2                !
 --------------------------------------------------------------------------------
 Trust Radius=3.00D-01 FncErr=1.00D-07 GrdErr=1.00D-06 EigMax=2.50D+02 EigMin=1.00D-04
 Number of steps in this run=     94 maximum allowed number of steps=    100.
 GradGradGradGradGradGradGradGradGradGradGradGradGradGradGradGradGradGrad

                          Input orientation:                          
 ---------------------------------------------------------------------
 Center     Atomic      Atomic             Coordinates (Angstroms)
 Number     Number       Type             X           Y           Z
 ---------------------------------------------------------------------
      1          6           0       -2.159360    0.691620    0.000110
      2          6           0       -2.135880   -0.718740   -0.000020
      3          6           0       -0.935120   -1.418820   -0.000050
      4          6           0        0.247910   -0.671970   -0.000010
      5          6           0        0.249990    0.751910   -0.000060
      6          6           0       -0.982690    1.428840   -0.000060
      7          7           0        1.566780   -1.080970   -0.000250
      8          6           0        1.625990    1.166980   -0.000100
      9          6           0        2.390380    0.030470    0.000270
     10          1           0        1.881170   -2.038540    0.000760
     11          1           0        1.998150    2.182340   -0.000370
     12          1           0        3.465330   -0.086570    0.000400
     13          1           0       -3.073240   -1.268320    0.000230
     14          1           0       -0.917890   -2.505820   -0.000150
     15          1           0       -3.116630    1.206350    0.000230
     16          1           0       -1.011690    2.515560    0.000190
 ---------------------------------------------------------------------
                    Distance matrix (angstroms):
                    1          2          3          4          5
     1  C    0.000000
     2  C    1.410555   0.000000
     3  C    2.439820   1.389941   0.000000
     4  C    2.766645   2.384249   1.399051   0.000000
     5  C    2.410104   2.802711   2.473167   1.423882   0.000000
     6  C    1.388541   2.437611   2.848057   2.434703   1.406319
     7  N    4.126281   3.720336   2.524608   1.380833   2.256853
     8  C    3.815081   4.208041   3.639457   2.298008   1.437240
     9  C    4.597527   4.587848   3.627588   2.254684   2.258704
    10  H    4.876439   4.228305   2.883668   2.129566   3.232238
    11  H    4.416688   5.050393   4.644613   3.348197   2.258804
    12  H    5.678267   5.636771   4.597701   3.270242   3.322869
    13  H    2.162531   1.086592   2.143410   3.374266   3.889111
    14  H    3.429996   2.162673   1.087137   2.173038   3.460744
    15  H    1.086882   2.160519   3.413283   3.853338   3.397153
    16  H    2.154972   3.424106   3.935125   3.427381   2.168478
                    6          7          8          9         10
     6  C    0.000000
     7  N    3.577561   0.000000
     8  C    2.621790   2.248730   0.000000
     9  C    3.651444   1.383335   1.369652   0.000000
    10  H    4.497157   1.007860   3.215661   2.130750   0.000000
    11  H    3.074601   3.291697   1.081415   2.187325   4.222501
    12  H    4.699080   2.143204   2.225884   1.081303   2.513911
    13  H    3.412488   4.643801   5.292773   5.615870   5.013922
    14  H    3.935194   2.864225   4.467749   4.168623   2.837796
    15  H    2.145507   5.212117   4.742783   5.631150   5.958802
    16  H    1.087107   4.425329   2.962435   4.213046   5.395226
                   11         12         13         14         15
    11  H    0.000000
    12  H    2.701957   0.000000
    13  H    6.134008   6.644504   0.000000
    14  H    5.521063   5.006535   2.485345   0.000000
    15  H    5.207066   6.707745   2.475050   4.314471   0.000000
    16  H    3.028229   5.178300   4.309030   5.022256   2.478871
                   16
    16  H    0.000000
 Stoichiometry    C8H7N
 Framework group  C1[X(C8H7N)]
 Deg. of freedom    42
 Full point group                 C1      NOp   1
 Largest Abelian subgroup         C1      NOp   1
 Largest concise Abelian subgroup C1      NOp   1
                         Standard orientation:                         
 ---------------------------------------------------------------------
 Center     Atomic      Atomic             Coordinates (Angstroms)
 Number     Number       Type             X           Y           Z
 ---------------------------------------------------------------------
      1          6           0       -2.159361    0.691618    0.000110
      2          6           0       -2.135879   -0.718742   -0.000020
      3          6           0       -0.935118   -1.418820   -0.000050
      4          6           0        0.247911   -0.671969   -0.000010
      5          6           0        0.249989    0.751911   -0.000060
      6          6           0       -0.982691    1.428840   -0.000060
      7          7           0        1.566782   -1.080967   -0.000250
      8          6           0        1.625989    1.166983   -0.000100
      9          6           0        2.390380    0.030474    0.000270
     10          1           0        1.881173   -2.038537    0.000760
     11          1           0        1.998148    2.182343   -0.000370
     12          1           0        3.465330   -0.086565    0.000400
     13          1           0       -3.073238   -1.268323    0.000230
     14          1           0       -0.917887   -2.505820   -0.000150
     15          1           0       -3.116631    1.206347    0.000230
     16          1           0       -1.011693    2.515560    0.000190
 ---------------------------------------------------------------------
 Rotational constants (GHZ):           3.8785006           1.6312482           1.1482914
 Standard basis: 6-31G(d) (6D, 7F)
 There are   149 symmetry adapted cartesian basis functions of A   symmetry.
 There are   149 symmetry adapted basis functions of A   symmetry.
   149 basis functions,   280 primitive gaussians,   149 cartesian basis functions
    31 alpha electrons       31 beta electrons
       nuclear repulsion energy       399.8542490966 Hartrees.
 NAtoms=   16 NActive=   16 NUniq=   16 SFac= 1.00D+00 NAtFMM=   60 NAOKFM=F Big=F
 Integral buffers will be    131072 words long.
 Regular integral format.
 Two-electron integral symmetry is turned on.
 R6APFD:  NTU= -4 IXU= 1 FactS= 1.050
 Nuclear repulsion after empirical dispersion term =      399.8468435641 Hartrees.
 One-electron integrals computed using PRISM.
 NBasis=   149 RedAO= T EigKep=  4.06D-04  NBF=   149
 NBsUse=   149 1.00D-06 EigRej= -1.00D+00 NBFU=   149
 ExpMin= 1.61D-01 ExpMax= 4.17D+03 ExpMxC= 6.27D+02 IAcc=3 IRadAn=         5 AccDes= 0.00D+00
 Harris functional with IExCor= 3731 and IRadAn=       5 diagonalized for initial guess.
 HarFok:  IExCor= 3731 AccDes= 0.00D+00 IRadAn=         5 IDoV= 1 UseB2=F ITyADJ=14
 ICtDFT=  3500011 ScaDFX=  1.000000  1.000000  1.000000  1.000000
 FoFCou: FMM=F IPFlag=           0 FMFlag=      100000 FMFlg1=           0
         NFxFlg=           0 DoJE=T BraDBF=F KetDBF=T FulRan=T
         wScrn=  0.000000 ICntrl=       500 IOpCl=  0 I1Cent=   200000004 NGrid=           0
         NMat0=    1 NMatS0=      1 NMatT0=    0 NMatD0=    1 NMtDS0=    0 NMtDT0=    0
 Petite list used in FoFCou.
 Keep R1 ints in memory in canonical form, NReq=64400683.
 Requested convergence on RMS density matrix=1.00D-08 within 128 cycles.
 Requested convergence on MAX density matrix=1.00D-06.
 Requested convergence on             energy=1.00D-06.
 No special actions if energy rises.
 Integral accuracy reduced to 1.0D-05 until final iterations.
 Initial convergence to 1.0D-05 achieved.  Increase integral accuracy.
 SCF Done:  E(RAPFD) =  -363.518094167     A.U. after   14 cycles
            NFock= 14  Conv=0.48D-08     -V/T= 2.0095
 DoSCS=F DFT=T ScalE2(SS,OS)=  1.000000  1.000000
 ExpMin= 1.61D-01 ExpMax= 4.17D+03 ExpMxC= 6.27D+02 IAcc=3 IRadAn=         5 AccDes= 0.00D+00
 HarFok:  IExCor=  205 AccDes= 0.00D+00 IRadAn=         5 IDoV=-2 UseB2=F ITyADJ=14
 ICtDFT= 12500011 ScaDFX=  1.000000  1.000000  1.000000  1.000000
 Range of M.O.s used for correlation:    10   149
 NBasis=   149 NAE=    31 NBE=    31 NFC=     9 NFV=     0
 NROrb=    140 NOA=    22 NOB=    22 NVA=   118 NVB=   118

 **** Warning!!: The largest alpha MO coefficient is  0.10540633D+02

 Orbital symmetries:
       Occupied  (A) (A) (A) (A) (A) (A) (A) (A) (A) (A) (A) (A)
                 (A) (A) (A) (A) (A) (A) (A) (A) (A) (A) (A) (A)
                 (A) (A) (A) (A) (A) (A) (A)
       Virtual   (A) (A) (A) (A) (A) (A) (A) (A) (A) (A) (A) (A)
                 (A) (A) (A) (A) (A) (A) (A) (A) (A) (A) (A) (A)
                 (A) (A) (A) (A) (A) (A) (A) (A) (A) (A) (A) (A)
                 (A) (A) (A) (A) (A) (A) (A) (A) (A) (A) (A) (A)
                 (A) (A) (A) (A) (A) (A) (A) (A) (A) (A) (A) (A)
                 (A) (A) (A) (A) (A) (A) (A) (A) (A) (A) (A) (A)
                 (A) (A) (A) (A) (A) (A) (A) (A) (A) (A) (A) (A)
                 (A) (A) (A) (A) (A) (A) (A) (A) (A) (A) (A) (A)
                 (A) (A) (A) (A) (A) (A) (A) (A) (A) (A) (A) (A)
                 (A) (A) (A) (A) (A) (A) (A) (A) (A) (A)
    24 initial guesses have been made.
 Convergence on wavefunction:    0.000001000000000
 Iteration     1 Dimension    24 NMult     0 NNew     24
 CISAX will form    24 AO SS matrices at one time.
 New state      1 was old state      2
 New state      2 was old state      1
 New state      3 was old state      5
 New state      4 was old state      7
 New state      5 was old state     10
 New state      6 was old state      9
 Iteration     2 Dimension    36 NMult    24 NNew     12
 New state      4 was old state      5
 New state      5 was old state      4
 New state      6 was old state      7
 Iteration     3 Dimension    48 NMult    36 NNew     12
 New state      5 was old state      6
 New state      6 was old state      5
 Iteration     4 Dimension    60 NMult    48 NNew     12
 Iteration     5 Dimension    72 NMult    60 NNew     12
 Iteration     6 Dimension    84 NMult    72 NNew     12
 Iteration     7 Dimension    96 NMult    84 NNew     12
 Iteration     8 Dimension   108 NMult    96 NNew     12
 Iteration     9 Dimension   116 NMult   108 NNew      8
 Iteration    10 Dimension   124 NMult   116 NNew      8
 Iteration    11 Dimension   128 NMult   124 NNew      4
 Iteration    12 Dimension   130 NMult   128 NNew      2
 ***********************************************************************
 Excited states from <AA,BB:AA,BB> singles matrix:
 ***********************************************************************
 
 Ground to excited state transition densities written to RWF  633
 Ground to excited state transition electric dipole moments (Au):
       state          X           Y           Z        Dip. S.      Osc.
         1        -0.3825      0.6310     -0.0001      0.5445      0.0661
         2        -0.5883      0.0215     -0.0002      0.3465      0.0431
         3        -1.4535     -0.5243     -0.0001      2.3876      0.3704
         4         1.4792      0.1244     -0.0001      2.2036      0.3589
         5         0.6677     -0.9573      0.0001      1.3623      0.2309
         6        -0.0038      0.0016      0.0259      0.0007      0.0001
 Ground to excited state transition velocity dipole moments (Au):
       state          X           Y           Z        Dip. S.      Osc.
         1         0.0629     -0.1263      0.0000      0.0199      0.0728
         2         0.1045     -0.0056      0.0000      0.0110      0.0392
         3         0.3346      0.1262      0.0000      0.1279      0.3664
         4        -0.3530     -0.0293      0.0000      0.1255      0.3424
         5        -0.1713      0.2460     -0.0001      0.0899      0.2356
         6         0.0010     -0.0004     -0.0197      0.0004      0.0010
 Ground to excited state transition magnetic dipole moments (Au):
       state          X           Y           Z
         1         0.0002      0.0001      0.0724
         2        -0.0000     -0.0001     -0.0235
         3        -0.0001     -0.0001     -0.4714
         4         0.0001      0.0001      0.2196
         5         0.0004      0.0002     -0.0002
         6         0.1966      0.0117      0.0011
 Ground to excited state transition velocity quadrupole moments (Au):
       state          XX          YY          ZZ          XY          XZ          YZ
         1         0.1495     -0.0785     -0.0088     -0.0240     -0.0000      0.0001
         2         0.1049     -0.1564      0.0062      0.0010      0.0001     -0.0000
         3         0.1501     -0.0887     -0.0053     -0.3294      0.0001     -0.0001
         4         0.2713     -0.0319      0.0340      0.0528     -0.0001      0.0001
         5         0.3469      0.0381      0.0250     -0.2037     -0.0003      0.0003
         6        -0.0018     -0.0000     -0.0001      0.0011     -0.0629      0.1230
 <0|del|b> * <b|rxdel|0> + <0|del|b> * <b|delr+rdel|0>
 Rotatory Strengths (R) in cgs (10**-40 erg-esu-cm/Gauss)
       state          XX          YY          ZZ    R(velocity)    E-M Angle
         1        -0.0453      0.0338     -0.0116     -0.0077       90.00
         2         0.0006     -0.0126     -0.0058     -0.0059       90.00
         3        -0.0764     -0.1003     -0.0149     -0.0639       90.00
         4        -0.0011     -0.0941      0.0412     -0.0180       90.00
         5         0.1723     -0.1891     -0.0458     -0.0208       90.00
         6        -0.1017      0.4418      0.1306      0.1569       87.48
 1/2[<0|r|b>*<b|rxdel|0> + (<0|rxdel|b>*<b|r|0>)*]
 Rotatory Strengths (R) in cgs (10**-40 erg-esu-cm/Gauss)
       state          XX          YY          ZZ     R(length)
         1         0.0543     -0.0664      0.0037     -0.0028
         2        -0.0179      0.0015     -0.0027     -0.0064
         3        -0.1062     -0.0369     -0.0287     -0.0573
         4        -0.0582     -0.0050      0.0131     -0.0167
         5        -0.1802      0.1180      0.0000     -0.0207
         6         0.5346     -0.0133     -0.0194      0.1673
  1/2[<0|del|b>*<b|r|0> + (<0|r|b>*<b|del|0>)*] (Au)
       state          X           Y           Z        Dip. S.   Osc.(frdel)
         1        -0.0241     -0.0797     -0.0000      0.1038      0.0692
         2        -0.0615     -0.0001     -0.0000      0.0616      0.0411
         3        -0.4863     -0.0662     -0.0000      0.5525      0.3683
         4        -0.5222     -0.0036     -0.0000      0.5258      0.3505
         5        -0.1144     -0.2355     -0.0000      0.3499      0.2333
         6        -0.0000     -0.0000     -0.0005      0.0005      0.0003

 Excitation energies and oscillator strengths:
 
 Excited State   1:      Singlet-A      4.9579 eV  250.07 nm  f=0.0661  <S**2>=0.000
      30 -> 32        -0.24942
      30 -> 33         0.15651
      31 -> 32         0.62249
 
 Excited State   2:      Singlet-A      5.0723 eV  244.43 nm  f=0.0431  <S**2>=0.000
      30 -> 32         0.51825
      31 -> 32         0.24495
      31 -> 33        -0.40149
 This state for optimization and/or second-order correction.
 Total Energy, E(TD-HF/TD-DFT) =  -363.331690126    
 Copying the excited state density for this state as the 1-particle RhoCI density.
 
 Excited State   3:      Singlet-A      6.3318 eV  195.81 nm  f=0.3704  <S**2>=0.000
      29 -> 32        -0.24931
      30 -> 32         0.31968
      30 -> 33         0.25443
      31 -> 33         0.48609
      31 -> 34        -0.14148
 
 Excited State   4:      Singlet-A      6.6475 eV  186.51 nm  f=0.3589  <S**2>=0.000
      29 -> 32        -0.38544
      29 -> 33        -0.10988
      30 -> 32        -0.21243
      30 -> 33         0.39173
      31 -> 33        -0.29234
      31 -> 34        -0.20447
 
 Excited State   5:      Singlet-A      6.9184 eV  179.21 nm  f=0.2309  <S**2>=0.000
      29 -> 32         0.33124
      29 -> 34        -0.12185
      30 -> 33         0.47310
      31 -> 32        -0.17121
      31 -> 34         0.32870
 
 Excited State   6:      Singlet-A      6.9775 eV  177.69 nm  f=0.0001  <S**2>=0.000
      31 -> 35         0.70164
 SavETr:  write IOETrn=   770 NScale= 10 NData=  16 NLR=1 NState=    6 LETran=     118.
          IDoAtm=1111111111111111
          Differentiating once with respect to electric field.
                with respect to dipole field.
          Differentiating once with respect to nuclear coordinates.
 Keep R1 ints in memory in canonical form, NReq=64412969.
          There are     1 degrees of freedom in the 1st order CPHF.  IDoFFX=0 NUNeed=     1.
 LinEq1:  Iter=  0 NonCon=     1 RMS=8.13D-03 Max=2.47D-01 NDo=     1
 AX will form     1 AO Fock derivatives at one time.
 LinEq1:  Iter=  1 NonCon=     1 RMS=3.39D-03 Max=8.33D-02 NDo=     1
 LinEq1:  Iter=  2 NonCon=     1 RMS=2.80D-03 Max=8.95D-02 NDo=     1
 LinEq1:  Iter=  3 NonCon=     1 RMS=1.11D-03 Max=1.86D-02 NDo=     1
 LinEq1:  Iter=  4 NonCon=     1 RMS=6.04D-04 Max=1.87D-02 NDo=     1
 LinEq1:  Iter=  5 NonCon=     1 RMS=2.74D-04 Max=4.64D-03 NDo=     1
 LinEq1:  Iter=  6 NonCon=     1 RMS=1.86D-04 Max=4.96D-03 NDo=     1
 LinEq1:  Iter=  7 NonCon=     1 RMS=8.28D-05 Max=1.42D-03 NDo=     1
 LinEq1:  Iter=  8 NonCon=     1 RMS=4.04D-05 Max=6.65D-04 NDo=     1
 LinEq1:  Iter=  9 NonCon=     1 RMS=1.62D-05 Max=3.11D-04 NDo=     1
 LinEq1:  Iter= 10 NonCon=     1 RMS=9.64D-06 Max=2.32D-04 NDo=     1
 LinEq1:  Iter= 11 NonCon=     1 RMS=4.23D-06 Max=9.94D-05 NDo=     1
 LinEq1:  Iter= 12 NonCon=     1 RMS=2.77D-06 Max=4.66D-05 NDo=     1
 LinEq1:  Iter= 13 NonCon=     1 RMS=8.85D-07 Max=1.10D-05 NDo=     1
 LinEq1:  Iter= 14 NonCon=     1 RMS=4.69D-07 Max=8.09D-06 NDo=     1
 LinEq1:  Iter= 15 NonCon=     1 RMS=1.91D-07 Max=2.60D-06 NDo=     1
 LinEq1:  Iter= 16 NonCon=     1 RMS=3.65D-08 Max=5.90D-07 NDo=     1
 LinEq1:  Iter= 17 NonCon=     1 RMS=1.52D-08 Max=3.71D-07 NDo=     1
 LinEq1:  Iter= 18 NonCon=     1 RMS=7.79D-09 Max=9.76D-08 NDo=     1
 LinEq1:  Iter= 19 NonCon=     1 RMS=1.29D-09 Max=2.45D-08 NDo=     1
 LinEq1:  Iter= 20 NonCon=     1 RMS=2.15D-10 Max=3.04D-09 NDo=     1
 LinEq1:  Iter= 21 NonCon=     0 RMS=3.73D-11 Max=5.25D-10 NDo=     1
 Linear equations converged to 1.000D-10 1.000D-09 after    21 iterations.
 End of Minotr F.D. properties file   721 does not exist.
 End of Minotr F.D. properties file   722 does not exist.
 End of Minotr F.D. properties file   788 does not exist.

 **********************************************************************

            Population analysis using the CI Density.

 **********************************************************************

 Orbital symmetries:
       Occupied  (A) (A) (A) (A) (A) (A) (A) (A) (A) (A) (A) (A)
                 (A) (A) (A) (A) (A) (A) (A) (A) (A) (A) (A) (A)
                 (A) (A) (A) (A) (A) (A) (A)
       Virtual   (A) (A) (A) (A) (A) (A) (A) (A) (A) (A) (A) (A)
                 (A) (A) (A) (A) (A) (A) (A) (A) (A) (A) (A) (A)
                 (A) (A) (A) (A) (A) (A) (A) (A) (A) (A) (A) (A)
                 (A) (A) (A) (A) (A) (A) (A) (A) (A) (A) (A) (A)
                 (A) (A) (A) (A) (A) (A) (A) (A) (A) (A) (A) (A)
                 (A) (A) (A) (A) (A) (A) (A) (A) (A) (A) (A) (A)
                 (A) (A) (A) (A) (A) (A) (A) (A) (A) (A) (A) (A)
                 (A) (A) (A) (A) (A) (A) (A) (A) (A) (A) (A) (A)
                 (A) (A) (A) (A) (A) (A) (A) (A) (A) (A) (A) (A)
                 (A) (A) (A) (A) (A) (A) (A) (A) (A) (A)
 The electronic state is 1-A.
 Alpha  occ. eigenvalues --  -14.41267 -10.24075 -10.23809 -10.20844 -10.20400
 Alpha  occ. eigenvalues --  -10.20309 -10.20295 -10.19814 -10.19544  -0.99269
 Alpha  occ. eigenvalues --   -0.84772  -0.79113  -0.74319  -0.72491  -0.63037
 Alpha  occ. eigenvalues --   -0.60133  -0.58698  -0.54444  -0.48710  -0.47438
 Alpha  occ. eigenvalues --   -0.43970  -0.43160  -0.42439  -0.41299  -0.39369
 Alpha  occ. eigenvalues --   -0.35647  -0.33593  -0.33587  -0.27952  -0.22284
 Alpha  occ. eigenvalues --   -0.20602
 Alpha virt. eigenvalues --   -0.00162   0.03630   0.07965   0.09204   0.11716
 Alpha virt. eigenvalues --    0.14728   0.15811   0.17986   0.19284   0.19432
 Alpha virt. eigenvalues --    0.20201   0.23325   0.26125   0.27875   0.31382
 Alpha virt. eigenvalues --    0.34589   0.36063   0.40009   0.43902   0.51475
 Alpha virt. eigenvalues --    0.53388   0.54134   0.54441   0.57569   0.57866
 Alpha virt. eigenvalues --    0.58720   0.60391   0.61149   0.62010   0.63247
 Alpha virt. eigenvalues --    0.64170   0.64225   0.64410   0.66193   0.67199
 Alpha virt. eigenvalues --    0.71582   0.73163   0.79422   0.83139   0.83340
 Alpha virt. eigenvalues --    0.84240   0.86111   0.87067   0.87314   0.88419
 Alpha virt. eigenvalues --    0.90732   0.92776   0.95812   0.99206   0.99569
 Alpha virt. eigenvalues --    0.99755   1.06513   1.08336   1.13535   1.14828
 Alpha virt. eigenvalues --    1.21860   1.24277   1.27184   1.31351   1.33259
 Alpha virt. eigenvalues --    1.35257   1.38883   1.42548   1.44989   1.47050
 Alpha virt. eigenvalues --    1.47894   1.51065   1.51085   1.51565   1.56710
 Alpha virt. eigenvalues --    1.61856   1.76041   1.81460   1.83321   1.89928
 Alpha virt. eigenvalues --    1.90551   1.92743   1.95833   1.97294   2.01022
 Alpha virt. eigenvalues --    2.01330   2.06291   2.10991   2.14235   2.15346
 Alpha virt. eigenvalues --    2.17777   2.23635   2.25546   2.26656   2.27301
 Alpha virt. eigenvalues --    2.29054   2.38841   2.39794   2.41457   2.49649
 Alpha virt. eigenvalues --    2.56981   2.60012   2.63265   2.67976   2.68201
 Alpha virt. eigenvalues --    2.73351   2.78357   2.81161   2.85053   2.90974
 Alpha virt. eigenvalues --    2.97627   3.08866   3.23804   3.44925   4.01708
 Alpha virt. eigenvalues --    4.12421   4.13800   4.18451   4.23329   4.35135
 Alpha virt. eigenvalues --    4.42884   4.48284   4.78840
          Condensed to atoms (all electrons):
               1          2          3          4          5          6
     1  C    5.064365   0.483728  -0.052707  -0.024683  -0.011338   0.430075
     2  C    0.483728   4.995801   0.470359  -0.004652  -0.023877  -0.038235
     3  C   -0.052707   0.470359   5.192169   0.445623  -0.066363  -0.037578
     4  C   -0.024683  -0.004652   0.445623   4.822410   0.463652  -0.063844
     5  C   -0.011338  -0.023877  -0.066363   0.463652   4.730995   0.483674
     6  C    0.430075  -0.038235  -0.037578  -0.063844   0.483674   5.216074
     7  N   -0.000201   0.005642  -0.082870   0.238246  -0.042665   0.010831
     8  C    0.007824  -0.000142   0.012351  -0.033643   0.469965  -0.089991
     9  C   -0.000501  -0.000214   0.005373  -0.106651  -0.030667   0.011003
    10  H   -0.000002  -0.000037  -0.002848  -0.024547   0.005682  -0.000113
    11  H   -0.000002   0.000004  -0.000136   0.005876  -0.028539  -0.004368
    12  H    0.000004   0.000001  -0.000091   0.005546   0.001836  -0.000147
    13  H   -0.036051   0.364335  -0.037628   0.002501   0.000973   0.003823
    14  H    0.003956  -0.036495   0.359920  -0.039750   0.003846   0.000445
    15  H    0.366590  -0.039236   0.004232   0.000874   0.002431  -0.035393
    16  H   -0.043103   0.004457   0.000429   0.004761  -0.039691   0.365892
               7          8          9         10         11         12
     1  C   -0.000201   0.007824  -0.000501  -0.000002  -0.000002   0.000004
     2  C    0.005642  -0.000142  -0.000214  -0.000037   0.000004   0.000001
     3  C   -0.082870   0.012351   0.005373  -0.002848  -0.000136  -0.000091
     4  C    0.238246  -0.033643  -0.106651  -0.024547   0.005876   0.005546
     5  C   -0.042665   0.469965  -0.030667   0.005682  -0.028539   0.001836
     6  C    0.010831  -0.089991   0.011003  -0.000113  -0.004368  -0.000147
     7  N    7.048431  -0.078946   0.334679   0.322938   0.003877  -0.044316
     8  C   -0.078946   5.125877   0.490482   0.004394   0.371184  -0.028208
     9  C    0.334679   0.490482   4.958123  -0.029055  -0.047507   0.370821
    10  H    0.322938   0.004394  -0.029055   0.364661  -0.000076  -0.001778
    11  H    0.003877   0.371184  -0.047507  -0.000076   0.518555  -0.000751
    12  H   -0.044316  -0.028208   0.370821  -0.001778  -0.000751   0.503319
    13  H   -0.000103   0.000010   0.000002  -0.000002  -0.000000  -0.000000
    14  H   -0.005524  -0.000265  -0.000017   0.002448   0.000002   0.000002
    15  H    0.000003  -0.000155   0.000004  -0.000000  -0.000002  -0.000000
    16  H   -0.000119  -0.006006  -0.000032   0.000004   0.001971  -0.000001
              13         14         15         16
     1  C   -0.036051   0.003956   0.366590  -0.043103
     2  C    0.364335  -0.036495  -0.039236   0.004457
     3  C   -0.037628   0.359920   0.004232   0.000429
     4  C    0.002501  -0.039750   0.000874   0.004761
     5  C    0.000973   0.003846   0.002431  -0.039691
     6  C    0.003823   0.000445  -0.035393   0.365892
     7  N   -0.000103  -0.005524   0.000003  -0.000119
     8  C    0.000010  -0.000265  -0.000155  -0.006006
     9  C    0.000002  -0.000017   0.000004  -0.000032
    10  H   -0.000002   0.002448  -0.000000   0.000004
    11  H   -0.000000   0.000002  -0.000002   0.001971
    12  H   -0.000000   0.000002  -0.000000  -0.000001
    13  H    0.549078  -0.004782  -0.004528  -0.000163
    14  H   -0.004782   0.564139  -0.000157   0.000017
    15  H   -0.004528  -0.000157   0.553965  -0.004819
    16  H   -0.000163   0.000017  -0.004819   0.565456
 Mulliken charges:
               1
     1  C   -0.187955
     2  C   -0.181438
     3  C   -0.210235
     4  C    0.308281
     5  C    0.080086
     6  C   -0.252148
     7  N   -0.709905
     8  C   -0.244731
     9  C    0.044156
    10  H    0.358332
    11  H    0.179911
    12  H    0.193761
    13  H    0.162532
    14  H    0.152215
    15  H    0.156189
    16  H    0.150947
 Sum of Mulliken charges =  -0.00000
 Mulliken charges with hydrogens summed into heavy atoms:
               1
     1  C   -0.031765
     2  C   -0.018906
     3  C   -0.058020
     4  C    0.308281
     5  C    0.080086
     6  C   -0.101201
     7  N   -0.351573
     8  C   -0.064820
     9  C    0.237918
 Electronic spatial extent (au):  <R**2>=           1008.0277
 Charge=              0.0000 electrons
 Dipole moment (field-independent basis, Debye):
    X=              2.5283    Y=             -1.6175    Z=              0.0020  Tot=              3.0014
 Quadrupole moment (field-independent basis, Debye-Ang):
   XX=            -42.6000   YY=            -44.2030   ZZ=            -56.7985
   XY=             -2.4249   XZ=              0.0028   YZ=             -0.0037
 Traceless Quadrupole moment (field-independent basis, Debye-Ang):
   XX=              5.2671   YY=              3.6642   ZZ=             -8.9313
   XY=             -2.4249   XZ=              0.0028   YZ=             -0.0037
 Octapole moment (field-independent basis, Debye-Ang**2):
  XXX=             19.6135  YYY=            -10.4393  ZZZ=              0.0011  XYY=             10.6704
  XXY=             -7.7743  XXZ=              0.0115  XZZ=              2.7612  YZZ=             -1.7906
  YYZ=              0.0067  XYZ=             -0.0089
 Hexadecapole moment (field-independent basis, Debye-Ang**3):
 XXXX=           -778.0334 YYYY=           -360.5274 ZZZZ=            -58.5523 XXXY=            -16.6156
 XXXZ=              0.0115 YYYX=            -17.3394 YYYZ=             -0.0138 ZZZX=              0.0008
 ZZZY=             -0.0023 XXYY=           -187.3661 XXZZ=           -176.9338 YYZZ=            -87.9784
 XXYZ=             -0.0165 YYXZ=              0.0079 ZZXY=             -2.5606
 N-N= 3.998468435641D+02 E-N=-1.642719787228D+03  KE= 3.603328457457D+02
 R6APFD:  NTU= -4 IXU= 1 FactS= 1.050
 Calling FoFJK, ICntrl=  10005127 FMM=F ISym2X=0 I1Cent= 0 IOpClX= 0 NMat=1 NMatS=1 NMatT=0.
 ***** Axes restored to original set *****
 -------------------------------------------------------------------
 Center     Atomic                   Forces (Hartrees/Bohr)
 Number     Number              X              Y              Z
 -------------------------------------------------------------------
      1        6          -0.022911288   -0.000503322   -0.000009423
      2        6          -0.013090013   -0.002707310    0.000021063
      3        6           0.004770333   -0.027655441   -0.000004250
      4        6           0.011599605   -0.008022720   -0.000016296
      5        6           0.018258328    0.020419165   -0.000009979
      6        6           0.014896357    0.029330451    0.000007714
      7        7           0.003603135    0.002590421    0.000035596
      8        6          -0.031517800    0.010561021    0.000017126
      9        6           0.013626531   -0.024022059   -0.000039563
     10        1          -0.000129689    0.000811385    0.000001575
     11        1          -0.000132779    0.000195996    0.000008781
     12        1           0.000028060   -0.000111812   -0.000000519
     13        1          -0.000035534   -0.000182441   -0.000008873
     14        1           0.000256208    0.000615045    0.000001462
     15        1           0.000171436   -0.000552877    0.000000941
     16        1           0.000607111   -0.000765502   -0.000005354
 -------------------------------------------------------------------
 Cartesian Forces:  Max     0.031517800 RMS     0.010619064

 GradGradGradGradGradGradGradGradGradGradGradGradGradGradGradGradGradGrad
 Berny optimization.
 FormGI is forming the generalized inverse of G from B-inverse, IUseBI=4.
 Internal  Forces:  Max     0.027893269 RMS     0.006418660
 Search for a local minimum.
 Step number   1 out of a maximum of   94
 All quantities printed in internal units (Hartrees-Bohrs-Radians)
 Mixed Optimization -- RFO/linear search
 Second derivative matrix not updated -- first step.
 ITU=  0
     Eigenvalues ---    0.01790   0.01867   0.01928   0.01947   0.02010
     Eigenvalues ---    0.02041   0.02076   0.02089   0.02098   0.02135
     Eigenvalues ---    0.02159   0.02173   0.02275   0.16000   0.16000
     Eigenvalues ---    0.16000   0.16000   0.16000   0.16000   0.16000
     Eigenvalues ---    0.22000   0.22188   0.22662   0.24010   0.24651
     Eigenvalues ---    0.35146   0.35149   0.35175   0.35209   0.35824
     Eigenvalues ---    0.35837   0.36510   0.37931   0.41898   0.42676
     Eigenvalues ---    0.44901   0.45975   0.46333   0.46561   0.46716
     Eigenvalues ---    0.47115   0.50040
 RFO step:  Lambda=-7.89397806D-03 EMin= 1.79046333D-02
 Linear search not attempted -- first point.
 Iteration  1 RMS(Cart)=  0.01927869 RMS(Int)=  0.00011560
 Iteration  2 RMS(Cart)=  0.00019345 RMS(Int)=  0.00002275
 Iteration  3 RMS(Cart)=  0.00000002 RMS(Int)=  0.00002275
 Variable       Old X    -DE/DX   Delta X   Delta X   Delta X     New X
                                 (Linear)    (Quad)   (Total)
    R1        2.66556   0.01754   0.00000   0.03971   0.03969   2.70525
    R2        2.62396   0.02789   0.00000   0.05811   0.05811   2.68207
    R3        2.05391  -0.00041   0.00000  -0.00115  -0.00115   2.05276
    R4        2.62661   0.01997   0.00000   0.04151   0.04149   2.66810
    R5        2.05336   0.00012   0.00000   0.00034   0.00034   2.05370
    R6        2.64382   0.01471   0.00000   0.03113   0.03114   2.67496
    R7        2.05439  -0.00061   0.00000  -0.00170  -0.00170   2.05269
    R8        2.69075   0.02270   0.00000   0.05251   0.05248   2.74323
    R9        2.60940   0.00148   0.00000   0.00273   0.00269   2.61209
   R10        2.65756   0.00987   0.00000   0.02175   0.02177   2.67933
   R11        2.71599  -0.01694   0.00000  -0.04137  -0.04137   2.67462
   R12        2.05433  -0.00078   0.00000  -0.00217  -0.00217   2.05216
   R13        2.61412  -0.00612   0.00000  -0.01241  -0.01239   2.60174
   R14        1.90458  -0.00081   0.00000  -0.00172  -0.00172   1.90286
   R15        2.58827   0.02440   0.00000   0.04733   0.04738   2.63565
   R16        2.04358   0.00014   0.00000   0.00038   0.00038   2.04396
   R17        2.04337   0.00004   0.00000   0.00011   0.00011   2.04348
    A1        2.11385   0.00105   0.00000   0.00694   0.00691   2.12075
    A2        2.08080  -0.00094   0.00000  -0.00595  -0.00594   2.07486
    A3        2.08854  -0.00011   0.00000  -0.00099  -0.00097   2.08757
    A4        2.11529   0.00350   0.00000   0.01676   0.01671   2.13200
    A5        2.08444  -0.00161   0.00000  -0.00753  -0.00750   2.07694
    A6        2.08345  -0.00189   0.00000  -0.00923  -0.00921   2.07424
    A7        2.05063  -0.00548   0.00000  -0.02453  -0.02456   2.02607
    A8        2.11449   0.00302   0.00000   0.01389   0.01391   2.12840
    A9        2.11807   0.00247   0.00000   0.01064   0.01065   2.12872
   A10        2.13538   0.00241   0.00000   0.00870   0.00875   2.14413
   A11        2.27776  -0.00389   0.00000  -0.01392  -0.01389   2.26388
   A12        1.87005   0.00148   0.00000   0.00522   0.00514   1.87518
   A13        2.07153   0.00513   0.00000   0.01966   0.01971   2.09124
   A14        1.86523  -0.00366   0.00000  -0.01439  -0.01444   1.85079
   A15        2.34643  -0.00146   0.00000  -0.00527  -0.00527   2.34116
   A16        2.07970  -0.00660   0.00000  -0.02753  -0.02752   2.05218
   A17        2.10382   0.00390   0.00000   0.01735   0.01735   2.12117
   A18        2.09967   0.00270   0.00000   0.01018   0.01017   2.10984
   A19        1.90782   0.00033   0.00000   0.00052   0.00052   1.90833
   A20        2.18874  -0.00004   0.00000   0.00048   0.00048   2.18922
   A21        2.18663  -0.00029   0.00000  -0.00100  -0.00100   2.18563
   A22        1.86991   0.00372   0.00000   0.01675   0.01681   1.88672
   A23        2.21509  -0.00206   0.00000  -0.00955  -0.00958   2.20552
   A24        2.19819  -0.00166   0.00000  -0.00720  -0.00723   2.19095
   A25        1.91178  -0.00187   0.00000  -0.00810  -0.00802   1.90376
   A26        2.10007   0.00083   0.00000   0.00339   0.00336   2.10343
   A27        2.27133   0.00105   0.00000   0.00471   0.00467   2.27600
    D1        0.00023  -0.00000   0.00000  -0.00017  -0.00017   0.00006
    D2        3.14148   0.00000   0.00000   0.00006   0.00006   3.14154
    D3       -3.14149  -0.00000   0.00000  -0.00007  -0.00008  -3.14156
    D4       -0.00024   0.00000   0.00000   0.00015   0.00015  -0.00009
    D5       -0.00025   0.00001   0.00000   0.00017   0.00017  -0.00008
    D6       -3.14143   0.00000   0.00000   0.00002   0.00002  -3.14141
    D7        3.14147   0.00000   0.00000   0.00008   0.00008   3.14155
    D8        0.00028  -0.00000   0.00000  -0.00007  -0.00007   0.00021
    D9       -0.00005   0.00000   0.00000   0.00004   0.00004  -0.00001
   D10        3.14159   0.00000   0.00000   0.00007   0.00007  -3.14153
   D11       -3.14130  -0.00000   0.00000  -0.00019  -0.00019  -3.14149
   D12        0.00035  -0.00000   0.00000  -0.00016  -0.00016   0.00019
   D13       -0.00010   0.00000   0.00000   0.00008   0.00008  -0.00002
   D14       -3.14138  -0.00000   0.00000  -0.00004  -0.00004  -3.14142
   D15        3.14144   0.00000   0.00000   0.00005   0.00005   3.14149
   D16        0.00016  -0.00000   0.00000  -0.00007  -0.00007   0.00010
   D17        0.00008  -0.00000   0.00000  -0.00007  -0.00007   0.00000
   D18       -3.14152  -0.00000   0.00000  -0.00011  -0.00011   3.14155
   D19        3.14142   0.00000   0.00000   0.00002   0.00002   3.14144
   D20       -0.00017  -0.00000   0.00000  -0.00002  -0.00002  -0.00020
   D21       -3.14132  -0.00000   0.00000  -0.00023  -0.00024  -3.14155
   D22       -0.00154   0.00000   0.00000   0.00007   0.00007  -0.00147
   D23        0.00055  -0.00001   0.00000  -0.00034  -0.00034   0.00021
   D24        3.14033   0.00000   0.00000  -0.00003  -0.00004   3.14029
   D25        0.00010  -0.00000   0.00000  -0.00006  -0.00006   0.00005
   D26        3.14129   0.00000   0.00000   0.00010   0.00010   3.14138
   D27       -3.14149  -0.00000   0.00000  -0.00000  -0.00000  -3.14149
   D28       -0.00031   0.00000   0.00000   0.00015   0.00015  -0.00016
   D29       -0.00026   0.00001   0.00000   0.00038   0.00037   0.00011
   D30        3.14133   0.00001   0.00000   0.00015   0.00015   3.14148
   D31        3.14133   0.00001   0.00000   0.00033   0.00033  -3.14153
   D32       -0.00026   0.00000   0.00000   0.00010   0.00010  -0.00016
   D33       -0.00074   0.00002   0.00000   0.00060   0.00059  -0.00014
   D34        3.14136   0.00001   0.00000   0.00017   0.00017   3.14153
   D35       -3.14052   0.00001   0.00000   0.00030   0.00029  -3.14023
   D36        0.00157  -0.00000   0.00000  -0.00013  -0.00013   0.00144
   D37        0.00061  -0.00002   0.00000  -0.00059  -0.00059   0.00001
   D38       -3.14155  -0.00000   0.00000  -0.00011  -0.00012   3.14152
   D39       -3.14099  -0.00001   0.00000  -0.00037  -0.00037  -3.14136
   D40        0.00004   0.00000   0.00000   0.00011   0.00011   0.00015
         Item               Value     Threshold  Converged?
 Maximum Force            0.027893     0.000450     NO 
 RMS     Force            0.006419     0.000300     NO 
 Maximum Displacement     0.084023     0.001800     NO 
 RMS     Displacement     0.019289     0.001200     NO 
 Predicted change in Energy=-4.022077D-03
 GradGradGradGradGradGradGradGradGradGradGradGradGradGradGradGradGradGrad

                          Input orientation:                          
 ---------------------------------------------------------------------
 Center     Atomic      Atomic             Coordinates (Angstroms)
 Number     Number       Type             X           Y           Z
 ---------------------------------------------------------------------
      1          6           0       -2.173181    0.704594    0.000030
      2          6           0       -2.141119   -0.726603    0.000021
      3          6           0       -0.929257   -1.451068    0.000030
      4          6           0        0.257321   -0.679218    0.000034
      5          6           0        0.252409    0.772428    0.000006
      6          6           0       -0.980086    1.473303   -0.000025
      7          7           0        1.577431   -1.089025   -0.000143
      8          6           0        1.611313    1.168154    0.000073
      9          6           0        2.398024    0.016484   -0.000008
     10          1           0        1.891716   -2.045671    0.000900
     11          1           0        1.983563    2.183694   -0.000025
     12          1           0        3.473326   -0.097826   -0.000053
     13          1           0       -3.079596   -1.274632    0.000119
     14          1           0       -0.908842   -2.537113   -0.000039
     15          1           0       -3.135862    1.207820    0.000051
     16          1           0       -1.003962    2.558997    0.000149
 ---------------------------------------------------------------------
                    Distance matrix (angstroms):
                    1          2          3          4          5
     1  C    0.000000
     2  C    1.431556   0.000000
     3  C    2.488820   1.411899   0.000000
     4  C    2.796833   2.398908   1.415528   0.000000
     5  C    2.426538   2.824194   2.517989   1.451654   0.000000
     6  C    1.419291   2.487485   2.924812   2.482846   1.417840
     7  N    4.157422   3.736170   2.532698   1.382257   2.284883
     8  C    3.812778   4.203670   3.648947   2.290431   1.415350
     9  C    4.622706   4.599565   3.636552   2.250913   2.274888
    10  H    4.907885   4.243076   2.882957   2.130361   3.260216
    11  H    4.412057   5.048052   4.657898   3.343079   2.233509
    12  H    5.703237   5.649545   4.605866   3.268135   3.336412
    13  H    2.176907   1.086773   2.157565   3.389621   3.910590
    14  H    3.479543   2.190081   1.086237   2.193561   3.507358
    15  H    1.086275   2.175203   3.455256   3.882603   3.416131
    16  H    2.192232   3.476822   4.010760   3.475179   2.184101
                    6          7          8          9         10
     6  C    0.000000
     7  N    3.620279   0.000000
     8  C    2.609303   2.257434   0.000000
     9  C    3.678852   1.376780   1.394726   0.000000
    10  H    4.542073   1.006949   3.226035   2.123401   0.000000
    11  H    3.047601   3.297823   1.081615   2.206486   4.230362
    12  H    4.722428   2.139367   2.251622   1.081361   2.509102
    13  H    3.458191   4.660724   5.288840   5.627726   5.030749
    14  H    4.011049   2.877240   4.481091   4.178064   2.843349
    15  H    2.172062   5.243152   4.747341   5.660670   5.988468
    16  H    1.085956   4.468966   2.962111   4.247103   5.439477
                   11         12         13         14         15
    11  H    0.000000
    12  H    2.724836   0.000000
    13  H    6.131525   6.657752   0.000000
    14  H    5.536427   5.015328   2.511181   0.000000
    15  H    5.211607   6.736920   2.483090   4.357080   0.000000
    16  H    3.011005   5.206228   4.359469   5.096997   2.524021
                   16
    16  H    0.000000
 Stoichiometry    C8H7N
 Framework group  C1[X(C8H7N)]
 Deg. of freedom    42
 Full point group                 C1      NOp   1
 Largest Abelian subgroup         C1      NOp   1
 Largest concise Abelian subgroup C1      NOp   1
                         Standard orientation:                         
 ---------------------------------------------------------------------
 Center     Atomic      Atomic             Coordinates (Angstroms)
 Number     Number       Type             X           Y           Z
 ---------------------------------------------------------------------
      1          6           0       -2.179547    0.685760    0.000013
      2          6           0       -2.135533   -0.745119    0.000004
      3          6           0       -0.917662   -1.459437    0.000013
      4          6           0        0.262428   -0.677703    0.000017
      5          6           0        0.245391    0.773851   -0.000011
      6          6           0       -0.992915    1.464407   -0.000042
      7          7           0        1.585914   -1.076471   -0.000160
      8          6           0        1.600942    1.180913    0.000056
      9          6           0        2.397245    0.035853   -0.000026
     10          1           0        1.908178   -2.030458    0.000883
     11          1           0        1.964697    2.199527   -0.000042
     12          1           0        3.473465   -0.069471   -0.000070
     13          1           0       -3.069400   -1.300968    0.000102
     14          1           0       -0.888177   -2.545274   -0.000056
     15          1           0       -3.146399    1.180928    0.000034
     16          1           0       -1.025858    2.549864    0.000132
 ---------------------------------------------------------------------
 Rotational constants (GHZ):           3.7574140           1.6239944           1.1339075
 Standard basis: 6-31G(d) (6D, 7F)
 There are   149 symmetry adapted cartesian basis functions of A   symmetry.
 There are   149 symmetry adapted basis functions of A   symmetry.
   149 basis functions,   280 primitive gaussians,   149 cartesian basis functions
    31 alpha electrons       31 beta electrons
       nuclear repulsion energy       396.9158733839 Hartrees.
 NAtoms=   16 NActive=   16 NUniq=   16 SFac= 1.00D+00 NAtFMM=   60 NAOKFM=F Big=F
 Integral buffers will be    131072 words long.
 Regular integral format.
 Two-electron integral symmetry is turned on.
 R6APFD:  NTU= -4 IXU= 1 FactS= 1.050
 Nuclear repulsion after empirical dispersion term =      396.9083025244 Hartrees.
 One-electron integrals computed using PRISM.
 NBasis=   149 RedAO= T EigKep=  4.72D-04  NBF=   149
 NBsUse=   149 1.00D-06 EigRej= -1.00D+00 NBFU=   149
 Initial guess from the checkpoint file:  "FuncsAPFD2nd.chk"
 B after Tr=    -0.000000    0.000000   -0.000000
         Rot=    0.999992    0.000002   -0.000003   -0.003954 Ang=   0.45 deg.
 ExpMin= 1.61D-01 ExpMax= 4.17D+03 ExpMxC= 6.27D+02 IAcc=3 IRadAn=         5 AccDes= 0.00D+00
 Harris functional with IExCor= 3731 and IRadAn=       5 diagonalized for initial guess.
 HarFok:  IExCor= 3731 AccDes= 0.00D+00 IRadAn=         5 IDoV= 1 UseB2=F ITyADJ=14
 ICtDFT=  3500011 ScaDFX=  1.000000  1.000000  1.000000  1.000000
 FoFCou: FMM=F IPFlag=           0 FMFlag=      100000 FMFlg1=           0
         NFxFlg=           0 DoJE=T BraDBF=F KetDBF=T FulRan=T
         wScrn=  0.000000 ICntrl=       500 IOpCl=  0 I1Cent=   200000004 NGrid=           0
         NMat0=    1 NMatS0=      1 NMatT0=    0 NMatD0=    1 NMtDS0=    0 NMtDT0=    0
 Petite list used in FoFCou.
 Keep R1 ints in memory in canonical form, NReq=64400683.
 Requested convergence on RMS density matrix=1.00D-08 within 128 cycles.
 Requested convergence on MAX density matrix=1.00D-06.
 Requested convergence on             energy=1.00D-06.
 No special actions if energy rises.
 Integral accuracy reduced to 1.0D-05 until final iterations.
 Initial convergence to 1.0D-05 achieved.  Increase integral accuracy.
 SCF Done:  E(RAPFD) =  -363.513827024     A.U. after   12 cycles
            NFock= 12  Conv=0.73D-08     -V/T= 2.0103
 DoSCS=F DFT=T ScalE2(SS,OS)=  1.000000  1.000000
 ExpMin= 1.61D-01 ExpMax= 4.17D+03 ExpMxC= 6.27D+02 IAcc=3 IRadAn=         5 AccDes= 0.00D+00
 HarFok:  IExCor=  205 AccDes= 0.00D+00 IRadAn=         5 IDoV=-2 UseB2=F ITyADJ=14
 ICtDFT= 12500011 ScaDFX=  1.000000  1.000000  1.000000  1.000000
 Range of M.O.s used for correlation:    10   149
 NBasis=   149 NAE=    31 NBE=    31 NFC=     9 NFV=     0
 NROrb=    140 NOA=    22 NOB=    22 NVA=   118 NVB=   118

 **** Warning!!: The largest alpha MO coefficient is  0.10709926D+02

 Orbital symmetries:
       Occupied  (A) (A) (A) (A) (A) (A) (A) (A) (A) (A) (A) (A)
                 (A) (A) (A) (A) (A) (A) (A) (A) (A) (A) (A) (A)
                 (A) (A) (A) (A) (A) (A) (A)
       Virtual   (A) (A) (A) (A) (A) (A) (A) (A) (A) (A) (A) (A)
                 (A) (A) (A) (A) (A) (A) (A) (A) (A) (A) (A) (A)
                 (A) (A) (A) (A) (A) (A) (A) (A) (A) (A) (A) (A)
                 (A) (A) (A) (A) (A) (A) (A) (A) (A) (A) (A) (A)
                 (A) (A) (A) (A) (A) (A) (A) (A) (A) (A) (A) (A)
                 (A) (A) (A) (A) (A) (A) (A) (A) (A) (A) (A) (A)
                 (A) (A) (A) (A) (A) (A) (A) (A) (A) (A) (A) (A)
                 (A) (A) (A) (A) (A) (A) (A) (A) (A) (A) (A) (A)
                 (A) (A) (A) (A) (A) (A) (A) (A) (A) (A) (A) (A)
                 (A) (A) (A) (A) (A) (A) (A) (A) (A) (A)
 Generating guess from densities on rwf.
 Convergence on wavefunction:    0.000001000000000
 Iteration     1 Dimension    12 NMult     0 NNew     12
 CISAX will form    12 AO SS matrices at one time.
 Iteration     2 Dimension    24 NMult    12 NNew     12
 Iteration     3 Dimension    36 NMult    24 NNew     12
 Iteration     4 Dimension    48 NMult    36 NNew     12
 Iteration     5 Dimension    60 NMult    48 NNew     12
 Iteration     6 Dimension    72 NMult    60 NNew     12
 Iteration     7 Dimension    84 NMult    72 NNew     12
 Iteration     8 Dimension    92 NMult    84 NNew      8
 Iteration     9 Dimension   100 NMult    92 NNew      8
 Iteration    10 Dimension   104 NMult   100 NNew      4
 ***********************************************************************
 Excited states from <AA,BB:AA,BB> singles matrix:
 ***********************************************************************
 
 Ground to excited state transition densities written to RWF  633
 Ground to excited state transition electric dipole moments (Au):
       state          X           Y           Z        Dip. S.      Osc.
         1        -0.6811      0.5781     -0.0000      0.7981      0.0935
         2        -0.3057     -0.2849     -0.0001      0.1746      0.0208
         3        -1.4689     -0.5955      0.0000      2.5123      0.3779
         4         1.4789      0.1152     -0.0000      2.2004      0.3505
         5         0.6853     -0.9295      0.0001      1.3335      0.2203
         6        -0.0039      0.0023      0.0205      0.0004      0.0001
 Ground to excited state transition velocity dipole moments (Au):
       state          X           Y           Z        Dip. S.      Osc.
         1         0.1113     -0.1118     -0.0000      0.0249      0.0943
         2         0.0538      0.0547      0.0000      0.0059      0.0220
         3         0.3270      0.1386      0.0000      0.1261      0.3727
         4        -0.3453     -0.0257      0.0000      0.1199      0.3346
         5        -0.1711      0.2321     -0.0001      0.0832      0.2237
         6         0.0010     -0.0006     -0.0156      0.0002      0.0007
 Ground to excited state transition magnetic dipole moments (Au):
       state          X           Y           Z
         1         0.0000      0.0001      0.0800
         2        -0.0001     -0.0001     -0.0205
         3        -0.0001     -0.0000     -0.4882
         4        -0.0000      0.0001      0.2354
         5         0.0005     -0.0000      0.0335
         6         0.1916     -0.0232      0.0016
 Ground to excited state transition velocity quadrupole moments (Au):
       state          XX          YY          ZZ          XY          XZ          YZ
         1         0.1854     -0.1530     -0.0040     -0.0050     -0.0000      0.0000
         2        -0.0083     -0.0851      0.0083      0.0216      0.0000     -0.0000
         3         0.1877     -0.0935     -0.0042     -0.3443      0.0000     -0.0001
         4         0.3160     -0.0227      0.0311      0.0499     -0.0001      0.0001
         5         0.3001      0.0489      0.0218     -0.1825     -0.0002      0.0004
         6        -0.0026      0.0002     -0.0001      0.0016     -0.0477      0.1084
 <0|del|b> * <b|rxdel|0> + <0|del|b> * <b|delr+rdel|0>
 Rotatory Strengths (R) in cgs (10**-40 erg-esu-cm/Gauss)
       state          XX          YY          ZZ    R(velocity)    E-M Angle
         1        -0.0411      0.0101     -0.0108     -0.0139       90.00
         2        -0.0145     -0.0167     -0.0162     -0.0158       90.00
         3        -0.0094     -0.1197     -0.0320     -0.0537       90.00
         4        -0.0035     -0.0126      0.0550      0.0130       90.00
         5         0.0652     -0.2407     -0.1028     -0.0928       90.00
         6        -0.0902      0.4235      0.1757      0.1697       86.57
 1/2[<0|r|b>*<b|rxdel|0> + (<0|rxdel|b>*<b|r|0>)*]
 Rotatory Strengths (R) in cgs (10**-40 erg-esu-cm/Gauss)
       state          XX          YY          ZZ     R(length)
         1         0.0211     -0.0541      0.0005     -0.0108
         2        -0.0257     -0.0196     -0.0008     -0.0154
         3        -0.1542     -0.0025      0.0089     -0.0493
         4         0.0430     -0.0045      0.0069      0.0151
         5        -0.2559     -0.0150     -0.0013     -0.0907
         6         0.5322      0.0382     -0.0239      0.1822
  1/2[<0|del|b>*<b|r|0> + (<0|r|b>*<b|del|0>)*] (Au)
       state          X           Y           Z        Dip. S.   Osc.(frdel)
         1        -0.0758     -0.0646      0.0000      0.1404      0.0936
         2        -0.0165     -0.0156     -0.0000      0.0320      0.0214
         3        -0.4803     -0.0825      0.0000      0.5628      0.3752
         4        -0.5107     -0.0030     -0.0000      0.5137      0.3424
         5        -0.1172     -0.2158     -0.0000      0.3330      0.2220
         6        -0.0000     -0.0000     -0.0003      0.0003      0.0002

 Excitation energies and oscillator strengths:
 
 Excited State   1:      Singlet-A      4.7841 eV  259.16 nm  f=0.0935  <S**2>=0.000
      30 -> 33         0.16716
      31 -> 32         0.66778
 
 Excited State   2:      Singlet-A      4.8680 eV  254.69 nm  f=0.0208  <S**2>=0.000
      30 -> 32         0.57486
      31 -> 33        -0.39966
 This state for optimization and/or second-order correction.
 Total Energy, E(TD-HF/TD-DFT) =  -363.334931351    
 Copying the excited state density for this state as the 1-particle RhoCI density.
 
 Excited State   3:      Singlet-A      6.1399 eV  201.93 nm  f=0.3779  <S**2>=0.000
      29 -> 32        -0.22567
      30 -> 32         0.32403
      30 -> 33         0.22692
      31 -> 33         0.51060
      31 -> 34        -0.12639
 
 Excited State   4:      Singlet-A      6.5019 eV  190.69 nm  f=0.3505  <S**2>=0.000
      29 -> 32        -0.37404
      30 -> 32        -0.21003
      30 -> 33         0.43899
      31 -> 33        -0.24784
      31 -> 34        -0.19933
 
 Excited State   5:      Singlet-A      6.7437 eV  183.85 nm  f=0.2203  <S**2>=0.000
      29 -> 32         0.34823
      29 -> 34        -0.10665
      30 -> 33         0.44812
      31 -> 32        -0.16557
      31 -> 34         0.34739
 
 Excited State   6:      Singlet-A      6.8457 eV  181.11 nm  f=0.0001  <S**2>=0.000
      31 -> 35         0.70245
 SavETr:  write IOETrn=   770 NScale= 10 NData=  16 NLR=1 NState=    6 LETran=     118.
          IDoAtm=1111111111111111
          Differentiating once with respect to electric field.
                with respect to dipole field.
          Differentiating once with respect to nuclear coordinates.
 Keep R1 ints in memory in canonical form, NReq=64412969.
          There are     1 degrees of freedom in the 1st order CPHF.  IDoFFX=0 NUNeed=     1.
 LinEq1:  Iter=  0 NonCon=     1 RMS=4.84D-03 Max=1.22D-01 NDo=     1
 AX will form     1 AO Fock derivatives at one time.
 LinEq1:  Iter=  1 NonCon=     1 RMS=1.81D-03 Max=3.35D-02 NDo=     1
 LinEq1:  Iter=  2 NonCon=     1 RMS=1.25D-03 Max=3.02D-02 NDo=     1
 LinEq1:  Iter=  3 NonCon=     1 RMS=6.62D-04 Max=1.40D-02 NDo=     1
 LinEq1:  Iter=  4 NonCon=     1 RMS=2.53D-04 Max=9.04D-03 NDo=     1
 LinEq1:  Iter=  5 NonCon=     1 RMS=1.65D-04 Max=3.79D-03 NDo=     1
 LinEq1:  Iter=  6 NonCon=     1 RMS=9.82D-05 Max=2.62D-03 NDo=     1
 LinEq1:  Iter=  7 NonCon=     1 RMS=5.95D-05 Max=1.25D-03 NDo=     1
 LinEq1:  Iter=  8 NonCon=     1 RMS=3.59D-05 Max=7.46D-04 NDo=     1
 LinEq1:  Iter=  9 NonCon=     1 RMS=1.60D-05 Max=3.37D-04 NDo=     1
 LinEq1:  Iter= 10 NonCon=     1 RMS=1.18D-05 Max=2.36D-04 NDo=     1
 LinEq1:  Iter= 11 NonCon=     1 RMS=3.93D-06 Max=9.15D-05 NDo=     1
 LinEq1:  Iter= 12 NonCon=     1 RMS=2.08D-06 Max=3.96D-05 NDo=     1
 LinEq1:  Iter= 13 NonCon=     1 RMS=7.94D-07 Max=9.63D-06 NDo=     1
 LinEq1:  Iter= 14 NonCon=     1 RMS=2.01D-07 Max=3.12D-06 NDo=     1
 LinEq1:  Iter= 15 NonCon=     1 RMS=1.33D-07 Max=2.25D-06 NDo=     1
 LinEq1:  Iter= 16 NonCon=     1 RMS=3.52D-08 Max=6.11D-07 NDo=     1
 LinEq1:  Iter= 17 NonCon=     1 RMS=1.46D-08 Max=2.51D-07 NDo=     1
 LinEq1:  Iter= 18 NonCon=     1 RMS=6.97D-09 Max=1.15D-07 NDo=     1
 LinEq1:  Iter= 19 NonCon=     1 RMS=1.38D-09 Max=2.87D-08 NDo=     1
 LinEq1:  Iter= 20 NonCon=     1 RMS=1.96D-10 Max=2.32D-09 NDo=     1
 LinEq1:  Iter= 21 NonCon=     0 RMS=4.19D-11 Max=3.72D-10 NDo=     1
 Linear equations converged to 1.000D-10 1.000D-09 after    21 iterations.
 End of Minotr F.D. properties file   721 does not exist.
 End of Minotr F.D. properties file   722 does not exist.
 End of Minotr F.D. properties file   788 does not exist.
 R6APFD:  NTU= -4 IXU= 1 FactS= 1.050
 Calling FoFJK, ICntrl=  10005127 FMM=F ISym2X=0 I1Cent= 0 IOpClX= 0 NMat=1 NMatS=1 NMatT=0.
 ***** Axes restored to original set *****
 -------------------------------------------------------------------
 Center     Atomic                   Forces (Hartrees/Bohr)
 Number     Number              X              Y              Z
 -------------------------------------------------------------------
      1        6           0.001026014   -0.005596448   -0.000003859
      2        6          -0.005658963   -0.002193900    0.000007193
      3        6           0.003913009    0.004883471    0.000000632
      4        6          -0.000454881   -0.016725437   -0.000010747
      5        6          -0.003097650    0.004888444    0.000001234
      6        6           0.008766656   -0.002930697    0.000009219
      7        7          -0.024492707    0.001931062    0.000009902
      8        6           0.010160328   -0.006040529   -0.000012776
      9        6           0.011164486    0.020371901    0.000011271
     10        1          -0.001018702   -0.000648546   -0.000006944
     11        1           0.000862347    0.000108299    0.000001639
     12        1          -0.000765451    0.000870695   -0.000000460
     13        1           0.000028738    0.001075003   -0.000003215
     14        1          -0.000281586    0.000666887    0.000000488
     15        1           0.000041024    0.000024819    0.000000733
     16        1          -0.000192662   -0.000685023   -0.000004311
 -------------------------------------------------------------------
 Cartesian Forces:  Max     0.024492707 RMS     0.006116920

 GradGradGradGradGradGradGradGradGradGradGradGradGradGradGradGradGradGrad
 Berny optimization.
 Using GEDIIS/GDIIS optimizer.
 FormGI is forming the generalized inverse of G from B-inverse, IUseBI=4.
 Internal  Forces:  Max     0.017794722 RMS     0.003591309
 Search for a local minimum.
 Step number   2 out of a maximum of   94
 All quantities printed in internal units (Hartrees-Bohrs-Radians)
 Mixed Optimization -- RFO/linear search
 Update second derivatives using D2CorX and points    1    2
 DE= -3.24D-03 DEPred=-4.02D-03 R= 8.06D-01
 TightC=F SS=  1.41D+00  RLast= 1.38D-01 DXNew= 5.0454D-01 4.1379D-01
 Trust test= 8.06D-01 RLast= 1.38D-01 DXMaxT set to 4.14D-01
 ITU=  1  0
 Use linear search instead of GDIIS.
     Eigenvalues ---    0.01791   0.01868   0.01928   0.01945   0.02011
     Eigenvalues ---    0.02040   0.02076   0.02091   0.02098   0.02136
     Eigenvalues ---    0.02159   0.02173   0.02276   0.15952   0.16000
     Eigenvalues ---    0.16000   0.16000   0.16000   0.16000   0.16020
     Eigenvalues ---    0.19816   0.22093   0.22936   0.24635   0.25323
     Eigenvalues ---    0.34870   0.35147   0.35175   0.35204   0.35579
     Eigenvalues ---    0.35827   0.35954   0.37160   0.38652   0.42159
     Eigenvalues ---    0.43641   0.45301   0.46226   0.46334   0.46619
     Eigenvalues ---    0.47692   0.77018
 RFO step:  Lambda=-1.87269139D-03 EMin= 1.79101549D-02
 Quartic linear search produced a step of -0.15667.
 Iteration  1 RMS(Cart)=  0.01183087 RMS(Int)=  0.00006163
 Iteration  2 RMS(Cart)=  0.00007717 RMS(Int)=  0.00001724
 Iteration  3 RMS(Cart)=  0.00000000 RMS(Int)=  0.00001724
 Variable       Old X    -DE/DX   Delta X   Delta X   Delta X     New X
                                 (Linear)    (Quad)   (Total)
    R1        2.70525  -0.00284  -0.00622   0.01067   0.00446   2.70971
    R2        2.68207   0.00422  -0.00910   0.03063   0.02154   2.70361
    R3        2.05276  -0.00002   0.00018  -0.00052  -0.00034   2.05242
    R4        2.66810  -0.00082  -0.00650   0.01533   0.00883   2.67693
    R5        2.05370  -0.00057  -0.00005  -0.00121  -0.00127   2.05244
    R6        2.67496  -0.00282  -0.00488   0.00723   0.00234   2.67730
    R7        2.05269  -0.00067   0.00027  -0.00228  -0.00202   2.05067
    R8        2.74323   0.00331  -0.00822   0.02673   0.01846   2.76169
    R9        2.61209  -0.01273  -0.00042  -0.02123  -0.02164   2.59045
   R10        2.67933  -0.00785  -0.00341  -0.00633  -0.00974   2.66959
   R11        2.67462   0.00675   0.00648  -0.00214   0.00430   2.67892
   R12        2.05216  -0.00068   0.00034  -0.00249  -0.00215   2.05001
   R13        2.60174   0.01779   0.00194   0.02606   0.02805   2.62978
   R14        1.90286   0.00030   0.00027  -0.00015   0.00012   1.90298
   R15        2.63565  -0.01199  -0.00742  -0.00026  -0.00767   2.62798
   R16        2.04396   0.00040  -0.00006   0.00108   0.00102   2.04498
   R17        2.04348  -0.00085  -0.00002  -0.00195  -0.00197   2.04151
    A1        2.12075   0.00317  -0.00108   0.01498   0.01390   2.13466
    A2        2.07486  -0.00154   0.00093  -0.00829  -0.00736   2.06750
    A3        2.08757  -0.00163   0.00015  -0.00669  -0.00654   2.08102
    A4        2.13200  -0.00507  -0.00262  -0.01186  -0.01448   2.11752
    A5        2.07694   0.00160   0.00118   0.00140   0.00257   2.07951
    A6        2.07424   0.00347   0.00144   0.01047   0.01191   2.08616
    A7        2.02607   0.00126   0.00385  -0.00505  -0.00123   2.02484
    A8        2.12840  -0.00091  -0.00218   0.00176  -0.00041   2.12799
    A9        2.12872  -0.00035  -0.00167   0.00330   0.00164   2.13036
   A10        2.14413   0.00403  -0.00137   0.01730   0.01592   2.16005
   A11        2.26388   0.00288   0.00218   0.00553   0.00773   2.27161
   A12        1.87518  -0.00691  -0.00080  -0.02284  -0.02365   1.85153
   A13        2.09124  -0.00531  -0.00309  -0.01058  -0.01365   2.07759
   A14        1.85079   0.00539   0.00226   0.01187   0.01406   1.86485
   A15        2.34116  -0.00008   0.00083  -0.00129  -0.00042   2.34074
   A16        2.05218   0.00192   0.00431  -0.00478  -0.00046   2.05171
   A17        2.12117  -0.00117  -0.00272   0.00275   0.00003   2.12120
   A18        2.10984  -0.00074  -0.00159   0.00203   0.00043   2.11028
   A19        1.90833   0.00719  -0.00008   0.02650   0.02647   1.93480
   A20        2.18922  -0.00471  -0.00008  -0.01874  -0.01884   2.17038
   A21        2.18563  -0.00248   0.00016  -0.00775  -0.00762   2.17801
   A22        1.88672  -0.00140  -0.00263   0.00272   0.00006   1.88678
   A23        2.20552   0.00149   0.00150   0.00227   0.00378   2.20930
   A24        2.19095  -0.00009   0.00113  -0.00499  -0.00384   2.18711
   A25        1.90376  -0.00427   0.00126  -0.01825  -0.01694   1.88682
   A26        2.10343   0.00294  -0.00053   0.01303   0.01248   2.11590
   A27        2.27600   0.00133  -0.00073   0.00522   0.00446   2.28046
    D1        0.00006  -0.00000   0.00003  -0.00013  -0.00010  -0.00004
    D2        3.14154   0.00000  -0.00001   0.00007   0.00006   3.14159
    D3       -3.14156  -0.00000   0.00001  -0.00008  -0.00006   3.14156
    D4       -0.00009   0.00000  -0.00002   0.00012   0.00010   0.00001
    D5       -0.00008   0.00000  -0.00003   0.00012   0.00010   0.00002
    D6       -3.14141  -0.00000  -0.00000  -0.00006  -0.00006  -3.14147
    D7        3.14155   0.00000  -0.00001   0.00007   0.00006  -3.14158
    D8        0.00021  -0.00000   0.00001  -0.00011  -0.00010   0.00011
    D9       -0.00001   0.00000  -0.00001   0.00005   0.00004   0.00003
   D10       -3.14153   0.00000  -0.00001   0.00004   0.00003  -3.14149
   D11       -3.14149  -0.00000   0.00003  -0.00015  -0.00012   3.14158
   D12        0.00019  -0.00000   0.00003  -0.00015  -0.00013   0.00006
   D13       -0.00002  -0.00000  -0.00001   0.00004   0.00003   0.00001
   D14       -3.14142  -0.00000   0.00001  -0.00008  -0.00008  -3.14149
   D15        3.14149   0.00000  -0.00001   0.00004   0.00003   3.14153
   D16        0.00010  -0.00000   0.00001  -0.00008  -0.00007   0.00003
   D17        0.00000  -0.00000   0.00001  -0.00004  -0.00003  -0.00003
   D18        3.14155   0.00000   0.00002  -0.00003  -0.00001   3.14154
   D19        3.14144   0.00000  -0.00000   0.00006   0.00005   3.14149
   D20       -0.00020   0.00000   0.00000   0.00007   0.00007  -0.00012
   D21       -3.14155   0.00000   0.00004  -0.00007  -0.00003  -3.14159
   D22       -0.00147   0.00001  -0.00001   0.00021   0.00020  -0.00127
   D23        0.00021  -0.00000   0.00005  -0.00018  -0.00013   0.00008
   D24        3.14029   0.00000   0.00001   0.00010   0.00011   3.14040
   D25        0.00005  -0.00000   0.00001  -0.00004  -0.00003   0.00001
   D26        3.14138   0.00000  -0.00002   0.00014   0.00012   3.14151
   D27       -3.14149  -0.00000   0.00000  -0.00006  -0.00006  -3.14155
   D28       -0.00016   0.00000  -0.00002   0.00012   0.00010  -0.00006
   D29        0.00011  -0.00000  -0.00006   0.00006   0.00001   0.00012
   D30        3.14148  -0.00000  -0.00002   0.00006   0.00004   3.14152
   D31       -3.14153  -0.00000  -0.00005   0.00008   0.00003  -3.14150
   D32       -0.00016   0.00000  -0.00002   0.00007   0.00006  -0.00010
   D33       -0.00014  -0.00000  -0.00009   0.00022   0.00013  -0.00001
   D34        3.14153   0.00000  -0.00003   0.00011   0.00008  -3.14158
   D35       -3.14023  -0.00000  -0.00005  -0.00005  -0.00009  -3.14032
   D36        0.00144  -0.00000   0.00002  -0.00016  -0.00014   0.00130
   D37        0.00001   0.00000   0.00009  -0.00018  -0.00008  -0.00007
   D38        3.14152   0.00000   0.00002  -0.00005  -0.00003   3.14149
   D39       -3.14136  -0.00000   0.00006  -0.00017  -0.00011  -3.14147
   D40        0.00015  -0.00000  -0.00002  -0.00004  -0.00006   0.00009
         Item               Value     Threshold  Converged?
 Maximum Force            0.017795     0.000450     NO 
 RMS     Force            0.003591     0.000300     NO 
 Maximum Displacement     0.041227     0.001800     NO 
 RMS     Displacement     0.011833     0.001200     NO 
 Predicted change in Energy=-1.055509D-03
 GradGradGradGradGradGradGradGradGradGradGradGradGradGradGradGradGradGrad

                          Input orientation:                          
 ---------------------------------------------------------------------
 Center     Atomic      Atomic             Coordinates (Angstroms)
 Number     Number       Type             X           Y           Z
 ---------------------------------------------------------------------
      1          6           0       -2.168748    0.695052    0.000025
      2          6           0       -2.153649   -0.738785    0.000063
      3          6           0       -0.935878   -1.462464    0.000051
      4          6           0        0.248759   -0.685378    0.000034
      5          6           0        0.261459    0.775990    0.000038
      6          6           0       -0.967652    1.472383    0.000025
      7          7           0        1.562551   -1.076605   -0.000084
      8          6           0        1.621755    1.175061    0.000085
      9          6           0        2.408532    0.028351   -0.000047
     10          1           0        1.869899   -2.035570    0.000878
     11          1           0        1.996012    2.190440    0.000033
     12          1           0        3.482520   -0.088438   -0.000142
     13          1           0       -3.096597   -1.277736    0.000063
     14          1           0       -0.913090   -2.547395   -0.000013
     15          1           0       -3.128994    1.202528    0.000003
     16          1           0       -0.993679    2.556887    0.000108
 ---------------------------------------------------------------------
                    Distance matrix (angstroms):
                    1          2          3          4          5
     1  C    0.000000
     2  C    1.433917   0.000000
     3  C    2.484924   1.416573   0.000000
[...]
 ! D5    D(2,1,6,5)              0.0002         -DE/DX =    0.0                 !
 ! D6    D(2,1,6,16)          -179.9808         -DE/DX =    0.0                 !
 ! D7    D(15,1,6,5)           179.9982         -DE/DX =    0.0                 !
 ! D8    D(15,1,6,16)            0.0173         -DE/DX =    0.0                 !
 ! D9    D(1,2,3,4)              0.0031         -DE/DX =    0.0                 !
 ! D10   D(1,2,3,14)          -179.9875         -DE/DX =    0.0                 !
 ! D11   D(13,2,3,4)          -179.9977         -DE/DX =    0.0                 !
 ! D12   D(13,2,3,14)            0.0116         -DE/DX =    0.0                 !
 ! D13   D(2,3,4,5)             -0.0043         -DE/DX =    0.0                 !
 ! D14   D(2,3,4,7)           -179.9923         -DE/DX =    0.0                 !
 ! D15   D(14,3,4,5)           179.9862         -DE/DX =    0.0                 !
 ! D16   D(14,3,4,7)            -0.0018         -DE/DX =    0.0                 !
 ! D17   D(3,4,5,6)              0.0036         -DE/DX =    0.0                 !
 ! D18   D(3,4,5,8)           -179.9895         -DE/DX =    0.0                 !
 ! D19   D(7,4,5,6)            179.9938         -DE/DX =    0.0                 !
 ! D20   D(7,4,5,8)              0.0007         -DE/DX =    0.0                 !
 ! D21   D(3,4,7,9)            179.9834         -DE/DX =    0.0                 !
 ! D22   D(3,4,7,10)            -0.0601         -DE/DX =    0.0                 !
 ! D23   D(5,4,7,9)             -0.0062         -DE/DX =    0.0                 !
 ! D24   D(5,4,7,10)           179.9503         -DE/DX =    0.0                 !
 ! D25   D(4,5,6,1)             -0.0013         -DE/DX =    0.0                 !
 ! D26   D(4,5,6,16)           179.9798         -DE/DX =    0.0                 !
 ! D27   D(8,5,6,1)            179.9897         -DE/DX =    0.0                 !
 ! D28   D(8,5,6,16)            -0.0292         -DE/DX =    0.0                 !
 ! D29   D(4,5,8,9)              0.0046         -DE/DX =    0.0                 !
 ! D30   D(4,5,8,11)           179.9846         -DE/DX =    0.0                 !
 ! D31   D(6,5,8,9)            180.0127         -DE/DX =    0.0                 !
 ! D32   D(6,5,8,11)            -0.0073         -DE/DX =    0.0                 !
 ! D33   D(4,7,9,8)              0.0089         -DE/DX =    0.0                 !
 ! D34   D(4,7,9,12)           180.0065         -DE/DX =    0.0                 !
 ! D35   D(10,7,9,8)          -179.947          -DE/DX =    0.0                 !
 ! D36   D(10,7,9,12)            0.0506         -DE/DX =    0.0                 !
 ! D37   D(5,8,9,7)             -0.0083         -DE/DX =    0.0                 !
 ! D38   D(5,8,9,12)          -180.0056         -DE/DX =    0.0                 !
 ! D39   D(11,8,9,7)          -179.9889         -DE/DX =    0.0                 !
 ! D40   D(11,8,9,12)            0.0138         -DE/DX =    0.0                 !
 --------------------------------------------------------------------------------
 GradGradGradGradGradGradGradGradGradGradGradGradGradGradGradGradGradGrad

                          Input orientation:                          
 ---------------------------------------------------------------------
 Center     Atomic      Atomic             Coordinates (Angstroms)
 Number     Number       Type             X           Y           Z
 ---------------------------------------------------------------------
      1          6           0       -2.181165    0.682423   -0.000015
      2          6           0       -2.149844   -0.698672   -0.000004
      3          6           0       -0.916621   -1.447815    0.000065
      4          6           0        0.239654   -0.649672    0.000188
      5          6           0        0.235744    0.747255    0.000156
      6          6           0       -0.990088    1.469306    0.000066
      7          7           0        1.591712   -1.055024    0.000132
      8          6           0        1.605782    1.157654    0.000063
      9          6           0        2.428967   -0.009716   -0.000068
     10          1           0        1.883347   -2.023261    0.000873
     11          1           0        1.980841    2.173529   -0.000215
     12          1           0        3.502655   -0.119330   -0.000242
     13          1           0       -3.086587   -1.251662   -0.000063
     14          1           0       -0.894048   -2.531129   -0.000126
     15          1           0       -3.144570    1.187355   -0.000056
     16          1           0       -1.012580    2.553078    0.000365
 ---------------------------------------------------------------------
                    Distance matrix (angstroms):
                    1          2          3          4          5
     1  C    0.000000
     2  C    1.381450   0.000000
     3  C    2.477294   1.442932   0.000000
     4  C    2.763121   2.390001   1.404994   0.000000
     5  C    2.417778   2.789577   2.479170   1.396932   0.000000
     6  C    1.427533   2.458691   2.918046   2.449966   1.422681
     7  N    4.153711   3.758487   2.538901   1.411513   2.255407
     8  C    3.816649   4.189352   3.626429   2.265553   1.430185
     9  C    4.661799   4.630353   3.641578   2.280928   2.320179
    10  H    4.882723   4.245135   2.858490   2.142073   3.223408
    11  H    4.421051   5.031113   4.637825   3.316956   2.253801
    12  H    5.740089   5.682111   4.614638   3.305819   3.379893
    13  H    2.135527   1.087790   2.178814   3.380278   3.877314
    14  H    3.461732   2.221469   1.083549   2.196626   3.467598
    15  H    1.087707   2.132271   3.450779   3.850668   3.408843
    16  H    2.205661   3.444887   4.002044   3.438851   2.195293
                    6          7          8          9         10
     6  C    0.000000
     7  N    3.610808   0.000000
     8  C    2.614511   2.212723   0.000000
     9  C    3.725243   1.339278   1.428421   0.000000
    10  H    4.522682   1.011205   3.193003   2.086161   0.000000
    11  H    3.053252   3.251919   1.082900   2.228761   4.197923
    12  H    4.765344   2.127729   2.286661   1.079269   2.499423
    13  H    3.434964   4.682430   5.274764   5.653651   5.029475
    14  H    4.001588   2.891001   4.456038   4.171325   2.823448
    15  H    2.172853   5.240289   4.750445   5.700640   5.965569
    16  H    1.084006   4.449802   2.966990   4.290939   5.415651
                   11         12         13         14         15
    11  H    0.000000
    12  H    2.751931   0.000000
    13  H    6.116434   6.685828   0.000000
    14  H    5.513511   5.014756   2.538556   0.000000
    15  H    5.219423   6.774440   2.439706   4.346490   0.000000
    16  H    3.017387   5.246820   4.333308   5.085589   2.531913
                   16
    16  H    0.000000
 Stoichiometry    C8H7N
 Framework group  C1[X(C8H7N)]
 Deg. of freedom    42
 Full point group                 C1      NOp   1
 Largest Abelian subgroup         C1      NOp   1
 Largest concise Abelian subgroup C1      NOp   1
                         Standard orientation:                         
 ---------------------------------------------------------------------
 Center     Atomic      Atomic             Coordinates (Angstroms)
 Number     Number       Type             X           Y           Z
 ---------------------------------------------------------------------
      1          6           0       -2.190723    0.649564   -0.000082
      2          6           0       -2.139747   -0.730945   -0.000071
      3          6           0       -0.895986   -1.462459   -0.000002
      4          6           0        0.248812   -0.647937    0.000121
      5          6           0        0.225018    0.748792    0.000089
      6          6           0       -1.010967    1.453321   -0.000001
      7          7           0        1.606502   -1.034004    0.000065
      8          6           0        1.589075    1.178651   -0.000004
      9          6           0        2.428793    0.023116   -0.000135
     10          1           0        1.911890   -1.997992    0.000805
     11          1           0        1.949636    2.199761   -0.000282
     12          1           0        3.503933   -0.071204   -0.000309
     13          1           0       -3.068524   -1.297213   -0.000130
     14          1           0       -0.857995   -2.545342   -0.000193
     15          1           0       -3.161218    1.140732   -0.000123
     16          1           0       -1.048884    2.536664    0.000298
 ---------------------------------------------------------------------
 Rotational constants (GHZ):           3.8629455           1.6079136           1.1353395

 **********************************************************************

            Population analysis using the CI Density.

 **********************************************************************

 Orbital symmetries:
       Occupied  (A) (A) (A) (A) (A) (A) (A) (A) (A) (A) (A) (A)
                 (A) (A) (A) (A) (A) (A) (A) (A) (A) (A) (A) (A)
                 (A) (A) (A) (A) (A) (A) (A)
       Virtual   (A) (A) (A) (A) (A) (A) (A) (A) (A) (A) (A) (A)
                 (A) (A) (A) (A) (A) (A) (A) (A) (A) (A) (A) (A)
                 (A) (A) (A) (A) (A) (A) (A) (A) (A) (A) (A) (A)
                 (A) (A) (A) (A) (A) (A) (A) (A) (A) (A) (A) (A)
                 (A) (A) (A) (A) (A) (A) (A) (A) (A) (A) (A) (A)
                 (A) (A) (A) (A) (A) (A) (A) (A) (A) (A) (A) (A)
                 (A) (A) (A) (A) (A) (A) (A) (A) (A) (A) (A) (A)
                 (A) (A) (A) (A) (A) (A) (A) (A) (A) (A) (A) (A)
                 (A) (A) (A) (A) (A) (A) (A) (A) (A) (A) (A) (A)
                 (A) (A) (A) (A) (A) (A) (A) (A) (A) (A)
 The electronic state is 1-A.
 Alpha  occ. eigenvalues --  -14.41365 -10.24444 -10.24005 -10.21710 -10.20984
 Alpha  occ. eigenvalues --  -10.20664 -10.20484 -10.20269 -10.19392  -0.99576
 Alpha  occ. eigenvalues --   -0.84666  -0.78259  -0.74776  -0.71561  -0.63502
 Alpha  occ. eigenvalues --   -0.60002  -0.58164  -0.54565  -0.48717  -0.47615
 Alpha  occ. eigenvalues --   -0.43963  -0.43467  -0.42463  -0.40362  -0.39347
 Alpha  occ. eigenvalues --   -0.35161  -0.34407  -0.33617  -0.27195  -0.23219
 Alpha  occ. eigenvalues --   -0.19357
 Alpha virt. eigenvalues --   -0.01246   0.03852   0.07426   0.09115   0.11614
 Alpha virt. eigenvalues --    0.14691   0.15842   0.17929   0.18818   0.18860
 Alpha virt. eigenvalues --    0.19967   0.23401   0.25728   0.27889   0.29830
 Alpha virt. eigenvalues --    0.33581   0.35239   0.38938   0.44533   0.51947
 Alpha virt. eigenvalues --    0.52744   0.54536   0.54968   0.55644   0.58050
 Alpha virt. eigenvalues --    0.58825   0.59912   0.60999   0.61136   0.63207
 Alpha virt. eigenvalues --    0.63559   0.63681   0.64563   0.65057   0.67487
 Alpha virt. eigenvalues --    0.71075   0.73097   0.79308   0.82553   0.83222
 Alpha virt. eigenvalues --    0.83337   0.86071   0.87058   0.87683   0.88747
 Alpha virt. eigenvalues --    0.90780   0.92654   0.95322   0.97579   0.98354
 Alpha virt. eigenvalues --    0.99995   1.05797   1.07892   1.13318   1.14213
 Alpha virt. eigenvalues --    1.21137   1.24410   1.27267   1.30573   1.32756
 Alpha virt. eigenvalues --    1.35755   1.37780   1.41393   1.42594   1.47614
 Alpha virt. eigenvalues --    1.48882   1.50052   1.51057   1.51174   1.54529
 Alpha virt. eigenvalues --    1.60846   1.76812   1.79841   1.82459   1.89688
 Alpha virt. eigenvalues --    1.90310   1.92322   1.95508   1.96903   2.00303
 Alpha virt. eigenvalues --    2.00735   2.02677   2.10698   2.12781   2.15420
 Alpha virt. eigenvalues --    2.16655   2.22442   2.23567   2.24892   2.28042
 Alpha virt. eigenvalues --    2.28240   2.37377   2.40108   2.40811   2.46994
 Alpha virt. eigenvalues --    2.56188   2.59351   2.61640   2.64873   2.65806
 Alpha virt. eigenvalues --    2.73119   2.75522   2.79677   2.83534   2.90555
 Alpha virt. eigenvalues --    2.97338   3.05967   3.22598   3.41479   4.01840
 Alpha virt. eigenvalues --    4.10674   4.12528   4.16744   4.22736   4.34987
 Alpha virt. eigenvalues --    4.42465   4.48078   4.77682
          Condensed to atoms (all electrons):
               1          2          3          4          5          6
     1  C    4.940096   0.593775  -0.051550  -0.034024  -0.005579   0.433263
     2  C    0.593775   4.951596   0.411518   0.005978  -0.030577  -0.045829
     3  C   -0.051550   0.411518   5.269543   0.473266  -0.069704  -0.026688
     4  C   -0.034024   0.005978   0.473266   4.750371   0.555334  -0.061830
     5  C   -0.005579  -0.030577  -0.069704   0.555334   4.690145   0.476963
     6  C    0.433263  -0.045829  -0.026688  -0.061830   0.476963   5.244256
     7  N    0.000043   0.004981  -0.079167   0.218125  -0.034604   0.008218
     8  C    0.007534   0.000047   0.011092  -0.029902   0.427562  -0.083984
     9  C   -0.000386  -0.000217   0.006337  -0.112985  -0.057792   0.009967
    10  H    0.000001  -0.000048  -0.002203  -0.019569   0.004923  -0.000101
    11  H   -0.000002   0.000006  -0.000139   0.005791  -0.023528  -0.003617
    12  H    0.000003   0.000001  -0.000089   0.003962   0.001542  -0.000085
    13  H   -0.036861   0.362521  -0.040018   0.002432   0.001058   0.003977
    14  H    0.003627  -0.032618   0.361042  -0.041189   0.003846   0.000471
    15  H    0.363977  -0.039152   0.004214   0.000935   0.002431  -0.038352
    16  H   -0.038451   0.004081   0.000488   0.004563  -0.040966   0.364516
               7          8          9         10         11         12
     1  C    0.000043   0.007534  -0.000386   0.000001  -0.000002   0.000003
     2  C    0.004981   0.000047  -0.000217  -0.000048   0.000006   0.000001
     3  C   -0.079167   0.011092   0.006337  -0.002203  -0.000139  -0.000089
     4  C    0.218125  -0.029902  -0.112985  -0.019569   0.005791   0.003962
     5  C   -0.034604   0.427562  -0.057792   0.004923  -0.023528   0.001542
     6  C    0.008218  -0.083984   0.009967  -0.000101  -0.003617  -0.000085
     7  N    6.952584  -0.077111   0.372232   0.313781   0.004064  -0.040608
     8  C   -0.077111   5.226400   0.420339   0.005597   0.363970  -0.026317
     9  C    0.372232   0.420339   5.014681  -0.031649  -0.045494   0.375131
    10  H    0.313781   0.005597  -0.031649   0.353123  -0.000077  -0.002162
    11  H    0.004064   0.363970  -0.045494  -0.000077   0.494628  -0.000352
    12  H   -0.040608  -0.026317   0.375131  -0.002162  -0.000352   0.478505
    13  H   -0.000106   0.000009   0.000003  -0.000001  -0.000000  -0.000000
    14  H   -0.005287  -0.000272  -0.000030   0.002494   0.000002   0.000001
    15  H    0.000003  -0.000168   0.000004  -0.000000  -0.000002  -0.000000
    16  H   -0.000117  -0.005825  -0.000065   0.000004   0.001991  -0.000001
              13         14         15         16
     1  C   -0.036861   0.003627   0.363977  -0.038451
     2  C    0.362521  -0.032618  -0.039152   0.004081
     3  C   -0.040018   0.361042   0.004214   0.000488
     4  C    0.002432  -0.041189   0.000935   0.004563
     5  C    0.001058   0.003846   0.002431  -0.040966
     6  C    0.003977   0.000471  -0.038352   0.364516
     7  N   -0.000106  -0.005287   0.000003  -0.000117
     8  C    0.000009  -0.000272  -0.000168  -0.005825
     9  C    0.000003  -0.000030   0.000004  -0.000065
    10  H   -0.000001   0.002494  -0.000000   0.000004
    11  H   -0.000000   0.000002  -0.000002   0.001991
    12  H   -0.000000   0.000001  -0.000000  -0.000001
    13  H    0.570155  -0.003847  -0.005713  -0.000160
    14  H   -0.003847   0.572807  -0.000145   0.000013
    15  H   -0.005713  -0.000145   0.572027  -0.003837
    16  H   -0.000160   0.000013  -0.003837   0.573286
 Mulliken charges:
               1
     1  C   -0.175467
     2  C   -0.186064
     3  C   -0.267943
     4  C    0.278742
     5  C    0.098944
     6  C   -0.281146
     7  N   -0.637032
     8  C   -0.238971
     9  C    0.049926
    10  H    0.375889
    11  H    0.202758
    12  H    0.210468
    13  H    0.146551
    14  H    0.139086
    15  H    0.143777
    16  H    0.140481
 Sum of Mulliken charges =  -0.00000
 Mulliken charges with hydrogens summed into heavy atoms:
               1
     1  C   -0.031690
     2  C   -0.039512
     3  C   -0.128857
     4  C    0.278742
     5  C    0.098944
     6  C   -0.140665
     7  N   -0.261143
     8  C   -0.036214
     9  C    0.260394
 Electronic spatial extent (au):  <R**2>=           1017.4722
 Charge=              0.0000 electrons
 Dipole moment (field-independent basis, Debye):
    X=              4.8310    Y=             -1.2668    Z=              0.0008  Tot=              4.9943
 Quadrupole moment (field-independent basis, Debye-Ang):
   XX=            -41.6927   YY=            -44.1355   ZZ=            -57.1038
   XY=             -2.4396   XZ=              0.0014   YZ=             -0.0022
 Traceless Quadrupole moment (field-independent basis, Debye-Ang):
   XX=              5.9513   YY=              3.5085   ZZ=             -9.4598
   XY=             -2.4396   XZ=              0.0014   YZ=             -0.0022
 Octapole moment (field-independent basis, Debye-Ang**2):
  XXX=             31.3017  YYY=             -8.8352  ZZZ=              0.0010  XYY=             15.2100
  XXY=             -7.0055  XXZ=              0.0002  XZZ=              4.8930  YZZ=             -1.3218
  YYZ=              0.0055  XYZ=             -0.0078
 Hexadecapole moment (field-independent basis, Debye-Ang**3):
 XXXX=           -784.3948 YYYY=           -365.4169 ZZZZ=            -59.1760 XXXY=            -17.6829
 XXXZ=             -0.0043 YYYX=            -16.4223 YYYZ=             -0.0055 ZZZX=             -0.0029
 ZZZY=              0.0021 XXYY=           -187.4297 XXZZ=           -178.9390 YYZZ=            -88.8181
 XXYZ=             -0.0105 YYXZ=              0.0083 ZZXY=             -2.3850
 N-N= 3.978873272978D+02 E-N=-1.638556939763D+03  KE= 3.600554281514D+02
 Unable to Open any file for archive entry.
 1\1\GINC-COMET-07-57\FOpt\RAPFD TD-FC\6-31G(d)\C8H7N1\SCAPARAS\15-Feb-
 2021\0\\# td= (nstates=6, root=2) APFD/6-31G(d) Opt density=current\\F
 uncsAPFD2nd\\0,1\C,-2.181164696,0.6824226933,-0.000015207\C,-2.1498437
 652,-0.6986720705,-0.0000039408\C,-0.9166212274,-1.4478153764,0.000064
 7945\C,0.2396544326,-0.6496715126,0.0001883355\C,0.2357443407,0.747255
 491,0.0001558384\C,-0.9900877429,1.4693060585,0.0000661311\N,1.5917118
 611,-1.0550241437,0.0001318123\C,1.6057818272,1.1576542301,0.000063471
 8\C,2.4289667983,-0.009715581,-0.000067706\H,1.8833473271,-2.023261073
 7,0.0008727086\H,1.9808409531,2.1735294289,-0.0002152046\H,3.502655470
 8,-0.1193296825,-0.0002420679\H,-3.0865873761,-1.2516622726,-0.0000626
 397\H,-0.8940480816,-2.5311294014,-0.0001256698\H,-3.144570072,1.18735
 5016,-0.0000560345\H,-1.0125800497,2.5530781968,0.0003653782\\Version=
 ES64L-G16RevC.01\State=1-A\HF=-363.5064153\RMSD=3.477e-09\RMSF=4.667e-
 05\Dipole=1.9006494,-0.4983837,0.0003328\Quadrupole=4.4246582,2.608501
 5,-7.0331597,-1.8137587,0.0010304,-0.0015996\PG=C01 [X(C8H7N1)]\\@
 The archive entry for this job was punched.


 THESE ARE THE TIMES THAT TRY MENS SOULS.
 THE SUMMER SOLDIER AND THE SUNSHINE PATRIOT WILL IN THIS CRISIS,
 SHRINK FROM THE SERVICE OF HIS COUNTRY.  BUT HE THAT STANDS NOW,
 DESERVES THE LOVE AND THANKS OF MAN AND WOMAN.
 TYRANNY, LIKE HELL, IS NOT EASILY CONQUERED,
 YET WE HAVE THIS CONSOLATION WITH US,
 THAT THE HARDER THE CONFLICT, THE MORE GLORIOUS THE TRIUMPH.
 WHAT WE OBTAIN TOO CHEAP, WE ESTEEM TOO LIGHTLY, 
 'TIS DEARNESS ONLY THAT GIVES EVERYTHING ITS VALUE.

                                              -- TOM PAINE
 Job cpu time:       0 days  2 hours 43 minutes 29.3 seconds.
 Elapsed time:       0 days  1 hours 22 minutes 18.5 seconds.
 File lengths (MBytes):  RWF=    202 Int=      0 D2E=      0 Chk=      8 Scr=      1
 Normal termination of Gaussian 16 at Mon Feb 15 05:18:20 2021.
