 Entering Gaussian System, Link 0=/opt/gaussian/16.C.01/g16/g16
 Initial command:
 /opt/gaussian/16.C.01/g16/l1.exe "/scratch/scaparas/38458617/Gau-17064.inp" -scrdir="/scratch/scaparas/38458617/"
 Entering Link 1 = /opt/gaussian/16.C.01/g16/l1.exe PID=     17088.
  
 Copyright (c) 1988-2019, Gaussian, Inc.  All Rights Reserved.
  
 This is part of the Gaussian(R) 16 program.  It is based on
 the Gaussian(R) 09 system (copyright 2009, Gaussian, Inc.),
 the Gaussian(R) 03 system (copyright 2003, Gaussian, Inc.),
 the Gaussian(R) 98 system (copyright 1998, Gaussian, Inc.),
 the Gaussian(R) 94 system (copyright 1995, Gaussian, Inc.),
 the Gaussian 92(TM) system (copyright 1992, Gaussian, Inc.),
 the Gaussian 90(TM) system (copyright 1990, Gaussian, Inc.),
 the Gaussian 88(TM) system (copyright 1988, Gaussian, Inc.),
 the Gaussian 86(TM) system (copyright 1986, Carnegie Mellon
 University), and the Gaussian 82(TM) system (copyright 1983,
 Carnegie Mellon University). Gaussian is a federally registered
 trademark of Gaussian, Inc.
  
 This software contains proprietary and confidential information,
 including trade secrets, belonging to Gaussian, Inc.
  
 This software is provided under written license and may be
 used, copied, transmitted, or stored only in accord with that
 written license.
  
 The following legend is applicable only to US Government
 contracts under FAR:
  
                    RESTRICTED RIGHTS LEGEND
  
 Use, reproduction and disclosure by the US Government is
 subject to restrictions as set forth in subparagraphs (a)
 and (c) of the Commercial Computer Software - Restricted
 Rights clause in FAR 52.227-19.
  
 Gaussian, Inc.
 340 Quinnipiac St., Bldg. 40, Wallingford CT 06492
  
  
 ---------------------------------------------------------------
 Warning -- This program may not be used in any manner that
 competes with the business of Gaussian, Inc. or will provide
 assistance to any competitor of Gaussian, Inc.  The licensee
 of this program is prohibited from giving any competitor of
 Gaussian, Inc. access to this program.  By using this program,
 the user acknowledges that Gaussian, Inc. is engaged in the
 business of creating and licensing software in the field of
 computational chemistry and represents and warrants to the
 licensee that it is not a competitor of Gaussian, Inc. and that
 it will not use this program in any manner prohibited above.
 ---------------------------------------------------------------
  

 Cite this work as:
 Gaussian 16, Revision C.01,
 M. J. Frisch, G. W. Trucks, H. B. Schlegel, G. E. Scuseria, 
 M. A. Robb, J. R. Cheeseman, G. Scalmani, V. Barone, 
 G. A. Petersson, H. Nakatsuji, X. Li, M. Caricato, A. V. Marenich, 
 J. Bloino, B. G. Janesko, R. Gomperts, B. Mennucci, H. P. Hratchian, 
 J. V. Ortiz, A. F. Izmaylov, J. L. Sonnenberg, D. Williams-Young, 
 F. Ding, F. Lipparini, F. Egidi, J. Goings, B. Peng, A. Petrone, 
 T. Henderson, D. Ranasinghe, V. G. Zakrzewski, J. Gao, N. Rega, 
 G. Zheng, W. Liang, M. Hada, M. Ehara, K. Toyota, R. Fukuda, 
 J. Hasegawa, M. Ishida, T. Nakajima, Y. Honda, O. Kitao, H. Nakai, 
 T. Vreven, K. Throssell, J. A. Montgomery, Jr., J. E. Peralta, 
 F. Ogliaro, M. J. Bearpark, J. J. Heyd, E. N. Brothers, K. N. Kudin, 
 V. N. Staroverov, T. A. Keith, R. Kobayashi, J. Normand, 
 K. Raghavachari, A. P. Rendell, J. C. Burant, S. S. Iyengar, 
 J. Tomasi, M. Cossi, J. M. Millam, M. Klene, C. Adamo, R. Cammi, 
 J. W. Ochterski, R. L. Martin, K. Morokuma, O. Farkas, 
 J. B. Foresman, and D. J. Fox, Gaussian, Inc., Wallingford CT, 2019.
 
 ******************************************
 Gaussian 16:  ES64L-G16RevC.01  3-Jul-2019
                14-Feb-2021 
 ******************************************
 %NProcShared=2
 Will use up to    2 processors via shared memory.
 %Chk=FuncsM06HF.chk
 ------------------------------------------------------------
 # td= (nstates=6, root=1) M06HF/6-31G(d) Opt density=current
 ------------------------------------------------------------
 1/18=20,19=15,26=3,38=1/1,3;
 2/9=110,12=2,17=6,18=5,40=1/2;
 3/5=1,6=6,7=1,11=9,25=1,30=1,71=1,74=-52/1,2,3,8;
 4//1;
 5/5=2,38=5/2;
 8/6=1,10=2,107=1,108=6/1;
 9/8=1,15=2,41=6,42=1,70=2/14;
 10/5=4,28=1/2;
 6/7=2,8=2,9=2,10=2,22=-1/1;
 7/12=6,13=5,14=1/1,2,3,16;
 1/18=20,19=15,26=3/3(2);
 2/9=110/2;
 99//99;
 2/9=110/2;
 3/5=1,6=6,7=1,11=9,25=1,30=1,71=1,74=-52/1,2,3,8;
 4/5=5,16=3,69=1/1;
 5/5=2,38=5/2;
 8/6=1,10=2,107=1,108=6/1;
 9/8=1,15=2,41=6,42=1,49=4,70=2/14;
 10/5=4,28=1/2;
 7/12=6,13=5,14=1/1,2,3,16;
 1/18=20,19=15,26=3/3(-8);
 2/9=110/2;
 6/7=2,8=2,9=2,10=2,22=-1/1;
 99/9=10/99;
 ----------
 FuncsM06HF
 ----------
 Symbolic Z-matrix:
 Charge =  0 Multiplicity = 1
 C                    -2.15936   0.69162   0.00011 
 C                    -2.13588  -0.71874  -0.00002 
 C                    -0.93512  -1.41882  -0.00005 
 C                     0.24791  -0.67197  -0.00001 
 C                     0.24999   0.75191  -0.00006 
 C                    -0.98269   1.42884  -0.00006 
 N                     1.56678  -1.08097  -0.00025 
 C                     1.62599   1.16698  -0.0001 
 C                     2.39038   0.03047   0.00027 
 H                     1.88117  -2.03854   0.00076 
 H                     1.99815   2.18234  -0.00037 
 H                     3.46533  -0.08657   0.0004 
 H                    -3.07324  -1.26832   0.00023 
 H                    -0.91789  -2.50582  -0.00015 
 H                    -3.11663   1.20635   0.00023 
 H                    -1.01169   2.51556   0.00019 
 

 GradGradGradGradGradGradGradGradGradGradGradGradGradGradGradGradGradGrad
 Berny optimization.
 Initialization pass.
                           ----------------------------
                           !    Initial Parameters    !
                           ! (Angstroms and Degrees)  !
 --------------------------                            --------------------------
 ! Name  Definition              Value          Derivative Info.                !
 --------------------------------------------------------------------------------
 ! R1    R(1,2)                  1.4106         estimate D2E/DX2                !
 ! R2    R(1,6)                  1.3885         estimate D2E/DX2                !
 ! R3    R(1,15)                 1.0869         estimate D2E/DX2                !
 ! R4    R(2,3)                  1.3899         estimate D2E/DX2                !
 ! R5    R(2,13)                 1.0866         estimate D2E/DX2                !
 ! R6    R(3,4)                  1.3991         estimate D2E/DX2                !
 ! R7    R(3,14)                 1.0871         estimate D2E/DX2                !
 ! R8    R(4,5)                  1.4239         estimate D2E/DX2                !
 ! R9    R(4,7)                  1.3808         estimate D2E/DX2                !
 ! R10   R(5,6)                  1.4063         estimate D2E/DX2                !
 ! R11   R(5,8)                  1.4372         estimate D2E/DX2                !
 ! R12   R(6,16)                 1.0871         estimate D2E/DX2                !
 ! R13   R(7,9)                  1.3833         estimate D2E/DX2                !
 ! R14   R(7,10)                 1.0079         estimate D2E/DX2                !
 ! R15   R(8,9)                  1.3697         estimate D2E/DX2                !
 ! R16   R(8,11)                 1.0814         estimate D2E/DX2                !
 ! R17   R(9,12)                 1.0813         estimate D2E/DX2                !
 ! A1    A(2,1,6)              121.1146         estimate D2E/DX2                !
 ! A2    A(2,1,15)             119.221          estimate D2E/DX2                !
 ! A3    A(6,1,15)             119.6644         estimate D2E/DX2                !
 ! A4    A(1,2,3)              121.1973         estimate D2E/DX2                !
 ! A5    A(1,2,13)             119.4296         estimate D2E/DX2                !
 ! A6    A(3,2,13)             119.3731         estimate D2E/DX2                !
 ! A7    A(2,3,4)              117.4922         estimate D2E/DX2                !
 ! A8    A(2,3,14)             121.1516         estimate D2E/DX2                !
 ! A9    A(4,3,14)             121.3562         estimate D2E/DX2                !
 ! A10   A(3,4,5)              122.348          estimate D2E/DX2                !
 ! A11   A(3,4,7)              130.5063         estimate D2E/DX2                !
 ! A12   A(5,4,7)              107.1457         estimate D2E/DX2                !
 ! A13   A(4,5,6)              118.6898         estimate D2E/DX2                !
 ! A14   A(4,5,8)              106.8696         estimate D2E/DX2                !
 ! A15   A(6,5,8)              134.4406         estimate D2E/DX2                !
 ! A16   A(1,6,5)              119.1581         estimate D2E/DX2                !
 ! A17   A(1,6,16)             120.5398         estimate D2E/DX2                !
 ! A18   A(5,6,16)             120.3021         estimate D2E/DX2                !
 ! A19   A(4,7,9)              109.3098         estimate D2E/DX2                !
 ! A20   A(4,7,10)             125.4054         estimate D2E/DX2                !
 ! A21   A(9,7,10)             125.2847         estimate D2E/DX2                !
 ! A22   A(5,8,9)              107.1379         estimate D2E/DX2                !
 ! A23   A(5,8,11)             126.9153         estimate D2E/DX2                !
 ! A24   A(9,8,11)             125.9467         estimate D2E/DX2                !
 ! A25   A(7,9,8)              109.5369         estimate D2E/DX2                !
 ! A26   A(7,9,12)             120.3254         estimate D2E/DX2                !
 ! A27   A(8,9,12)             130.1377         estimate D2E/DX2                !
 ! D1    D(6,1,2,3)              0.0131         estimate D2E/DX2                !
 ! D2    D(6,1,2,13)           179.9933         estimate D2E/DX2                !
 ! D3    D(15,1,2,3)          -179.994          estimate D2E/DX2                !
 ! D4    D(15,1,2,13)           -0.0138         estimate D2E/DX2                !
 ! D5    D(2,1,6,5)             -0.0143         estimate D2E/DX2                !
 ! D6    D(2,1,6,16)          -179.991          estimate D2E/DX2                !
 ! D7    D(15,1,6,5)           179.9928         estimate D2E/DX2                !
 ! D8    D(15,1,6,16)            0.0162         estimate D2E/DX2                !
 ! D9    D(1,2,3,4)             -0.0029         estimate D2E/DX2                !
 ! D10   D(1,2,3,14)           180.0            estimate D2E/DX2                !
 ! D11   D(13,2,3,4)          -179.9831         estimate D2E/DX2                !
 ! D12   D(13,2,3,14)            0.0198         estimate D2E/DX2                !
 ! D13   D(2,3,4,5)             -0.0057         estimate D2E/DX2                !
 ! D14   D(2,3,4,7)           -179.9877         estimate D2E/DX2                !
 ! D15   D(14,3,4,5)           179.9914         estimate D2E/DX2                !
 ! D16   D(14,3,4,7)             0.0093         estimate D2E/DX2                !
 ! D17   D(3,4,5,6)              0.0043         estimate D2E/DX2                !
 ! D18   D(3,4,5,8)           -179.9957         estimate D2E/DX2                !
 ! D19   D(7,4,5,6)            179.9901         estimate D2E/DX2                !
 ! D20   D(7,4,5,8)             -0.01           estimate D2E/DX2                !
 ! D21   D(3,4,7,9)           -179.9844         estimate D2E/DX2                !
 ! D22   D(3,4,7,10)            -0.0882         estimate D2E/DX2                !
 ! D23   D(5,4,7,9)              0.0315         estimate D2E/DX2                !
 ! D24   D(5,4,7,10)           179.9277         estimate D2E/DX2                !
 ! D25   D(4,5,6,1)              0.0057         estimate D2E/DX2                !
 ! D26   D(4,5,6,16)           179.9824         estimate D2E/DX2                !
 ! D27   D(8,5,6,1)           -179.9942         estimate D2E/DX2                !
 ! D28   D(8,5,6,16)            -0.0175         estimate D2E/DX2                !
 ! D29   D(4,5,8,9)             -0.0151         estimate D2E/DX2                !
 ! D30   D(4,5,8,11)           179.9849         estimate D2E/DX2                !
 ! D31   D(6,5,8,9)            179.9849         estimate D2E/DX2                !
 ! D32   D(6,5,8,11)            -0.0151         estimate D2E/DX2                !
 ! D33   D(4,7,9,8)             -0.0422         estimate D2E/DX2                !
 ! D34   D(4,7,9,12)           179.9865         estimate D2E/DX2                !
 ! D35   D(10,7,9,8)          -179.9385         estimate D2E/DX2                !
 ! D36   D(10,7,9,12)            0.0902         estimate D2E/DX2                !
 ! D37   D(5,8,9,7)              0.0348         estimate D2E/DX2                !
 ! D38   D(5,8,9,12)          -179.9976         estimate D2E/DX2                !
 ! D39   D(11,8,9,7)          -179.9652         estimate D2E/DX2                !
 ! D40   D(11,8,9,12)            0.0024         estimate D2E/DX2                !
 --------------------------------------------------------------------------------
 Trust Radius=3.00D-01 FncErr=1.00D-07 GrdErr=1.00D-06 EigMax=2.50D+02 EigMin=1.00D-04
 Number of steps in this run=     94 maximum allowed number of steps=    100.
 GradGradGradGradGradGradGradGradGradGradGradGradGradGradGradGradGradGrad

                          Input orientation:                          
 ---------------------------------------------------------------------
 Center     Atomic      Atomic             Coordinates (Angstroms)
 Number     Number       Type             X           Y           Z
 ---------------------------------------------------------------------
      1          6           0       -2.159360    0.691620    0.000110
      2          6           0       -2.135880   -0.718740   -0.000020
      3          6           0       -0.935120   -1.418820   -0.000050
      4          6           0        0.247910   -0.671970   -0.000010
      5          6           0        0.249990    0.751910   -0.000060
      6          6           0       -0.982690    1.428840   -0.000060
      7          7           0        1.566780   -1.080970   -0.000250
      8          6           0        1.625990    1.166980   -0.000100
      9          6           0        2.390380    0.030470    0.000270
     10          1           0        1.881170   -2.038540    0.000760
     11          1           0        1.998150    2.182340   -0.000370
     12          1           0        3.465330   -0.086570    0.000400
     13          1           0       -3.073240   -1.268320    0.000230
     14          1           0       -0.917890   -2.505820   -0.000150
     15          1           0       -3.116630    1.206350    0.000230
     16          1           0       -1.011690    2.515560    0.000190
 ---------------------------------------------------------------------
                    Distance matrix (angstroms):
                    1          2          3          4          5
     1  C    0.000000
     2  C    1.410555   0.000000
     3  C    2.439820   1.389941   0.000000
     4  C    2.766645   2.384249   1.399051   0.000000
     5  C    2.410104   2.802711   2.473167   1.423882   0.000000
     6  C    1.388541   2.437611   2.848057   2.434703   1.406319
     7  N    4.126281   3.720336   2.524608   1.380833   2.256853
     8  C    3.815081   4.208041   3.639457   2.298008   1.437240
     9  C    4.597527   4.587848   3.627588   2.254684   2.258704
    10  H    4.876439   4.228305   2.883668   2.129566   3.232238
    11  H    4.416688   5.050393   4.644613   3.348197   2.258804
    12  H    5.678267   5.636771   4.597701   3.270242   3.322869
    13  H    2.162531   1.086592   2.143410   3.374266   3.889111
    14  H    3.429996   2.162673   1.087137   2.173038   3.460744
    15  H    1.086882   2.160519   3.413283   3.853338   3.397153
    16  H    2.154972   3.424106   3.935125   3.427381   2.168478
                    6          7          8          9         10
     6  C    0.000000
     7  N    3.577561   0.000000
     8  C    2.621790   2.248730   0.000000
     9  C    3.651444   1.383335   1.369652   0.000000
    10  H    4.497157   1.007860   3.215661   2.130750   0.000000
    11  H    3.074601   3.291697   1.081415   2.187325   4.222501
    12  H    4.699080   2.143204   2.225884   1.081303   2.513911
    13  H    3.412488   4.643801   5.292773   5.615870   5.013922
    14  H    3.935194   2.864225   4.467749   4.168623   2.837796
    15  H    2.145507   5.212117   4.742783   5.631150   5.958802
    16  H    1.087107   4.425329   2.962435   4.213046   5.395226
                   11         12         13         14         15
    11  H    0.000000
    12  H    2.701957   0.000000
    13  H    6.134008   6.644504   0.000000
    14  H    5.521063   5.006535   2.485345   0.000000
    15  H    5.207066   6.707745   2.475050   4.314471   0.000000
    16  H    3.028229   5.178300   4.309030   5.022256   2.478871
                   16
    16  H    0.000000
 Stoichiometry    C8H7N
 Framework group  C1[X(C8H7N)]
 Deg. of freedom    42
 Full point group                 C1      NOp   1
 Largest Abelian subgroup         C1      NOp   1
 Largest concise Abelian subgroup C1      NOp   1
                         Standard orientation:                         
 ---------------------------------------------------------------------
 Center     Atomic      Atomic             Coordinates (Angstroms)
 Number     Number       Type             X           Y           Z
 ---------------------------------------------------------------------
      1          6           0       -2.159361    0.691618    0.000110
      2          6           0       -2.135879   -0.718742   -0.000020
      3          6           0       -0.935118   -1.418820   -0.000050
      4          6           0        0.247911   -0.671969   -0.000010
      5          6           0        0.249989    0.751911   -0.000060
      6          6           0       -0.982691    1.428840   -0.000060
      7          7           0        1.566782   -1.080967   -0.000250
      8          6           0        1.625989    1.166983   -0.000100
      9          6           0        2.390380    0.030474    0.000270
     10          1           0        1.881173   -2.038537    0.000760
     11          1           0        1.998148    2.182343   -0.000370
     12          1           0        3.465330   -0.086565    0.000400
     13          1           0       -3.073238   -1.268323    0.000230
     14          1           0       -0.917887   -2.505820   -0.000150
     15          1           0       -3.116631    1.206347    0.000230
     16          1           0       -1.011693    2.515560    0.000190
 ---------------------------------------------------------------------
 Rotational constants (GHZ):           3.8785006           1.6312482           1.1482914
 Standard basis: 6-31G(d) (6D, 7F)
 There are   149 symmetry adapted cartesian basis functions of A   symmetry.
 There are   149 symmetry adapted basis functions of A   symmetry.
   149 basis functions,   280 primitive gaussians,   149 cartesian basis functions
    31 alpha electrons       31 beta electrons
       nuclear repulsion energy       399.8542490966 Hartrees.
 NAtoms=   16 NActive=   16 NUniq=   16 SFac= 1.00D+00 NAtFMM=   60 NAOKFM=F Big=F
 Integral buffers will be    131072 words long.
 Raffenetti 1 integral format.
 Two-electron integral symmetry is turned on.
 One-electron integrals computed using PRISM.
 NBasis=   149 RedAO= T EigKep=  4.06D-04  NBF=   149
 NBsUse=   149 1.00D-06 EigRej= -1.00D+00 NBFU=   149
 ExpMin= 1.61D-01 ExpMax= 4.17D+03 ExpMxC= 6.27D+02 IAcc=3 IRadAn=         5 AccDes= 0.00D+00
 Harris functional with IExCor= 1009 and IRadAn=       5 diagonalized for initial guess.
 HarFok:  IExCor= 1009 AccDes= 0.00D+00 IRadAn=         5 IDoV= 1 UseB2=F ITyADJ=14
 ICtDFT=  3500011 ScaDFX=  1.000000  1.000000  1.000000  1.000000
 FoFCou: FMM=F IPFlag=           0 FMFlag=      100000 FMFlg1=           0
         NFxFlg=           0 DoJE=T BraDBF=F KetDBF=T FulRan=T
         wScrn=  0.000000 ICntrl=       500 IOpCl=  0 I1Cent=   200000004 NGrid=           0
         NMat0=    1 NMatS0=      1 NMatT0=    0 NMatD0=    1 NMtDS0=    0 NMtDT0=    0
 Petite list used in FoFCou.
 Keep R1 ints in memory in canonical form, NReq=64402215.
 Requested convergence on RMS density matrix=1.00D-08 within 128 cycles.
 Requested convergence on MAX density matrix=1.00D-06.
 Requested convergence on             energy=1.00D-06.
 No special actions if energy rises.
 Integral accuracy reduced to 1.0D-05 until final iterations.
 Initial convergence to 1.0D-05 achieved.  Increase integral accuracy.
 SCF Done:  E(RM06HF) =  -363.727600706     A.U. after   16 cycles
            NFock= 16  Conv=0.96D-08     -V/T= 2.0098
 DoSCS=F DFT=T ScalE2(SS,OS)=  1.000000  1.000000
 ExpMin= 1.61D-01 ExpMax= 4.17D+03 ExpMxC= 6.27D+02 IAcc=3 IRadAn=         5 AccDes= 0.00D+00
 HarFok:  IExCor=  205 AccDes= 0.00D+00 IRadAn=         5 IDoV=-2 UseB2=F ITyADJ=14
 ICtDFT= 12500011 ScaDFX=  1.000000  1.000000  1.000000  1.000000
 Range of M.O.s used for correlation:    10   149
 NBasis=   149 NAE=    31 NBE=    31 NFC=     9 NFV=     0
 NROrb=    140 NOA=    22 NOB=    22 NVA=   118 NVB=   118

 **** Warning!!: The largest alpha MO coefficient is  0.10685419D+02

 Orbital symmetries:
       Occupied  (A) (A) (A) (A) (A) (A) (A) (A) (A) (A) (A) (A)
                 (A) (A) (A) (A) (A) (A) (A) (A) (A) (A) (A) (A)
                 (A) (A) (A) (A) (A) (A) (A)
       Virtual   (A) (A) (A) (A) (A) (A) (A) (A) (A) (A) (A) (A)
                 (A) (A) (A) (A) (A) (A) (A) (A) (A) (A) (A) (A)
                 (A) (A) (A) (A) (A) (A) (A) (A) (A) (A) (A) (A)
                 (A) (A) (A) (A) (A) (A) (A) (A) (A) (A) (A) (A)
                 (A) (A) (A) (A) (A) (A) (A) (A) (A) (A) (A) (A)
                 (A) (A) (A) (A) (A) (A) (A) (A) (A) (A) (A) (A)
                 (A) (A) (A) (A) (A) (A) (A) (A) (A) (A) (A) (A)
                 (A) (A) (A) (A) (A) (A) (A) (A) (A) (A) (A) (A)
                 (A) (A) (A) (A) (A) (A) (A) (A) (A) (A) (A) (A)
                 (A) (A) (A) (A) (A) (A) (A) (A) (A) (A)
    24 initial guesses have been made.
 Convergence on wavefunction:    0.000001000000000
 Iteration     1 Dimension    24 NMult     0 NNew     24
 CISAX will form    24 AO SS matrices at one time.
 New state      1 was old state      2
 New state      2 was old state      1
 New state      4 was old state      5
 New state      5 was old state      4
 New state      6 was old state     14
 Iteration     2 Dimension    36 NMult    24 NNew     12
 New state      4 was old state      5
 New state      5 was old state      4
 Iteration     3 Dimension    48 NMult    36 NNew     12
 Iteration     4 Dimension    60 NMult    48 NNew     12
 Iteration     5 Dimension    72 NMult    60 NNew     12
 Iteration     6 Dimension    84 NMult    72 NNew     12
 Iteration     7 Dimension    96 NMult    84 NNew     12
 Iteration     8 Dimension   108 NMult    96 NNew     12
 Iteration     9 Dimension   120 NMult   108 NNew     12
 Iteration    10 Dimension   128 NMult   120 NNew      8
 Iteration    11 Dimension   134 NMult   128 NNew      6
 Iteration    12 Dimension   140 NMult   134 NNew      6
 Iteration    13 Dimension   144 NMult   140 NNew      4
 Iteration    14 Dimension   148 NMult   144 NNew      4
 Iteration    15 Dimension   152 NMult   148 NNew      4
 Iteration    16 Dimension   154 NMult   152 NNew      2
 Iteration    17 Dimension   156 NMult   154 NNew      2
 ***********************************************************************
 Excited states from <AA,BB:AA,BB> singles matrix:
 ***********************************************************************
 
 Ground to excited state transition densities written to RWF  633
 Ground to excited state transition electric dipole moments (Au):
       state          X           Y           Z        Dip. S.      Osc.
         1        -0.3216     -0.4319     -0.0001      0.2900      0.0385
         2        -0.8223      0.6633     -0.0002      1.1162      0.1554
         3        -2.1039     -0.5007      0.0000      4.6773      0.7828
         4         0.5969     -1.0946     -0.0001      1.5545      0.2747
         5        -0.0024     -0.0008      0.0619      0.0038      0.0007
         6         0.4764     -0.0499      0.0001      0.2294      0.0434
 Ground to excited state transition velocity dipole moments (Au):
       state          X           Y           Z        Dip. S.      Osc.
         1         0.0696      0.1014      0.0000      0.0151      0.0507
         2         0.1782     -0.1662      0.0000      0.0594      0.1896
         3         0.5737      0.1428      0.0000      0.3496      0.9283
         4        -0.1722      0.3232      0.0000      0.1341      0.3373
         5         0.0007      0.0002     -0.0578      0.0033      0.0081
         6        -0.1493      0.0091     -0.0000      0.0224      0.0526
 Ground to excited state transition magnetic dipole moments (Au):
       state          X           Y           Z
         1        -0.0002     -0.0002     -0.1078
         2         0.0002      0.0001      0.0380
         3        -0.0002     -0.0003     -0.5978
         4        -0.0001      0.0000     -0.3828
         5         0.3285      0.1983      0.0007
         6         0.0003      0.0001     -1.4233
 Ground to excited state transition velocity quadrupole moments (Au):
       state          XX          YY          ZZ          XY          XZ          YZ
         1        -0.0460     -0.0922      0.0142      0.0205      0.0001     -0.0001
         2         0.2527     -0.2100     -0.0113     -0.0730      0.0000      0.0001
         3        -0.2816     -0.0085     -0.0371     -0.4172      0.0002     -0.0003
         4         0.6876     -0.1303      0.0406     -0.5501     -0.0001      0.0001
         5        -0.0012      0.0000     -0.0001      0.0006     -0.2116      0.2531
         6         0.8928     -0.3135     -0.0407     -1.0599      0.0000      0.0002
 <0|del|b> * <b|rxdel|0> + <0|del|b> * <b|delr+rdel|0>
 Rotatory Strengths (R) in cgs (10**-40 erg-esu-cm/Gauss)
       state          XX          YY          ZZ    R(velocity)    E-M Angle
         1        -0.0598     -0.0402     -0.0315     -0.0438       90.00
         2        -0.0344      0.0915     -0.0051      0.0173       90.00
         3        -0.1551     -0.3714      0.0431     -0.1611       90.03
         4         0.0069      0.0156      0.0215      0.0147       90.00
         5         0.0303      0.5350      0.0656      0.2103       89.37
         6         0.1412     -0.0674     -0.0224      0.0171       90.00
 1/2[<0|r|b>*<b|rxdel|0> + (<0|rxdel|b>*<b|r|0>)*]
 Rotatory Strengths (R) in cgs (10**-40 erg-esu-cm/Gauss)
       state          XX          YY          ZZ     R(length)
         1        -0.0465     -0.0589     -0.0076     -0.0377
         2         0.1134     -0.0569      0.0043      0.0203
         3        -0.2856     -0.0950      0.0013     -0.1264
         4         0.0604      0.0002     -0.0253      0.0118
         5         0.5569      0.1167     -0.0287      0.2150
         6        -0.1006      0.0023      0.0702     -0.0094
  1/2[<0|del|b>*<b|r|0> + (<0|r|b>*<b|del|0>)*] (Au)
       state          X           Y           Z        Dip. S.   Osc.(frdel)
         1        -0.0224     -0.0438     -0.0000      0.0662      0.0441
         2        -0.1465     -0.1103     -0.0000      0.2568      0.1712
         3        -1.2071     -0.0715      0.0000      1.2786      0.8524
         4        -0.1028     -0.3538     -0.0000      0.4566      0.3044
         5        -0.0000     -0.0000     -0.0036      0.0036      0.0024
         6        -0.0711     -0.0005     -0.0000      0.0716      0.0477

 Excitation energies and oscillator strengths:
 
 Excited State   1:      Singlet-A      5.4124 eV  229.08 nm  f=0.0385  <S**2>=0.000
      29 -> 33         0.10124
      30 -> 32         0.58184
      31 -> 32        -0.15239
      31 -> 33        -0.34658
 This state for optimization and/or second-order correction.
 Total Energy, E(TD-HF/TD-DFT) =  -363.528699787    
 Copying the excited state density for this state as the 1-particle RhoCI density.
 
 Excited State   2:      Singlet-A      5.6832 eV  218.16 nm  f=0.1554  <S**2>=0.000
      30 -> 32         0.11978
      30 -> 33         0.17484
      31 -> 32         0.66203
 
 Excited State   3:      Singlet-A      6.8312 eV  181.50 nm  f=0.7828  <S**2>=0.000
      30 -> 32         0.36066
      30 -> 33        -0.11174
      31 -> 33         0.58691
 
 Excited State   4:      Singlet-A      7.2131 eV  171.89 nm  f=0.2747  <S**2>=0.000
      30 -> 33         0.66607
      31 -> 32        -0.17373
      31 -> 33         0.10172
 
 Excited State   5:      Singlet-A      7.4743 eV  165.88 nm  f=0.0007  <S**2>=0.000
      22 -> 34        -0.11263
      27 -> 34         0.13755
      29 -> 34         0.19765
      30 -> 34        -0.23079
      31 -> 34         0.59614
 
 Excited State   6:      Singlet-A      7.7198 eV  160.61 nm  f=0.0434  <S**2>=0.000
      29 -> 32         0.57096
      30 -> 35         0.13671
      31 -> 35        -0.36336
 SavETr:  write IOETrn=   770 NScale= 10 NData=  16 NLR=1 NState=    6 LETran=     118.
          IDoAtm=1111111111111111
          Differentiating once with respect to electric field.
                with respect to dipole field.
          Differentiating once with respect to nuclear coordinates.
 Keep R1 ints in memory in canonical form, NReq=64414501.
          There are     1 degrees of freedom in the 1st order CPHF.  IDoFFX=0 NUNeed=     1.
 LinEq1:  Iter=  0 NonCon=     1 RMS=4.00D-03 Max=8.02D-02 NDo=     1
 AX will form     1 AO Fock derivatives at one time.
 LinEq1:  Iter=  1 NonCon=     1 RMS=1.66D-03 Max=4.28D-02 NDo=     1
 LinEq1:  Iter=  2 NonCon=     1 RMS=6.05D-04 Max=1.28D-02 NDo=     1
 LinEq1:  Iter=  3 NonCon=     1 RMS=3.50D-04 Max=9.54D-03 NDo=     1
 LinEq1:  Iter=  4 NonCon=     1 RMS=1.20D-04 Max=2.32D-03 NDo=     1
 LinEq1:  Iter=  5 NonCon=     1 RMS=4.93D-05 Max=1.41D-03 NDo=     1
 LinEq1:  Iter=  6 NonCon=     1 RMS=2.12D-05 Max=4.94D-04 NDo=     1
 LinEq1:  Iter=  7 NonCon=     1 RMS=6.79D-06 Max=1.24D-04 NDo=     1
 LinEq1:  Iter=  8 NonCon=     1 RMS=3.31D-06 Max=7.53D-05 NDo=     1
 LinEq1:  Iter=  9 NonCon=     1 RMS=1.08D-06 Max=2.22D-05 NDo=     1
 LinEq1:  Iter= 10 NonCon=     1 RMS=3.56D-07 Max=5.89D-06 NDo=     1
 LinEq1:  Iter= 11 NonCon=     1 RMS=1.89D-07 Max=5.08D-06 NDo=     1
 LinEq1:  Iter= 12 NonCon=     1 RMS=4.93D-08 Max=8.48D-07 NDo=     1
 LinEq1:  Iter= 13 NonCon=     1 RMS=2.09D-08 Max=3.92D-07 NDo=     1
 LinEq1:  Iter= 14 NonCon=     1 RMS=6.63D-09 Max=9.66D-08 NDo=     1
 LinEq1:  Iter= 15 NonCon=     1 RMS=1.87D-09 Max=2.56D-08 NDo=     1
 LinEq1:  Iter= 16 NonCon=     1 RMS=6.07D-10 Max=9.91D-09 NDo=     1
 LinEq1:  Iter= 17 NonCon=     1 RMS=2.00D-10 Max=3.54D-09 NDo=     1
 LinEq1:  Iter= 18 NonCon=     0 RMS=6.63D-11 Max=6.89D-10 NDo=     1
 Linear equations converged to 1.000D-10 1.000D-09 after    18 iterations.
 End of Minotr F.D. properties file   721 does not exist.
 End of Minotr F.D. properties file   722 does not exist.
 End of Minotr F.D. properties file   788 does not exist.

 **********************************************************************

            Population analysis using the CI Density.

 **********************************************************************

 Orbital symmetries:
       Occupied  (A) (A) (A) (A) (A) (A) (A) (A) (A) (A) (A) (A)
                 (A) (A) (A) (A) (A) (A) (A) (A) (A) (A) (A) (A)
                 (A) (A) (A) (A) (A) (A) (A)
       Virtual   (A) (A) (A) (A) (A) (A) (A) (A) (A) (A) (A) (A)
                 (A) (A) (A) (A) (A) (A) (A) (A) (A) (A) (A) (A)
                 (A) (A) (A) (A) (A) (A) (A) (A) (A) (A) (A) (A)
                 (A) (A) (A) (A) (A) (A) (A) (A) (A) (A) (A) (A)
                 (A) (A) (A) (A) (A) (A) (A) (A) (A) (A) (A) (A)
                 (A) (A) (A) (A) (A) (A) (A) (A) (A) (A) (A) (A)
                 (A) (A) (A) (A) (A) (A) (A) (A) (A) (A) (A) (A)
                 (A) (A) (A) (A) (A) (A) (A) (A) (A) (A) (A) (A)
                 (A) (A) (A) (A) (A) (A) (A) (A) (A) (A) (A) (A)
                 (A) (A) (A) (A) (A) (A) (A) (A) (A) (A)
 The electronic state is 1-A.
 Alpha  occ. eigenvalues --  -15.30282 -11.00645 -11.00173 -10.97029 -10.96541
 Alpha  occ. eigenvalues --  -10.96477 -10.96331 -10.95843 -10.95510  -1.20681
 Alpha  occ. eigenvalues --   -1.05093  -0.98465  -0.93116  -0.91227  -0.80498
 Alpha  occ. eigenvalues --   -0.77083  -0.75538  -0.71009  -0.64353  -0.63010
 Alpha  occ. eigenvalues --   -0.58635  -0.58201  -0.58083  -0.55581  -0.53477
 Alpha  occ. eigenvalues --   -0.49003  -0.47629  -0.46672  -0.40326  -0.32635
 Alpha  occ. eigenvalues --   -0.30730
 Alpha virt. eigenvalues --    0.07599   0.11939   0.16386   0.17798   0.19849
 Alpha virt. eigenvalues --    0.22676   0.24078   0.25918   0.27489   0.28452
 Alpha virt. eigenvalues --    0.30851   0.31960   0.35111   0.36606   0.39483
 Alpha virt. eigenvalues --    0.42546   0.44195   0.47887   0.54368   0.59862
 Alpha virt. eigenvalues --    0.61424   0.62843   0.62983   0.66363   0.66455
 Alpha virt. eigenvalues --    0.67654   0.68847   0.70026   0.71549   0.71807
 Alpha virt. eigenvalues --    0.72962   0.73217   0.74693   0.75969   0.76031
 Alpha virt. eigenvalues --    0.80285   0.82175   0.88268   0.91745   0.93222
 Alpha virt. eigenvalues --    0.94488   0.98235   0.99227   0.99815   1.01019
 Alpha virt. eigenvalues --    1.02336   1.03291   1.05539   1.06760   1.07204
 Alpha virt. eigenvalues --    1.08129   1.13008   1.15144   1.19020   1.20866
 Alpha virt. eigenvalues --    1.28801   1.35000   1.35253   1.37999   1.45029
 Alpha virt. eigenvalues --    1.45274   1.46203   1.54048   1.54262   1.56145
 Alpha virt. eigenvalues --    1.58493   1.60696   1.63058   1.63491   1.64133
 Alpha virt. eigenvalues --    1.68484   1.84870   1.90138   1.94071   1.97473
 Alpha virt. eigenvalues --    1.99223   2.07826   2.08233   2.10062   2.12946
 Alpha virt. eigenvalues --    2.15922   2.18035   2.21014   2.24158   2.25207
 Alpha virt. eigenvalues --    2.25447   2.31041   2.33609   2.33822   2.34510
 Alpha virt. eigenvalues --    2.35761   2.44833   2.47440   2.48607   2.56318
 Alpha virt. eigenvalues --    2.61787   2.63994   2.64676   2.70967   2.72372
 Alpha virt. eigenvalues --    2.76316   2.79649   2.83645   2.87591   2.93356
 Alpha virt. eigenvalues --    2.97749   3.16287   3.20260   3.44954   3.97686
 Alpha virt. eigenvalues --    4.08447   4.10641   4.15061   4.19663   4.30980
 Alpha virt. eigenvalues --    4.38429   4.43808   4.73523
          Condensed to atoms (all electrons):
               1          2          3          4          5          6
     1  C    5.038933   0.490176  -0.037188  -0.036877  -0.005096   0.430625
     2  C    0.490176   5.070910   0.445334   0.002178  -0.024879  -0.051875
     3  C   -0.037188   0.445334   5.124175   0.479459  -0.078599  -0.040550
     4  C   -0.036877   0.002178   0.479459   4.872491   0.434923  -0.050026
     5  C   -0.005096  -0.024879  -0.078599   0.434923   4.835602   0.464285
     6  C    0.430625  -0.051875  -0.040550  -0.050026   0.464285   5.207377
     7  N   -0.000336   0.006079  -0.099316   0.248350  -0.034150   0.011688
     8  C    0.008350   0.000011   0.012806  -0.026430   0.449184  -0.107621
     9  C   -0.000480  -0.000220   0.005422  -0.117646  -0.015127   0.012210
    10  H   -0.000003  -0.000026  -0.003599  -0.027611   0.006519  -0.000077
    11  H    0.000005   0.000004  -0.000111   0.006757  -0.034291  -0.004982
    12  H    0.000004   0.000000  -0.000075   0.006102   0.001534  -0.000150
    13  H   -0.036737   0.372588  -0.033766   0.002676   0.001031   0.003665
    14  H    0.004088  -0.038801   0.365849  -0.035867   0.004605   0.000351
    15  H    0.371729  -0.035234   0.003564   0.000994   0.002233  -0.035564
    16  H   -0.044509   0.004091   0.000409   0.004766  -0.035334   0.372324
               7          8          9         10         11         12
     1  C   -0.000336   0.008350  -0.000480  -0.000003   0.000005   0.000004
     2  C    0.006079   0.000011  -0.000220  -0.000026   0.000004   0.000000
     3  C   -0.099316   0.012806   0.005422  -0.003599  -0.000111  -0.000075
     4  C    0.248350  -0.026430  -0.117646  -0.027611   0.006757   0.006102
     5  C   -0.034150   0.449184  -0.015127   0.006519  -0.034291   0.001534
     6  C    0.011688  -0.107621   0.012210  -0.000077  -0.004982  -0.000150
     7  N    7.125814  -0.069357   0.280718   0.332893   0.003744  -0.047573
     8  C   -0.069357   5.067696   0.535794   0.004429   0.377639  -0.026908
     9  C    0.280718   0.535794   4.986384  -0.030166  -0.046912   0.378810
    10  H    0.332893   0.004429  -0.030166   0.353381  -0.000069  -0.002242
    11  H    0.003744   0.377639  -0.046912  -0.000069   0.503489  -0.000937
    12  H   -0.047573  -0.026908   0.378810  -0.002242  -0.000937   0.486170
    13  H   -0.000102   0.000008   0.000002  -0.000002  -0.000000  -0.000000
    14  H   -0.006349  -0.000255  -0.000002   0.002240   0.000001   0.000002
    15  H    0.000004  -0.000141   0.000004  -0.000000  -0.000001  -0.000000
    16  H   -0.000107  -0.005576  -0.000003   0.000003   0.001807  -0.000001
              13         14         15         16
     1  C   -0.036737   0.004088   0.371729  -0.044509
     2  C    0.372588  -0.038801  -0.035234   0.004091
     3  C   -0.033766   0.365849   0.003564   0.000409
     4  C    0.002676  -0.035867   0.000994   0.004766
     5  C    0.001031   0.004605   0.002233  -0.035334
     6  C    0.003665   0.000351  -0.035564   0.372324
     7  N   -0.000102  -0.006349   0.000004  -0.000107
     8  C    0.000008  -0.000255  -0.000141  -0.005576
     9  C    0.000002  -0.000002   0.000004  -0.000003
    10  H   -0.000002   0.002240  -0.000000   0.000003
    11  H   -0.000000   0.000001  -0.000001   0.001807
    12  H   -0.000000   0.000002  -0.000000  -0.000001
    13  H    0.523464  -0.004289  -0.004194  -0.000135
    14  H   -0.004289   0.538770  -0.000130   0.000014
    15  H   -0.004194  -0.000130   0.513101  -0.004028
    16  H   -0.000135   0.000014  -0.004028   0.527355
 Mulliken charges:
               1
     1  C   -0.182682
     2  C   -0.240339
     3  C   -0.143813
     4  C    0.235761
     5  C    0.027562
     6  C   -0.211679
     7  N   -0.751999
     8  C   -0.219629
     9  C    0.011214
    10  H    0.364331
    11  H    0.193859
    12  H    0.205263
    13  H    0.175791
    14  H    0.169774
    15  H    0.187663
    16  H    0.178925
 Sum of Mulliken charges =  -0.00000
 Mulliken charges with hydrogens summed into heavy atoms:
               1
     1  C    0.004981
     2  C   -0.064549
     3  C    0.025961
     4  C    0.235761
     5  C    0.027562
     6  C   -0.032754
     7  N   -0.387669
     8  C   -0.025770
     9  C    0.216477
 Electronic spatial extent (au):  <R**2>=           1009.0092
 Charge=             -0.0000 electrons
 Dipole moment (field-independent basis, Debye):
    X=              1.7664    Y=             -1.2086    Z=              0.0021  Tot=              2.1403
 Quadrupole moment (field-independent basis, Debye-Ang):
   XX=            -43.2849   YY=            -43.5318   ZZ=            -58.1050
   XY=             -3.8960   XZ=              0.0025   YZ=             -0.0038
 Traceless Quadrupole moment (field-independent basis, Debye-Ang):
   XX=              5.0223   YY=              4.7755   ZZ=             -9.7977
   XY=             -3.8960   XZ=              0.0025   YZ=             -0.0038
 Octapole moment (field-independent basis, Debye-Ang**2):
  XXX=             14.1249  YYY=             -9.2462  ZZZ=              0.0011  XYY=              9.4077
  XXY=             -6.0827  XXZ=              0.0122  XZZ=              2.1497  YZZ=             -1.4018
  YYZ=              0.0067  XYZ=             -0.0092
 Hexadecapole moment (field-independent basis, Debye-Ang**3):
 XXXX=           -784.2842 YYYY=           -356.1114 ZZZZ=            -61.6288 XXXY=            -26.3556
 XXXZ=              0.0102 YYYX=            -19.2345 YYYZ=             -0.0143 ZZZX=              0.0000
 ZZZY=             -0.0026 XXYY=           -185.8827 XXZZ=           -181.7020 YYZZ=            -89.3932
 XXYZ=             -0.0171 YYXZ=              0.0076 ZZXY=             -3.9802
 N-N= 3.998542490966D+02 E-N=-1.642172022936D+03  KE= 3.604242672784D+02
 Calling FoFJK, ICntrl=  10005127 FMM=F ISym2X=0 I1Cent= 0 IOpClX= 0 NMat=1 NMatS=1 NMatT=0.
 ***** Axes restored to original set *****
 -------------------------------------------------------------------
 Center     Atomic                   Forces (Hartrees/Bohr)
 Number     Number              X              Y              Z
 -------------------------------------------------------------------
      1        6          -0.022919978   -0.011363688   -0.000013781
      2        6          -0.028213689    0.000569360    0.000022442
      3        6           0.013266270   -0.028072607   -0.000001560
      4        6           0.016995136   -0.029951480   -0.000031631
      5        6           0.001608044    0.025076112   -0.000022706
      6        6           0.024011178    0.029019854    0.000018303
      7        7          -0.032509772    0.001567818    0.000065250
      8        6           0.005111699   -0.000337065    0.000024394
      9        6           0.020972554    0.015075070   -0.000044530
     10        1          -0.000984163   -0.000329122   -0.000010699
     11        1          -0.001483088   -0.003359617    0.000012373
     12        1          -0.004389647    0.000794750   -0.000003605
     13        1           0.003651695    0.002879486   -0.000009423
     14        1           0.000617837    0.004889645    0.000001584
     15        1           0.003523107   -0.001878515    0.000002279
     16        1           0.000742819   -0.004580003   -0.000008691
 -------------------------------------------------------------------
 Cartesian Forces:  Max     0.032509772 RMS     0.012517841

 GradGradGradGradGradGradGradGradGradGradGradGradGradGradGradGradGradGrad
 Berny optimization.
 FormGI is forming the generalized inverse of G from B-inverse, IUseBI=4.
 Internal  Forces:  Max     0.032506644 RMS     0.006752146
 Search for a local minimum.
 Step number   1 out of a maximum of   94
 All quantities printed in internal units (Hartrees-Bohrs-Radians)
 Mixed Optimization -- RFO/linear search
 Second derivative matrix not updated -- first step.
 ITU=  0
     Eigenvalues ---    0.01790   0.01867   0.01928   0.01947   0.02010
     Eigenvalues ---    0.02041   0.02076   0.02089   0.02098   0.02135
     Eigenvalues ---    0.02159   0.02173   0.02275   0.16000   0.16000
     Eigenvalues ---    0.16000   0.16000   0.16000   0.16000   0.16000
     Eigenvalues ---    0.22000   0.22188   0.22662   0.24010   0.24651
     Eigenvalues ---    0.35146   0.35149   0.35175   0.35209   0.35824
     Eigenvalues ---    0.35837   0.36510   0.37931   0.41898   0.42676
     Eigenvalues ---    0.44901   0.45975   0.46333   0.46561   0.46716
     Eigenvalues ---    0.47115   0.50040
 RFO step:  Lambda=-8.96560785D-03 EMin= 1.79046333D-02
 Linear search not attempted -- first point.
 Iteration  1 RMS(Cart)=  0.02011028 RMS(Int)=  0.00016385
 Iteration  2 RMS(Cart)=  0.00022140 RMS(Int)=  0.00004901
 Iteration  3 RMS(Cart)=  0.00000004 RMS(Int)=  0.00004901
 Variable       Old X    -DE/DX   Delta X   Delta X   Delta X     New X
                                 (Linear)    (Quad)   (Total)
    R1        2.66556   0.00945   0.00000   0.02152   0.02149   2.68705
    R2        2.62396   0.03251   0.00000   0.06712   0.06713   2.69109
    R3        2.05391  -0.00399   0.00000  -0.01107  -0.01107   2.04284
    R4        2.62661   0.02370   0.00000   0.04950   0.04946   2.67607
    R5        2.05336  -0.00461   0.00000  -0.01276  -0.01276   2.04060
    R6        2.64382   0.01051   0.00000   0.02246   0.02245   2.66627
    R7        2.05439  -0.00488   0.00000  -0.01353  -0.01353   2.04086
    R8        2.69075   0.02720   0.00000   0.06360   0.06353   2.75427
    R9        2.60940  -0.01964   0.00000  -0.04033  -0.04029   2.56911
   R10        2.65756   0.00022   0.00000   0.00011   0.00015   2.65771
   R11        2.71599   0.00325   0.00000   0.00937   0.00927   2.72526
   R12        2.05433  -0.00460   0.00000  -0.01276  -0.01276   2.04157
   R13        2.61412   0.01951   0.00000   0.03854   0.03866   2.65278
   R14        1.90458   0.00000   0.00000   0.00001   0.00001   1.90459
   R15        2.58827  -0.00365   0.00000  -0.00675  -0.00671   2.58156
   R16        2.04358  -0.00366   0.00000  -0.00998  -0.00998   2.03360
   R17        2.04337  -0.00445   0.00000  -0.01211  -0.01211   2.03125
    A1        2.11385   0.00627   0.00000   0.02885   0.02881   2.14266
    A2        2.08080  -0.00313   0.00000  -0.01436  -0.01435   2.06645
    A3        2.08854  -0.00315   0.00000  -0.01449  -0.01447   2.07407
    A4        2.11529  -0.00278   0.00000  -0.01003  -0.01013   2.10516
    A5        2.08444   0.00074   0.00000   0.00117   0.00122   2.08566
    A6        2.08345   0.00204   0.00000   0.00886   0.00891   2.09236
    A7        2.05063  -0.00484   0.00000  -0.01992  -0.02000   2.03063
    A8        2.11449   0.00314   0.00000   0.01421   0.01425   2.12874
    A9        2.11807   0.00170   0.00000   0.00572   0.00575   2.12382
   A10        2.13538   0.00707   0.00000   0.02776   0.02779   2.16316
   A11        2.27776  -0.00078   0.00000  -0.00203  -0.00200   2.27576
   A12        1.87005  -0.00629   0.00000  -0.02573  -0.02578   1.84426
   A13        2.07153  -0.00103   0.00000  -0.00603  -0.00588   2.06565
   A14        1.86523   0.00036   0.00000   0.00405   0.00384   1.86907
   A15        2.34643   0.00067   0.00000   0.00198   0.00204   2.34847
   A16        2.07970  -0.00469   0.00000  -0.02063  -0.02059   2.05911
   A17        2.10382   0.00298   0.00000   0.01407   0.01405   2.11786
   A18        2.09967   0.00171   0.00000   0.00656   0.00654   2.10621
   A19        1.90782   0.00870   0.00000   0.03353   0.03368   1.94149
   A20        2.18874  -0.00533   0.00000  -0.02260  -0.02267   2.16607
   A21        2.18663  -0.00336   0.00000  -0.01093  -0.01101   2.17562
   A22        1.86991   0.00054   0.00000   0.00460   0.00455   1.87446
   A23        2.21509  -0.00052   0.00000  -0.00375  -0.00373   2.21136
   A24        2.19819  -0.00003   0.00000  -0.00085  -0.00083   2.19736
   A25        1.91178  -0.00331   0.00000  -0.01644  -0.01629   1.89549
   A26        2.10007   0.00198   0.00000   0.01015   0.01008   2.11015
   A27        2.27133   0.00133   0.00000   0.00629   0.00622   2.27755
    D1        0.00023  -0.00000   0.00000  -0.00016  -0.00016   0.00007
    D2        3.14148   0.00000   0.00000   0.00003   0.00003   3.14150
    D3       -3.14149  -0.00000   0.00000  -0.00003  -0.00003  -3.14152
    D4       -0.00024   0.00000   0.00000   0.00015   0.00015  -0.00009
    D5       -0.00025   0.00001   0.00000   0.00020   0.00020  -0.00005
    D6       -3.14143  -0.00000   0.00000  -0.00001  -0.00000  -3.14144
    D7        3.14147   0.00000   0.00000   0.00008   0.00008   3.14154
    D8        0.00028  -0.00000   0.00000  -0.00013  -0.00013   0.00015
    D9       -0.00005   0.00000   0.00000   0.00002   0.00002  -0.00003
   D10        3.14159   0.00000   0.00000   0.00003   0.00003  -3.14156
   D11       -3.14130  -0.00000   0.00000  -0.00016  -0.00016  -3.14146
   D12        0.00035  -0.00000   0.00000  -0.00015  -0.00015   0.00020
   D13       -0.00010   0.00000   0.00000   0.00006   0.00006  -0.00004
   D14       -3.14138  -0.00000   0.00000  -0.00010  -0.00010  -3.14148
   D15        3.14144   0.00000   0.00000   0.00005   0.00005   3.14150
   D16        0.00016  -0.00000   0.00000  -0.00011  -0.00011   0.00005
   D17        0.00008  -0.00000   0.00000  -0.00002  -0.00001   0.00006
   D18       -3.14152  -0.00000   0.00000  -0.00010  -0.00010   3.14156
   D19        3.14142   0.00000   0.00000   0.00011   0.00011   3.14153
   D20       -0.00017   0.00000   0.00000   0.00003   0.00003  -0.00015
   D21       -3.14132  -0.00001   0.00000  -0.00032  -0.00032   3.14154
   D22       -0.00154   0.00001   0.00000   0.00034   0.00033  -0.00120
   D23        0.00055  -0.00002   0.00000  -0.00047  -0.00047   0.00008
   D24        3.14033   0.00000   0.00000   0.00019   0.00019   3.14052
   D25        0.00010  -0.00000   0.00000  -0.00012  -0.00012  -0.00002
   D26        3.14129   0.00000   0.00000   0.00009   0.00009   3.14138
   D27       -3.14149  -0.00000   0.00000  -0.00000  -0.00000  -3.14149
   D28       -0.00031   0.00001   0.00000   0.00021   0.00021  -0.00010
   D29       -0.00026   0.00001   0.00000   0.00042   0.00043   0.00016
   D30        3.14133   0.00000   0.00000   0.00015   0.00015   3.14148
   D31        3.14133   0.00001   0.00000   0.00032   0.00032  -3.14154
   D32       -0.00026  -0.00000   0.00000   0.00004   0.00005  -0.00022
   D33       -0.00074   0.00002   0.00000   0.00075   0.00076   0.00002
   D34        3.14136   0.00001   0.00000   0.00031   0.00031  -3.14151
   D35       -3.14052   0.00000   0.00000   0.00011   0.00011  -3.14041
   D36        0.00157  -0.00001   0.00000  -0.00034  -0.00033   0.00124
   D37        0.00061  -0.00003   0.00000  -0.00074  -0.00073  -0.00012
   D38       -3.14155  -0.00001   0.00000  -0.00023  -0.00022   3.14141
   D39       -3.14099  -0.00002   0.00000  -0.00046  -0.00045  -3.14144
   D40        0.00004  -0.00000   0.00000   0.00004   0.00005   0.00009
         Item               Value     Threshold  Converged?
 Maximum Force            0.032507     0.000450     NO 
 RMS     Force            0.006752     0.000300     NO 
 Maximum Displacement     0.071871     0.001800     NO 
 RMS     Displacement     0.020129     0.001200     NO 
 Predicted change in Energy=-4.584537D-03
 GradGradGradGradGradGradGradGradGradGradGradGradGradGradGradGradGradGrad

                          Input orientation:                          
 ---------------------------------------------------------------------
 Center     Atomic      Atomic             Coordinates (Angstroms)
 Number     Number       Type             X           Y           Z
 ---------------------------------------------------------------------
      1          6           0       -2.163139    0.682794    0.000015
      2          6           0       -2.159063   -0.739126   -0.000012
      3          6           0       -0.938307   -1.456853    0.000027
      4          6           0        0.242298   -0.684261    0.000055
      5          6           0        0.261101    0.773117    0.000002
      6          6           0       -0.967867    1.456929   -0.000006
      7          7           0        1.546446   -1.068285   -0.000026
      8          6           0        1.644924    1.179100    0.000092
      9          6           0        2.403878    0.043219   -0.000023
     10          1           0        1.852852   -2.028445    0.000882
     11          1           0        2.019176    2.188062   -0.000011
     12          1           0        3.471331   -0.083017   -0.000155
     13          1           0       -3.097387   -1.273546    0.000091
     14          1           0       -0.909754   -2.536449   -0.000021
     15          1           0       -3.115539    1.194211    0.000054
     16          1           0       -0.997750    2.536871    0.000156
 ---------------------------------------------------------------------
                    Distance matrix (angstroms):
                    1          2          3          4          5
     1  C    0.000000
     2  C    1.421926   0.000000
     3  C    2.465421   1.416113   0.000000
     4  C    2.766761   2.401988   1.410931   0.000000
     5  C    2.425922   2.853782   2.532063   1.457499   0.000000
     6  C    1.424065   2.498321   2.913932   2.459511   1.406400
     7  N    4.102110   3.720100   2.514952   1.359514   2.245634
     8  C    3.840269   4.260271   3.690708   2.332268   1.442147
     9  C    4.611583   4.629524   3.663388   2.280714   2.263679
    10  H    4.845513   4.214001   2.849085   2.097788   3.222176
    11  H    4.444952   5.101580   4.693837   3.377505   2.256745
    12  H    5.686275   5.668494   4.618694   3.284532   3.322430
    13  H    2.167969   1.079841   2.166847   3.391276   3.932972
    14  H    3.454635   2.188868   1.079974   2.181244   3.510574
    15  H    1.081024   2.156998   3.430522   3.847562   3.402796
    16  H    2.189916   3.475745   3.994165   3.451581   2.166918
                    6          7          8          9         10
     6  C    0.000000
     7  N    3.563492   0.000000
     8  C    2.627521   2.249541   0.000000
     9  C    3.656124   1.403791   1.366103   0.000000
    10  H    4.483780   1.007865   3.214277   2.143693   0.000000
    11  H    3.075221   3.290481   1.076136   2.179070   4.219786
    12  H    4.698715   2.162391   2.220069   1.074892   2.530645
    13  H    3.462709   4.648368   5.339006   5.656659   5.007468
    14  H    3.993801   2.861543   4.509067   4.199386   2.808925
    15  H    2.163681   5.181988   4.760487   5.638151   5.922028
    16  H    1.080355   4.412491   2.971071   4.217745   5.382196
                   11         12         13         14         15
    11  H    0.000000
    12  H    2.695655   0.000000
    13  H    6.177536   6.675734   0.000000
    14  H    5.558744   5.021279   2.525997   0.000000
    15  H    5.230014   6.709559   2.467824   4.333973   0.000000
    16  H    3.037023   5.180396   4.350604   5.074083   2.507542
                   16
    16  H    0.000000
 Stoichiometry    C8H7N
 Framework group  C1[X(C8H7N)]
 Deg. of freedom    42
 Full point group                 C1      NOp   1
 Largest Abelian subgroup         C1      NOp   1
 Largest concise Abelian subgroup C1      NOp   1
                         Standard orientation:                         
 ---------------------------------------------------------------------
 Center     Atomic      Atomic             Coordinates (Angstroms)
 Number     Number       Type             X           Y           Z
 ---------------------------------------------------------------------
      1          6           0       -2.150418    0.720673   -0.000013
      2          6           0       -2.171837   -0.701092   -0.000040
      3          6           0       -0.964146   -1.440591   -0.000000
      4          6           0        0.230121   -0.689292    0.000027
      5          6           0        0.275052    0.767515   -0.000025
      6          6           0       -0.941458    1.473252   -0.000034
      7          7           0        1.527175   -1.096636   -0.000053
      8          6           0        1.665931    1.148621    0.000064
      9          6           0        2.404397   -0.000685   -0.000051
     10          1           0        1.816315   -2.062136    0.000854
     11          1           0        2.058214    2.150711   -0.000039
     12          1           0        3.469416   -0.146040   -0.000182
     13          1           0       -3.119592   -1.218603    0.000064
     14          1           0       -0.954955   -2.520526   -0.000049
     15          1           0       -3.093496    1.249084    0.000026
     16          1           0       -0.951973    2.553556    0.000128
 ---------------------------------------------------------------------
 Rotational constants (GHZ):           3.7846155           1.6209997           1.1349052
 Standard basis: 6-31G(d) (6D, 7F)
 There are   149 symmetry adapted cartesian basis functions of A   symmetry.
 There are   149 symmetry adapted basis functions of A   symmetry.
   149 basis functions,   280 primitive gaussians,   149 cartesian basis functions
    31 alpha electrons       31 beta electrons
       nuclear repulsion energy       397.3368778417 Hartrees.
 NAtoms=   16 NActive=   16 NUniq=   16 SFac= 1.00D+00 NAtFMM=   60 NAOKFM=F Big=F
 Integral buffers will be    131072 words long.
 Raffenetti 1 integral format.
 Two-electron integral symmetry is turned on.
 One-electron integrals computed using PRISM.
 NBasis=   149 RedAO= T EigKep=  4.64D-04  NBF=   149
 NBsUse=   149 1.00D-06 EigRej= -1.00D+00 NBFU=   149
 Initial guess from the checkpoint file:  "FuncsM06HF.chk"
 B after Tr=    -0.000000    0.000000   -0.000000
         Rot=    0.999964    0.000006    0.000002    0.008512 Ang=   0.98 deg.
 ExpMin= 1.61D-01 ExpMax= 4.17D+03 ExpMxC= 6.27D+02 IAcc=3 IRadAn=         5 AccDes= 0.00D+00
 Harris functional with IExCor= 1009 and IRadAn=       5 diagonalized for initial guess.
 HarFok:  IExCor= 1009 AccDes= 0.00D+00 IRadAn=         5 IDoV= 1 UseB2=F ITyADJ=14
 ICtDFT=  3500011 ScaDFX=  1.000000  1.000000  1.000000  1.000000
 FoFCou: FMM=F IPFlag=           0 FMFlag=      100000 FMFlg1=           0
         NFxFlg=           0 DoJE=T BraDBF=F KetDBF=T FulRan=T
         wScrn=  0.000000 ICntrl=       500 IOpCl=  0 I1Cent=   200000004 NGrid=           0
         NMat0=    1 NMatS0=      1 NMatT0=    0 NMatD0=    1 NMtDS0=    0 NMtDT0=    0
 Petite list used in FoFCou.
 Keep R1 ints in memory in canonical form, NReq=64402215.
 Requested convergence on RMS density matrix=1.00D-08 within 128 cycles.
 Requested convergence on MAX density matrix=1.00D-06.
 Requested convergence on             energy=1.00D-06.
 No special actions if energy rises.
 Integral accuracy reduced to 1.0D-05 until final iterations.
 Initial convergence to 1.0D-05 achieved.  Increase integral accuracy.
 SCF Done:  E(RM06HF) =  -363.722676828     A.U. after   15 cycles
            NFock= 15  Conv=0.27D-08     -V/T= 2.0104
 DoSCS=F DFT=T ScalE2(SS,OS)=  1.000000  1.000000
 ExpMin= 1.61D-01 ExpMax= 4.17D+03 ExpMxC= 6.27D+02 IAcc=3 IRadAn=         5 AccDes= 0.00D+00
 HarFok:  IExCor=  205 AccDes= 0.00D+00 IRadAn=         5 IDoV=-2 UseB2=F ITyADJ=14
 ICtDFT= 12500011 ScaDFX=  1.000000  1.000000  1.000000  1.000000
 Range of M.O.s used for correlation:    10   149
 NBasis=   149 NAE=    31 NBE=    31 NFC=     9 NFV=     0
 NROrb=    140 NOA=    22 NOB=    22 NVA=   118 NVB=   118

 **** Warning!!: The largest alpha MO coefficient is  0.10455287D+02

 Orbital symmetries:
       Occupied  (A) (A) (A) (A) (A) (A) (A) (A) (A) (A) (A) (A)
                 (A) (A) (A) (A) (A) (A) (A) (A) (A) (A) (A) (A)
                 (A) (A) (A) (A) (A) (A) (A)
       Virtual   (A) (A) (A) (A) (A) (A) (A) (A) (A) (A) (A) (A)
                 (A) (A) (A) (A) (A) (A) (A) (A) (A) (A) (A) (A)
                 (A) (A) (A) (A) (A) (A) (A) (A) (A) (A) (A) (A)
                 (A) (A) (A) (A) (A) (A) (A) (A) (A) (A) (A) (A)
                 (A) (A) (A) (A) (A) (A) (A) (A) (A) (A) (A) (A)
                 (A) (A) (A) (A) (A) (A) (A) (A) (A) (A) (A) (A)
                 (A) (A) (A) (A) (A) (A) (A) (A) (A) (A) (A) (A)
                 (A) (A) (A) (A) (A) (A) (A) (A) (A) (A) (A) (A)
                 (A) (A) (A) (A) (A) (A) (A) (A) (A) (A) (A) (A)
                 (A) (A) (A) (A) (A) (A) (A) (A) (A) (A)
 Generating guess from densities on rwf.
 Convergence on wavefunction:    0.000001000000000
 Iteration     1 Dimension    12 NMult     0 NNew     12
 CISAX will form    12 AO SS matrices at one time.
 Iteration     2 Dimension    24 NMult    12 NNew     12
 Iteration     3 Dimension    36 NMult    24 NNew     12
 Iteration     4 Dimension    48 NMult    36 NNew     12
 Iteration     5 Dimension    60 NMult    48 NNew     12
 Iteration     6 Dimension    72 NMult    60 NNew     12
 Iteration     7 Dimension    84 NMult    72 NNew     12
 Iteration     8 Dimension    96 NMult    84 NNew     12
 Iteration     9 Dimension   104 NMult    96 NNew      8
 Iteration    10 Dimension   112 NMult   104 NNew      8
 Iteration    11 Dimension   118 NMult   112 NNew      6
 Iteration    12 Dimension   122 NMult   118 NNew      4
 Iteration    13 Dimension   126 NMult   122 NNew      4
 Iteration    14 Dimension   130 NMult   126 NNew      4
 Iteration    15 Dimension   134 NMult   130 NNew      4
 Iteration    16 Dimension   136 NMult   134 NNew      2
 Iteration    17 Dimension   138 NMult   136 NNew      2
 ***********************************************************************
 Excited states from <AA,BB:AA,BB> singles matrix:
 ***********************************************************************
 
 Ground to excited state transition densities written to RWF  633
 Ground to excited state transition electric dipole moments (Au):
       state          X           Y           Z        Dip. S.      Osc.
         1        -0.4346     -0.5233     -0.0000      0.4627      0.0583
         2        -0.6906      0.6650      0.0000      0.9192      0.1264
         3        -2.2435     -0.0982     -0.0000      5.0430      0.8305
         4        -0.0052     -1.2197      0.0000      1.4877      0.2559
         5        -0.0021     -0.0004      0.0626      0.0039      0.0007
         6         0.4046     -0.1285      0.0002      0.1802      0.0338
 Ground to excited state transition velocity dipole moments (Au):
       state          X           Y           Z        Dip. S.      Osc.
         1         0.0902      0.1179      0.0000      0.0220      0.0777
         2         0.1463     -0.1628     -0.0000      0.0479      0.1549
         3         0.6013      0.0265      0.0000      0.3622      0.9776
         4        -0.0011      0.3499      0.0000      0.1224      0.3163
         5         0.0006      0.0001     -0.0597      0.0036      0.0087
         6        -0.1237      0.0325     -0.0001      0.0164      0.0388
 Ground to excited state transition magnetic dipole moments (Au):
       state          X           Y           Z
         1        -0.0002     -0.0001     -0.1871
         2         0.0001      0.0002     -0.0471
         3        -0.0000     -0.0001     -0.3504
         4        -0.0002     -0.0001     -0.5356
         5         0.3311      0.2633      0.0019
         6         0.0010      0.0006     -1.2945
 Ground to excited state transition velocity quadrupole moments (Au):
       state          XX          YY          ZZ          XY          XZ          YZ
         1        -0.0410     -0.0945      0.0164     -0.0223      0.0000     -0.0000
         2         0.2639     -0.2138     -0.0072     -0.0600     -0.0001      0.0000
         3        -0.4810      0.0121     -0.0446     -0.2262      0.0001     -0.0002
         4         0.4632     -0.0693      0.0236     -0.6535     -0.0000     -0.0000
         5        -0.0016      0.0005     -0.0001      0.0017     -0.2194      0.2484
         6         0.6349     -0.2150     -0.0475     -1.0900     -0.0004      0.0004
 <0|del|b> * <b|rxdel|0> + <0|del|b> * <b|delr+rdel|0>
 Rotatory Strengths (R) in cgs (10**-40 erg-esu-cm/Gauss)
       state          XX          YY          ZZ    R(velocity)    E-M Angle
         1        -0.0436     -0.0382     -0.0463     -0.0427       90.00
         2        -0.0768      0.0130     -0.0172     -0.0270       90.00
         3        -0.0262     -0.1775      0.1269     -0.0256       90.00
         4        -0.0350      0.0005     -0.0426     -0.0257       90.00
         5        -0.2084      0.4471      0.0725      0.1037       89.73
         6         0.4415     -0.1706     -0.0864      0.0615       90.00
 1/2[<0|r|b>*<b|rxdel|0> + (<0|rxdel|b>*<b|r|0>)*]
 Rotatory Strengths (R) in cgs (10**-40 erg-esu-cm/Gauss)
       state          XX          YY          ZZ     R(length)
         1        -0.0536     -0.0488     -0.0049     -0.0358
         2         0.0256     -0.0927      0.0002     -0.0223
         3        -0.0430     -0.0049     -0.0016     -0.0165
         4        -0.0009     -0.0690      0.0117     -0.0194
         5         0.4992      0.0824     -0.0846      0.1657
         6        -0.2749      0.0540      0.2085     -0.0041
  1/2[<0|del|b>*<b|r|0> + (<0|r|b>*<b|del|0>)*] (Au)
       state          X           Y           Z        Dip. S.   Osc.(frdel)
         1        -0.0392     -0.0617     -0.0000      0.1009      0.0673
         2        -0.1011     -0.1083     -0.0000      0.2093      0.1395
         3        -1.3490     -0.0026     -0.0000      1.3516      0.9010
         4         0.0000     -0.4268      0.0000      0.4268      0.2845
         5        -0.0000     -0.0000     -0.0037      0.0037      0.0025
         6        -0.0500     -0.0042     -0.0000      0.0542      0.0361

 Excitation energies and oscillator strengths:
 
 Excited State   1:      Singlet-A      5.1444 eV  241.01 nm  f=0.0583  <S**2>=0.000
      30 -> 32        -0.53088
      30 -> 33         0.10375
      31 -> 32         0.33248
      31 -> 33         0.28859
 This state for optimization and/or second-order correction.
 Total Energy, E(TD-HF/TD-DFT) =  -363.533622346    
 Copying the excited state density for this state as the 1-particle RhoCI density.
 
 Excited State   2:      Singlet-A      5.6124 eV  220.91 nm  f=0.1264  <S**2>=0.000
      30 -> 32        -0.29640
      30 -> 33        -0.15906
      31 -> 32        -0.58904
      31 -> 33         0.18041
 
 Excited State   3:      Singlet-A      6.7216 eV  184.46 nm  f=0.8305  <S**2>=0.000
      30 -> 32        -0.33673
      30 -> 33         0.11997
      31 -> 33        -0.60172
 
 Excited State   4:      Singlet-A      7.0223 eV  176.56 nm  f=0.2559  <S**2>=0.000
      30 -> 33        -0.66138
      31 -> 32         0.19046
      31 -> 33        -0.10062
 
 Excited State   5:      Singlet-A      7.4469 eV  166.49 nm  f=0.0007  <S**2>=0.000
      23 -> 34        -0.11737
      27 -> 34         0.15553
      29 -> 34         0.17710
      30 -> 34         0.17321
      31 -> 34        -0.61606
 
 Excited State   6:      Singlet-A      7.6528 eV  162.01 nm  f=0.0338  <S**2>=0.000
      29 -> 32         0.56974
      30 -> 35        -0.11591
      31 -> 35         0.36754
 SavETr:  write IOETrn=   770 NScale= 10 NData=  16 NLR=1 NState=    6 LETran=     118.
          IDoAtm=1111111111111111
          Differentiating once with respect to electric field.
                with respect to dipole field.
          Differentiating once with respect to nuclear coordinates.
 Keep R1 ints in memory in canonical form, NReq=64414501.
          There are     1 degrees of freedom in the 1st order CPHF.  IDoFFX=0 NUNeed=     1.
 LinEq1:  Iter=  0 NonCon=     1 RMS=4.75D-03 Max=1.02D-01 NDo=     1
 AX will form     1 AO Fock derivatives at one time.
 LinEq1:  Iter=  1 NonCon=     1 RMS=1.69D-03 Max=4.23D-02 NDo=     1
 LinEq1:  Iter=  2 NonCon=     1 RMS=6.60D-04 Max=1.74D-02 NDo=     1
 LinEq1:  Iter=  3 NonCon=     1 RMS=3.80D-04 Max=1.09D-02 NDo=     1
 LinEq1:  Iter=  4 NonCon=     1 RMS=1.30D-04 Max=2.41D-03 NDo=     1
 LinEq1:  Iter=  5 NonCon=     1 RMS=5.42D-05 Max=1.34D-03 NDo=     1
 LinEq1:  Iter=  6 NonCon=     1 RMS=2.32D-05 Max=6.31D-04 NDo=     1
 LinEq1:  Iter=  7 NonCon=     1 RMS=8.07D-06 Max=2.07D-04 NDo=     1
 LinEq1:  Iter=  8 NonCon=     1 RMS=3.93D-06 Max=9.07D-05 NDo=     1
 LinEq1:  Iter=  9 NonCon=     1 RMS=1.32D-06 Max=2.19D-05 NDo=     1
 LinEq1:  Iter= 10 NonCon=     1 RMS=4.13D-07 Max=8.10D-06 NDo=     1
 LinEq1:  Iter= 11 NonCon=     1 RMS=2.23D-07 Max=5.28D-06 NDo=     1
 LinEq1:  Iter= 12 NonCon=     1 RMS=5.90D-08 Max=1.25D-06 NDo=     1
 LinEq1:  Iter= 13 NonCon=     1 RMS=2.50D-08 Max=4.19D-07 NDo=     1
 LinEq1:  Iter= 14 NonCon=     1 RMS=7.69D-09 Max=1.08D-07 NDo=     1
 LinEq1:  Iter= 15 NonCon=     1 RMS=2.68D-09 Max=4.08D-08 NDo=     1
 LinEq1:  Iter= 16 NonCon=     1 RMS=8.12D-10 Max=1.47D-08 NDo=     1
 LinEq1:  Iter= 17 NonCon=     1 RMS=2.40D-10 Max=4.53D-09 NDo=     1
 LinEq1:  Iter= 18 NonCon=     0 RMS=8.86D-11 Max=9.96D-10 NDo=     1
 Linear equations converged to 1.000D-10 1.000D-09 after    18 iterations.
 End of Minotr F.D. properties file   721 does not exist.
 End of Minotr F.D. properties file   722 does not exist.
 End of Minotr F.D. properties file   788 does not exist.
 Calling FoFJK, ICntrl=  10005127 FMM=F ISym2X=0 I1Cent= 0 IOpClX= 0 NMat=1 NMatS=1 NMatT=0.
 ***** Axes restored to original set *****
 -------------------------------------------------------------------
 Center     Atomic                   Forces (Hartrees/Bohr)
 Number     Number              X              Y              Z
 -------------------------------------------------------------------
      1        6           0.001484736   -0.007231006   -0.000003502
      2        6          -0.000945195    0.004866398    0.000010035
      3        6           0.000191477   -0.002858970    0.000004143
      4        6           0.009031443   -0.002165042   -0.000015372
      5        6          -0.002193232    0.003675598    0.000004698
      6        6           0.002389459    0.002919725    0.000007037
      7        7          -0.014131878    0.000825382    0.000022945
      8        6          -0.001217227   -0.006299398   -0.000021130
      9        6           0.006895166    0.006638939    0.000012884
     10        1           0.000544039   -0.000895670   -0.000017536
     11        1          -0.000474285    0.000482709    0.000002080
     12        1          -0.000483418   -0.001099126    0.000002289
     13        1           0.000106022    0.000645736   -0.000004690
     14        1           0.000353887    0.000557547   -0.000000855
     15        1          -0.000185786    0.000554609    0.000000817
     16        1          -0.001365208   -0.000617430   -0.000003844
 -------------------------------------------------------------------
 Cartesian Forces:  Max     0.014131878 RMS     0.003371794

 GradGradGradGradGradGradGradGradGradGradGradGradGradGradGradGradGradGrad
 Berny optimization.
 Using GEDIIS/GDIIS optimizer.
 FormGI is forming the generalized inverse of G from B-inverse, IUseBI=4.
 Internal  Forces:  Max     0.009028997 RMS     0.001527801
 Search for a local minimum.
 Step number   2 out of a maximum of   94
 All quantities printed in internal units (Hartrees-Bohrs-Radians)
 Mixed Optimization -- RFO/linear search
 Update second derivatives using D2CorX and points    1    2
 DE= -4.92D-03 DEPred=-4.58D-03 R= 1.07D+00
 TightC=F SS=  1.41D+00  RLast= 1.50D-01 DXNew= 5.0454D-01 4.5016D-01
 Trust test= 1.07D+00 RLast= 1.50D-01 DXMaxT set to 4.50D-01
 ITU=  1  0
 Use linear search instead of GDIIS.
     Eigenvalues ---    0.01789   0.01868   0.01928   0.01947   0.02011
     Eigenvalues ---    0.02041   0.02077   0.02084   0.02098   0.02135
     Eigenvalues ---    0.02160   0.02173   0.02276   0.15855   0.16000
     Eigenvalues ---    0.16000   0.16000   0.16000   0.16000   0.16053
     Eigenvalues ---    0.20071   0.22045   0.22656   0.24358   0.24644
     Eigenvalues ---    0.34980   0.35147   0.35194   0.35224   0.35802
     Eigenvalues ---    0.35857   0.36329   0.37971   0.40972   0.42140
     Eigenvalues ---    0.43938   0.45192   0.46287   0.46428   0.46576
     Eigenvalues ---    0.48637   0.53159
 RFO step:  Lambda=-5.76086802D-04 EMin= 1.78871929D-02
 Quartic linear search produced a step of  0.12756.
 Iteration  1 RMS(Cart)=  0.00782202 RMS(Int)=  0.00004541
 Iteration  2 RMS(Cart)=  0.00005392 RMS(Int)=  0.00001271
 Iteration  3 RMS(Cart)=  0.00000000 RMS(Int)=  0.00001271
 Variable       Old X    -DE/DX   Delta X   Delta X   Delta X     New X
                                 (Linear)    (Quad)   (Total)
    R1        2.68705  -0.00460   0.00274  -0.01351  -0.01077   2.67629
    R2        2.69109   0.00079   0.00856  -0.00256   0.00601   2.69710
    R3        2.04284   0.00043  -0.00141   0.00205   0.00064   2.04348
    R4        2.67607   0.00042   0.00631  -0.00222   0.00407   2.68014
    R5        2.04060  -0.00041  -0.00163  -0.00053  -0.00215   2.03845
    R6        2.66627   0.00026   0.00286  -0.00052   0.00233   2.66861
    R7        2.04086  -0.00055  -0.00173  -0.00092  -0.00264   2.03821
    R8        2.75427   0.00127   0.00810  -0.00070   0.00737   2.76164
    R9        2.56911  -0.00903  -0.00514  -0.01877  -0.02393   2.54518
   R10        2.65771  -0.00114   0.00002  -0.00276  -0.00273   2.65498
   R11        2.72526  -0.00085   0.00118  -0.00267  -0.00150   2.72377
   R12        2.04157  -0.00058  -0.00163  -0.00107  -0.00269   2.03888
   R13        2.65278   0.00481   0.00493   0.00889   0.01384   2.66662
   R14        1.90459   0.00102   0.00000   0.00248   0.00248   1.90706
   R15        2.58156  -0.00179  -0.00086  -0.00293  -0.00376   2.57780
   R16        2.03360   0.00029  -0.00127   0.00152   0.00025   2.03385
   R17        2.03125  -0.00035  -0.00155  -0.00035  -0.00190   2.02935
    A1        2.14266   0.00241   0.00368   0.00923   0.01291   2.15557
    A2        2.06645  -0.00079  -0.00183  -0.00175  -0.00358   2.06288
    A3        2.07407  -0.00161  -0.00185  -0.00749  -0.00933   2.06474
    A4        2.10516   0.00021  -0.00129   0.00060  -0.00071   2.10446
    A5        2.08566  -0.00062   0.00016  -0.00372  -0.00355   2.08210
    A6        2.09236   0.00041   0.00114   0.00311   0.00426   2.09662
    A7        2.03063  -0.00134  -0.00255  -0.00547  -0.00805   2.02258
    A8        2.12874   0.00105   0.00182   0.00512   0.00695   2.13569
    A9        2.12382   0.00029   0.00073   0.00035   0.00109   2.12491
   A10        2.16316   0.00052   0.00354   0.00253   0.00608   2.16925
   A11        2.27576  -0.00182  -0.00026  -0.00767  -0.00789   2.26787
   A12        1.84426   0.00131  -0.00329   0.00513   0.00181   1.84607
   A13        2.06565  -0.00001  -0.00075   0.00131   0.00058   2.06623
   A14        1.86907  -0.00170   0.00049  -0.00865  -0.00820   1.86087
   A15        2.34847   0.00171   0.00026   0.00734   0.00762   2.35609
   A16        2.05911  -0.00178  -0.00263  -0.00821  -0.01082   2.04829
   A17        2.11786  -0.00052   0.00179  -0.00602  -0.00424   2.11363
   A18        2.10621   0.00230   0.00083   0.01423   0.01506   2.12127
   A19        1.94149   0.00174   0.00430   0.00606   0.01036   1.95186
   A20        2.16607  -0.00063  -0.00289  -0.00104  -0.00394   2.16213
   A21        2.17562  -0.00110  -0.00140  -0.00502  -0.00643   2.16919
   A22        1.87446   0.00180   0.00058   0.01087   0.01147   1.88594
   A23        2.21136  -0.00152  -0.00048  -0.00972  -0.01021   2.20115
   A24        2.19736  -0.00028  -0.00011  -0.00115  -0.00127   2.19609
   A25        1.89549  -0.00314  -0.00208  -0.01342  -0.01545   1.88004
   A26        2.11015   0.00040   0.00129  -0.00159  -0.00033   2.10982
   A27        2.27755   0.00274   0.00079   0.01501   0.01578   2.29333
    D1        0.00007  -0.00000  -0.00002  -0.00006  -0.00008  -0.00001
    D2        3.14150   0.00000   0.00000   0.00011   0.00011  -3.14158
    D3       -3.14152  -0.00000  -0.00000  -0.00007  -0.00008   3.14159
    D4       -0.00009   0.00000   0.00002   0.00009   0.00011   0.00002
    D5       -0.00005   0.00000   0.00003   0.00002   0.00005  -0.00000
    D6       -3.14144  -0.00000  -0.00000  -0.00009  -0.00009  -3.14153
    D7        3.14154   0.00000   0.00001   0.00003   0.00004   3.14159
    D8        0.00015  -0.00000  -0.00002  -0.00008  -0.00010   0.00006
    D9       -0.00003   0.00000   0.00000   0.00005   0.00006   0.00003
   D10       -3.14156   0.00000   0.00000   0.00005   0.00006  -3.14150
   D11       -3.14146  -0.00000  -0.00002  -0.00011  -0.00013  -3.14159
   D12        0.00020  -0.00000  -0.00002  -0.00011  -0.00013   0.00007
   D13       -0.00004  -0.00000   0.00001  -0.00001  -0.00001  -0.00004
   D14       -3.14148  -0.00000  -0.00001  -0.00012  -0.00014   3.14157
   D15        3.14150  -0.00000   0.00001  -0.00001  -0.00001   3.14149
   D16        0.00005  -0.00000  -0.00001  -0.00012  -0.00014  -0.00008
   D17        0.00006  -0.00000  -0.00000  -0.00002  -0.00002   0.00004
   D18        3.14156   0.00000  -0.00001   0.00006   0.00004  -3.14158
   D19        3.14153   0.00000   0.00001   0.00006   0.00008  -3.14157
   D20       -0.00015   0.00000   0.00000   0.00014   0.00015  -0.00000
   D21        3.14154   0.00000  -0.00004   0.00017   0.00013  -3.14152
   D22       -0.00120   0.00001   0.00004   0.00044   0.00048  -0.00073
   D23        0.00008   0.00000  -0.00006   0.00008   0.00002   0.00010
   D24        3.14052   0.00001   0.00002   0.00034   0.00037   3.14089
   D25       -0.00002   0.00000  -0.00002   0.00002   0.00000  -0.00001
   D26        3.14138   0.00000   0.00001   0.00013   0.00014   3.14152
   D27       -3.14149  -0.00000  -0.00000  -0.00009  -0.00009  -3.14158
   D28       -0.00010   0.00000   0.00003   0.00002   0.00005  -0.00005
   D29        0.00016  -0.00001   0.00005  -0.00031  -0.00026  -0.00009
   D30        3.14148  -0.00000   0.00002  -0.00002  -0.00001   3.14148
   D31       -3.14154  -0.00000   0.00004  -0.00021  -0.00017   3.14147
   D32       -0.00022   0.00000   0.00001   0.00007   0.00008  -0.00014
   D33        0.00002  -0.00000   0.00010  -0.00028  -0.00018  -0.00016
   D34       -3.14151  -0.00000   0.00004  -0.00005  -0.00001  -3.14152
   D35       -3.14041  -0.00001   0.00001  -0.00055  -0.00054  -3.14094
   D36        0.00124  -0.00001  -0.00004  -0.00032  -0.00036   0.00088
   D37       -0.00012   0.00001  -0.00009   0.00036   0.00027   0.00015
   D38        3.14141   0.00000  -0.00003   0.00010   0.00007   3.14148
   D39       -3.14144   0.00000  -0.00006   0.00008   0.00002  -3.14142
   D40        0.00009  -0.00000   0.00001  -0.00019  -0.00018  -0.00009
         Item               Value     Threshold  Converged?
 Maximum Force            0.009029     0.000450     NO 
 RMS     Force            0.001528     0.000300     NO 
 Maximum Displacement     0.032399     0.001800     NO 
 RMS     Displacement     0.007820     0.001200     NO 
 Predicted change in Energy=-3.448017D-04
 GradGradGradGradGradGradGradGradGradGradGradGradGradGradGradGradGradGrad

                          Input orientation:                          
 ---------------------------------------------------------------------
 Center     Atomic      Atomic             Coordinates (Angstroms)
 Number     Number       Type             X           Y           Z
 ---------------------------------------------------------------------
      1          6           0       -2.156210    0.675940    0.000062
      2          6           0       -2.155441   -0.740289    0.000069
      3          6           0       -0.933990   -1.461084    0.000036
      4          6           0        0.242651   -0.680233    0.000031
      5          6           0        0.260996    0.781051    0.000005
      6          6           0       -0.966549    1.464444    0.000030
      7          7           0        1.534097   -1.062569    0.000023
      8          6           0        1.647203    1.175940   -0.000014
      9          6           0        2.409156    0.044464    0.000119
     10          1           0        1.835707   -2.025619    0.000628
     11          1           0        2.019122    2.185905   -0.000134
     12          1           0        3.474000   -0.094611    0.000061
     13          1           0       -3.095896   -1.268628    0.000078
     14          1           0       -0.899721   -2.539115   -0.000041
     15          1           0       -3.109547    1.186322    0.000086
     16          1           0       -1.012378    2.542400    0.000081
 ---------------------------------------------------------------------
                    Distance matrix (angstroms):
                    1          2          3          4          5
     1  C    0.000000
     2  C    1.416229   0.000000
     3  C    2.461847   1.418269   0.000000
     4  C    2.755674   2.398844   1.412166   0.000000
     5  C    2.419490   2.855458   2.540701   1.461399   0.000000
     6  C    1.427245   2.504857   2.925709   2.462073   1.404953
[...]
 ! A27   A(8,9,12)             131.9176         -DE/DX =    0.0                 !
 ! D1    D(6,1,2,3)             -0.0008         -DE/DX =    0.0                 !
 ! D2    D(6,1,2,13)           180.0014         -DE/DX =    0.0                 !
 ! D3    D(15,1,2,3)           179.9982         -DE/DX =    0.0                 !
 ! D4    D(15,1,2,13)            0.0004         -DE/DX =    0.0                 !
 ! D5    D(2,1,6,5)              0.0002         -DE/DX =    0.0                 !
 ! D6    D(2,1,6,16)          -179.9985         -DE/DX =    0.0                 !
 ! D7    D(15,1,6,5)          -179.9988         -DE/DX =    0.0                 !
 ! D8    D(15,1,6,16)            0.0025         -DE/DX =    0.0                 !
 ! D9    D(1,2,3,4)              0.0019         -DE/DX =    0.0                 !
 ! D10   D(1,2,3,14)          -179.9957         -DE/DX =    0.0                 !
 ! D11   D(13,2,3,4)           179.9996         -DE/DX =    0.0                 !
 ! D12   D(13,2,3,14)            0.0021         -DE/DX =    0.0                 !
 ! D13   D(2,3,4,5)             -0.0025         -DE/DX =    0.0                 !
 ! D14   D(2,3,4,7)            179.9956         -DE/DX =    0.0                 !
 ! D15   D(14,3,4,5)           179.9951         -DE/DX =    0.0                 !
 ! D16   D(14,3,4,7)            -0.0068         -DE/DX =    0.0                 !
 ! D17   D(3,4,5,6)              0.0019         -DE/DX =    0.0                 !
 ! D18   D(3,4,5,8)            180.0011         -DE/DX =    0.0                 !
 ! D19   D(7,4,5,6)           -179.9966         -DE/DX =    0.0                 !
 ! D20   D(7,4,5,8)              0.0026         -DE/DX =    0.0                 !
 ! D21   D(3,4,7,9)            180.0066         -DE/DX =    0.0                 !
 ! D22   D(3,4,7,10)            -0.0141         -DE/DX =    0.0                 !
 ! D23   D(5,4,7,9)              0.0049         -DE/DX =    0.0                 !
 ! D24   D(5,4,7,10)           179.9843         -DE/DX =    0.0                 !
 ! D25   D(4,5,6,1)             -0.0006         -DE/DX =    0.0                 !
 ! D26   D(4,5,6,16)           179.9981         -DE/DX =    0.0                 !
 ! D27   D(8,5,6,1)           -179.9995         -DE/DX =    0.0                 !
 ! D28   D(8,5,6,16)            -0.0008         -DE/DX =    0.0                 !
 ! D29   D(4,5,8,9)             -0.0094         -DE/DX =    0.0                 !
 ! D30   D(4,5,8,11)          -180.0047         -DE/DX =    0.0                 !
 ! D31   D(6,5,8,9)           -180.0104         -DE/DX =    0.0                 !
 ! D32   D(6,5,8,11)            -0.0057         -DE/DX =    0.0                 !
 ! D33   D(4,7,9,8)             -0.011          -DE/DX =    0.0                 !
 ! D34   D(4,7,9,12)          -179.9977         -DE/DX =    0.0                 !
 ! D35   D(10,7,9,8)          -179.9903         -DE/DX =    0.0                 !
 ! D36   D(10,7,9,12)            0.023          -DE/DX =    0.0                 !
 ! D37   D(5,8,9,7)              0.0122         -DE/DX =    0.0                 !
 ! D38   D(5,8,9,12)           179.9968         -DE/DX =    0.0                 !
 ! D39   D(11,8,9,7)           180.0075         -DE/DX =    0.0                 !
 ! D40   D(11,8,9,12)           -0.0079         -DE/DX =    0.0                 !
 --------------------------------------------------------------------------------
 GradGradGradGradGradGradGradGradGradGradGradGradGradGradGradGradGradGrad

                          Input orientation:                          
 ---------------------------------------------------------------------
 Center     Atomic      Atomic             Coordinates (Angstroms)
 Number     Number       Type             X           Y           Z
 ---------------------------------------------------------------------
      1          6           0       -2.153939    0.673170    0.000069
      2          6           0       -2.154125   -0.740077    0.000098
      3          6           0       -0.934198   -1.459798    0.000062
      4          6           0        0.243027   -0.676783    0.000038
      5          6           0        0.261533    0.782906   -0.000003
      6          6           0       -0.966596    1.464355    0.000020
      7          7           0        1.531342   -1.062613    0.000082
      8          6           0        1.648756    1.175795   -0.000042
      9          6           0        2.412120    0.045872    0.000186
     10          1           0        1.831424   -2.026455    0.000347
     11          1           0        2.017862    2.187492   -0.000149
     12          1           0        3.475774   -0.101251    0.000195
     13          1           0       -3.095830   -1.267527    0.000112
     14          1           0       -0.896600   -2.538136    0.000014
     15          1           0       -3.107303    1.185245    0.000067
     16          1           0       -1.020045    2.542123    0.000023
 ---------------------------------------------------------------------
                    Distance matrix (angstroms):
                    1          2          3          4          5
     1  C    0.000000
     2  C    1.413248   0.000000
     3  C    2.457096   1.416411   0.000000
     4  C    2.750966   2.397987   1.413850   0.000000
     5  C    2.417963   2.855675   2.541554   1.459806   0.000000
     6  C    1.426799   2.503946   2.924333   2.459199   1.404519
     7  N    4.073602   3.699553   2.497327   1.344850   2.240169
     8  C    3.835768   4.258223   3.690258   2.325537   1.441787
     9  C    4.608947   4.633391   3.669453   2.286307   2.273378
    10  H    4.813636   4.188002   2.823077   2.084375   3.218240
    11  H    4.438140   5.096679   4.692268   3.369586   2.248900
    12  H    5.682727   5.666026   4.614488   3.283579   3.333628
    13  H    2.157189   1.079357   2.170166   3.390714   3.933975
    14  H    3.448679   2.194170   1.078993   2.182518   3.517185
    15  H    1.082185   2.148352   3.423250   3.832996   3.392777
    16  H    2.186024   3.472604   4.002842   3.457847   2.176531
                    6          7          8          9         10
     6  C    0.000000
     7  N    3.553204   0.000000
     8  C    2.631222   2.241486   0.000000
     9  C    3.664399   1.415807   1.363617   0.000000
    10  H    4.473776   1.009475   3.207456   2.152149   0.000000
    11  H    3.070817   3.286318   1.076926   2.177608   4.218069
    12  H    4.710177   2.169109   2.229090   1.073780   2.531856
    13  H    3.463642   4.631707   5.336751   5.662378   4.985359
    14  H    4.003103   2.841139   4.502457   4.198181   2.775596
    15  H    2.158826   5.154599   4.756068   5.635797   5.891183
    16  H    1.079093   4.416299   2.998224   4.243940   5.385423
                   11         12         13         14         15
    11  H    0.000000
    12  H    2.713642   0.000000
    13  H    6.171466   6.674292   0.000000
    14  H    5.552085   5.005603   2.539893   0.000000
    15  H    5.222242   6.707606   2.452798   4.330216   0.000000
    16  H    3.058536   5.215344   4.338469   5.081759   2.489531
                   16
    16  H    0.000000
 Stoichiometry    C8H7N
 Framework group  C1[X(C8H7N)]
 Deg. of freedom    42
 Full point group                 C1      NOp   1
 Largest Abelian subgroup         C1      NOp   1
 Largest concise Abelian subgroup C1      NOp   1
                         Standard orientation:                         
 ---------------------------------------------------------------------
 Center     Atomic      Atomic             Coordinates (Angstroms)
 Number     Number       Type             X           Y           Z
 ---------------------------------------------------------------------
      1          6           0       -2.140773    0.714991    0.000008
      2          6           0       -2.169915   -0.697956    0.000037
      3          6           0       -0.964991   -1.442521    0.000001
      4          6           0        0.228030   -0.683790   -0.000022
      5          6           0        0.276440    0.775214   -0.000063
      6          6           0       -0.937469    1.481683   -0.000040
      7          7           0        1.508169   -1.095935    0.000021
      8          6           0        1.671421    1.139598   -0.000102
      9          6           0        2.411475   -0.005729    0.000126
     10          1           0        1.788441   -2.065723    0.000286
     11          1           0        2.061178    2.143520   -0.000209
     12          1           0        3.471890   -0.174614    0.000134
     13          1           0       -3.122229   -1.206000    0.000051
     14          1           0       -0.949495   -2.521402   -0.000047
     15          1           0       -3.083446    1.246492    0.000007
     16          1           0       -0.968825    2.560320   -0.000037
 ---------------------------------------------------------------------
 Rotational constants (GHZ):           3.7848089           1.6259246           1.1373345

 **********************************************************************

            Population analysis using the CI Density.

 **********************************************************************

 Orbital symmetries:
       Occupied  (A) (A) (A) (A) (A) (A) (A) (A) (A) (A) (A) (A)
                 (A) (A) (A) (A) (A) (A) (A) (A) (A) (A) (A) (A)
                 (A) (A) (A) (A) (A) (A) (A)
       Virtual   (A) (A) (A) (A) (A) (A) (A) (A) (A) (A) (A) (A)
                 (A) (A) (A) (A) (A) (A) (A) (A) (A) (A) (A) (A)
                 (A) (A) (A) (A) (A) (A) (A) (A) (A) (A) (A) (A)
                 (A) (A) (A) (A) (A) (A) (A) (A) (A) (A) (A) (A)
                 (A) (A) (A) (A) (A) (A) (A) (A) (A) (A) (A) (A)
                 (A) (A) (A) (A) (A) (A) (A) (A) (A) (A) (A) (A)
                 (A) (A) (A) (A) (A) (A) (A) (A) (A) (A) (A) (A)
                 (A) (A) (A) (A) (A) (A) (A) (A) (A) (A) (A) (A)
                 (A) (A) (A) (A) (A) (A) (A) (A) (A) (A) (A) (A)
                 (A) (A) (A) (A) (A) (A) (A) (A) (A) (A)
 The electronic state is 1-A.
 Alpha  occ. eigenvalues --  -15.30188 -11.00945 -11.00488 -10.97306 -10.97014
 Alpha  occ. eigenvalues --  -10.96879 -10.96758 -10.96013 -10.95882  -1.20721
 Alpha  occ. eigenvalues --   -1.03931  -0.98773  -0.92170  -0.91373  -0.80748
 Alpha  occ. eigenvalues --   -0.76894  -0.75365  -0.70667  -0.65185  -0.62749
 Alpha  occ. eigenvalues --   -0.58438  -0.58071  -0.57906  -0.55454  -0.53777
 Alpha  occ. eigenvalues --   -0.48594  -0.46864  -0.46819  -0.40686  -0.31893
 Alpha  occ. eigenvalues --   -0.30700
 Alpha virt. eigenvalues --    0.06923   0.11871   0.16424   0.17640   0.20238
 Alpha virt. eigenvalues --    0.22609   0.23914   0.25804   0.27390   0.28259
 Alpha virt. eigenvalues --    0.30024   0.30775   0.34913   0.36797   0.38765
 Alpha virt. eigenvalues --    0.41842   0.43980   0.47459   0.54192   0.59293
 Alpha virt. eigenvalues --    0.61304   0.61885   0.63058   0.65099   0.66381
 Alpha virt. eigenvalues --    0.66426   0.68178   0.70190   0.71126   0.71798
 Alpha virt. eigenvalues --    0.72461   0.73154   0.74470   0.74753   0.75992
 Alpha virt. eigenvalues --    0.79987   0.82049   0.88207   0.91375   0.93181
 Alpha virt. eigenvalues --    0.94075   0.98299   0.99496   0.99999   1.01170
 Alpha virt. eigenvalues --    1.02460   1.03563   1.05240   1.06218   1.06657
 Alpha virt. eigenvalues --    1.08348   1.12188   1.14215   1.18572   1.20894
 Alpha virt. eigenvalues --    1.27680   1.34129   1.35275   1.37660   1.44998
 Alpha virt. eigenvalues --    1.45224   1.46544   1.52011   1.53178   1.55326
 Alpha virt. eigenvalues --    1.58876   1.60911   1.62669   1.63011   1.64778
 Alpha virt. eigenvalues --    1.67410   1.85191   1.88183   1.92860   1.96965
 Alpha virt. eigenvalues --    1.99008   2.06650   2.07528   2.10037   2.11908
 Alpha virt. eigenvalues --    2.13317   2.18958   2.20578   2.20863   2.22370
 Alpha virt. eigenvalues --    2.24859   2.29750   2.30439   2.32529   2.35158
 Alpha virt. eigenvalues --    2.35754   2.43529   2.47142   2.48540   2.55695
 Alpha virt. eigenvalues --    2.61075   2.62854   2.63530   2.67886   2.70531
 Alpha virt. eigenvalues --    2.74828   2.78528   2.82718   2.85540   2.93545
 Alpha virt. eigenvalues --    2.96078   3.15766   3.19164   3.40240   3.96777
 Alpha virt. eigenvalues --    4.06746   4.10194   4.14894   4.19333   4.30693
 Alpha virt. eigenvalues --    4.38275   4.43730   4.71558
          Condensed to atoms (all electrons):
               1          2          3          4          5          6
     1  C    5.041665   0.499634  -0.037221  -0.038614   0.000976   0.422866
     2  C    0.499634   5.059704   0.438264   0.005815  -0.022675  -0.054941
     3  C   -0.037221   0.438264   5.120741   0.478901  -0.075912  -0.030450
     4  C   -0.038614   0.005815   0.478901   4.845170   0.429485  -0.049841
     5  C    0.000976  -0.022675  -0.075912   0.429485   4.841731   0.460580
     6  C    0.422866  -0.054941  -0.030450  -0.049841   0.460580   5.211270
     7  N   -0.000179   0.005972  -0.100636   0.264268  -0.034198   0.011490
     8  C    0.007819   0.000070   0.010253  -0.027713   0.456137  -0.105708
     9  C   -0.000473  -0.000186   0.005474  -0.115567  -0.020178   0.012251
    10  H    0.000001  -0.000023  -0.003779  -0.029030   0.006845  -0.000114
    11  H    0.000015   0.000001  -0.000084   0.006631  -0.035032  -0.005095
    12  H    0.000003   0.000000  -0.000065   0.005856   0.001383  -0.000145
    13  H   -0.037107   0.373741  -0.033279   0.002382   0.000888   0.003278
    14  H    0.003886  -0.036633   0.365855  -0.036484   0.004101   0.000235
    15  H    0.371454  -0.036001   0.003617   0.000950   0.002247  -0.035826
    16  H   -0.042581   0.003569   0.000318   0.004570  -0.034617   0.372521
               7          8          9         10         11         12
     1  C   -0.000179   0.007819  -0.000473   0.000001   0.000015   0.000003
     2  C    0.005972   0.000070  -0.000186  -0.000023   0.000001   0.000000
     3  C   -0.100636   0.010253   0.005474  -0.003779  -0.000084  -0.000065
     4  C    0.264268  -0.027713  -0.115567  -0.029030   0.006631   0.005856
     5  C   -0.034198   0.456137  -0.020178   0.006845  -0.035032   0.001383
     6  C    0.011490  -0.105708   0.012251  -0.000114  -0.005095  -0.000145
     7  N    7.122722  -0.065352   0.272712   0.329423   0.003797  -0.045708
     8  C   -0.065352   5.049875   0.535421   0.004646   0.378652  -0.026606
     9  C    0.272712   0.535421   5.010664  -0.029169  -0.047450   0.379143
    10  H    0.329423   0.004646  -0.029169   0.355485  -0.000068  -0.001926
    11  H    0.003797   0.378652  -0.047450  -0.000068   0.502908  -0.000926
    12  H   -0.045708  -0.026606   0.379143  -0.001926  -0.000926   0.482644
    13  H   -0.000109   0.000009   0.000002  -0.000002  -0.000000  -0.000000
    14  H   -0.006441  -0.000201  -0.000037   0.002669   0.000001   0.000003
    15  H    0.000002  -0.000142   0.000003  -0.000000  -0.000001  -0.000000
    16  H   -0.000111  -0.004845  -0.000035   0.000003   0.001644  -0.000001
              13         14         15         16
     1  C   -0.037107   0.003886   0.371454  -0.042581
     2  C    0.373741  -0.036633  -0.036001   0.003569
     3  C   -0.033279   0.365855   0.003617   0.000318
     4  C    0.002382  -0.036484   0.000950   0.004570
     5  C    0.000888   0.004101   0.002247  -0.034617
     6  C    0.003278   0.000235  -0.035826   0.372521
     7  N   -0.000109  -0.006441   0.000002  -0.000111
     8  C    0.000009  -0.000201  -0.000142  -0.004845
     9  C    0.000002  -0.000037   0.000003  -0.000035
    10  H   -0.000002   0.002669  -0.000000   0.000003
    11  H   -0.000000   0.000001  -0.000001   0.001644
    12  H   -0.000000   0.000003  -0.000000  -0.000001
    13  H    0.520132  -0.003331  -0.004357  -0.000111
    14  H   -0.003331   0.535441  -0.000123   0.000011
    15  H   -0.004357  -0.000123   0.514402  -0.003494
    16  H   -0.000111   0.000011  -0.003494   0.521820
 Mulliken charges:
               1
     1  C   -0.192146
     2  C   -0.236312
     3  C   -0.141996
     4  C    0.253221
     5  C    0.018240
     6  C   -0.212373
     7  N   -0.757650
     8  C   -0.212313
     9  C   -0.002575
    10  H    0.365039
    11  H    0.195008
    12  H    0.206344
    13  H    0.177863
    14  H    0.171045
    15  H    0.187267
    16  H    0.181339
 Sum of Mulliken charges =  -0.00000
 Mulliken charges with hydrogens summed into heavy atoms:
               1
     1  C   -0.004879
     2  C   -0.058449
     3  C    0.029049
     4  C    0.253221
     5  C    0.018240
     6  C   -0.031034
     7  N   -0.392612
     8  C   -0.017306
     9  C    0.203769
 Electronic spatial extent (au):  <R**2>=           1017.1934
 Charge=             -0.0000 electrons
 Dipole moment (field-independent basis, Debye):
    X=              1.7302    Y=             -1.2427    Z=              0.0004  Tot=              2.1302
 Quadrupole moment (field-independent basis, Debye-Ang):
   XX=            -43.5532   YY=            -43.2912   ZZ=            -58.3064
   XY=             -3.9391   XZ=              0.0008   YZ=             -0.0013
 Traceless Quadrupole moment (field-independent basis, Debye-Ang):
   XX=              4.8304   YY=              5.0924   ZZ=             -9.9228
   XY=             -3.9391   XZ=              0.0008   YZ=             -0.0013
 Octapole moment (field-independent basis, Debye-Ang**2):
  XXX=             12.6930  YYY=             -9.4246  ZZZ=              0.0003  XYY=              9.4919
  XXY=             -5.5542  XXZ=              0.0021  XZZ=              2.2177  YZZ=             -1.4246
  YYZ=              0.0012  XYZ=             -0.0029
 Hexadecapole moment (field-independent basis, Debye-Ang**3):
 XXXX=           -788.2330 YYYY=           -361.7310 ZZZZ=            -62.0538 XXXY=            -25.1536
 XXXZ=              0.0026 YYYX=            -19.0794 YYYZ=             -0.0002 ZZZX=             -0.0020
 ZZZY=              0.0063 XXYY=           -188.5183 XXZZ=           -183.0466 YYZZ=            -91.0249
 XXYZ=             -0.0036 YYXZ=              0.0021 ZZXY=             -3.9961
 N-N= 3.976614916624D+02 E-N=-1.637575660348D+03  KE= 3.602119609484D+02
 Unable to Open any file for archive entry.
 1\1\GINC-COMET-07-70\FOpt\RM06HF TD-FC\6-31G(d)\C8H7N1\SCAPARAS\14-Feb
 -2021\0\\# td= (nstates=6, root=1) M06HF/6-31G(d) Opt density=current\
 \FuncsM06HF\\0,1\C,-2.1539386547,0.6731704229,0.0000687766\C,-2.154124
 6692,-0.7400774224,0.0000977819\C,-0.9341980626,-1.4597982795,0.000061
 8528\C,0.2430265159,-0.6767829316,0.0000383366\C,0.2615327468,0.782906
 1342,-0.0000028143\C,-0.9665961649,1.4643552072,0.0000203157\N,1.53134
 18081,-1.0626128214,0.0000820555\C,1.6487555759,1.1757953784,-0.000041
 6561\C,2.4121201547,0.045872064,0.0001862638\H,1.8314239855,-2.0264546
 891,0.0003469612\H,2.0178616265,2.1874920813,-0.0001485833\H,3.4757736
 66,-0.1012507095,0.0001948846\H,-3.0958296261,-1.2675266051,0.00011154
 1\H,-0.8966001713,-2.538135829,0.0000135295\H,-3.1073034366,1.18524476
 65,0.0000674831\H,-1.0200452939,2.5421232331,0.0000232712\\Version=ES6
 4L-G16RevC.01\State=1-A\HF=-363.7209759\RMSD=6.220e-09\RMSF=7.127e-05\
 Dipole=0.680713,-0.4889192,0.0001391\Quadrupole=3.5912848,3.7860869,-7
 .3773716,-2.928643,0.0006135,-0.00099\PG=C01 [X(C8H7N1)]\\@
 The archive entry for this job was punched.


 ALTHOUGH J.J. COULD DIAGNOSE THE FAULTS OF AN
 APPARATUS WITH UNCANNY ACCURACY, IT WAS JUST AS
 WELL NOT TO LET HIM HANDLE IT.
   -- GEORGE THOMPSON, ABOUT HIS FATHER
 Job cpu time:       0 days  1 hours 30 minutes 30.9 seconds.
 Elapsed time:       0 days  0 hours 45 minutes 23.9 seconds.
 File lengths (MBytes):  RWF=    202 Int=      0 D2E=      0 Chk=      8 Scr=      1
 Normal termination of Gaussian 16 at Sun Feb 14 21:56:33 2021.
