 Entering Gaussian System, Link 0=/cm/shared/apps/spack/cpu/opt/spack/linux-centos8-zen/gcc-8.3.1/gaussian-16.C.01-po5bqktfeugvmjyga3v7eigbecnokxng/g16/g16
 Initial command:
 /cm/shared/apps/spack/cpu/opt/spack/linux-centos8-zen/gcc-8.3.1/gaussian-16.C.01-po5bqktfeugvmjyga3v7eigbecnokxng/g16/l1.exe "/scratch/scaparas/job_3404239/Gau-13952.inp" -scrdir="/scratch/scaparas/job_3404239/"
 Entering Link 1 = /cm/shared/apps/spack/cpu/opt/spack/linux-centos8-zen/gcc-8.3.1/gaussian-16.C.01-po5bqktfeugvmjyga3v7eigbecnokxng/g16/l1.exe PID=     13954.
  
 Copyright (c) 1988-2019, Gaussian, Inc.  All Rights Reserved.
  
 This is part of the Gaussian(R) 16 program.  It is based on
 the Gaussian(R) 09 system (copyright 2009, Gaussian, Inc.),
 the Gaussian(R) 03 system (copyright 2003, Gaussian, Inc.),
 the Gaussian(R) 98 system (copyright 1998, Gaussian, Inc.),
 the Gaussian(R) 94 system (copyright 1995, Gaussian, Inc.),
 the Gaussian 92(TM) system (copyright 1992, Gaussian, Inc.),
 the Gaussian 90(TM) system (copyright 1990, Gaussian, Inc.),
 the Gaussian 88(TM) system (copyright 1988, Gaussian, Inc.),
 the Gaussian 86(TM) system (copyright 1986, Carnegie Mellon
 University), and the Gaussian 82(TM) system (copyright 1983,
 Carnegie Mellon University). Gaussian is a federally registered
 trademark of Gaussian, Inc.
  
 This software contains proprietary and confidential information,
 including trade secrets, belonging to Gaussian, Inc.
  
 This software is provided under written license and may be
 used, copied, transmitted, or stored only in accord with that
 written license.
  
 The following legend is applicable only to US Government
 contracts under FAR:
  
                    RESTRICTED RIGHTS LEGEND
  
 Use, reproduction and disclosure by the US Government is
 subject to restrictions as set forth in subparagraphs (a)
 and (c) of the Commercial Computer Software - Restricted
 Rights clause in FAR 52.227-19.
  
 Gaussian, Inc.
 340 Quinnipiac St., Bldg. 40, Wallingford CT 06492
  
  
 ---------------------------------------------------------------
 Warning -- This program may not be used in any manner that
 competes with the business of Gaussian, Inc. or will provide
 assistance to any competitor of Gaussian, Inc.  The licensee
 of this program is prohibited from giving any competitor of
 Gaussian, Inc. access to this program.  By using this program,
 the user acknowledges that Gaussian, Inc. is engaged in the
 business of creating and licensing software in the field of
 computational chemistry and represents and warrants to the
 licensee that it is not a competitor of Gaussian, Inc. and that
 it will not use this program in any manner prohibited above.
 ---------------------------------------------------------------
  

 Cite this work as:
 Gaussian 16, Revision C.01,
 M. J. Frisch, G. W. Trucks, H. B. Schlegel, G. E. Scuseria, 
 M. A. Robb, J. R. Cheeseman, G. Scalmani, V. Barone, 
 G. A. Petersson, H. Nakatsuji, X. Li, M. Caricato, A. V. Marenich, 
 J. Bloino, B. G. Janesko, R. Gomperts, B. Mennucci, H. P. Hratchian, 
 J. V. Ortiz, A. F. Izmaylov, J. L. Sonnenberg, D. Williams-Young, 
 F. Ding, F. Lipparini, F. Egidi, J. Goings, B. Peng, A. Petrone, 
 T. Henderson, D. Ranasinghe, V. G. Zakrzewski, J. Gao, N. Rega, 
 G. Zheng, W. Liang, M. Hada, M. Ehara, K. Toyota, R. Fukuda, 
 J. Hasegawa, M. Ishida, T. Nakajima, Y. Honda, O. Kitao, H. Nakai, 
 T. Vreven, K. Throssell, J. A. Montgomery, Jr., J. E. Peralta, 
 F. Ogliaro, M. J. Bearpark, J. J. Heyd, E. N. Brothers, K. N. Kudin, 
 V. N. Staroverov, T. A. Keith, R. Kobayashi, J. Normand, 
 K. Raghavachari, A. P. Rendell, J. C. Burant, S. S. Iyengar, 
 J. Tomasi, M. Cossi, J. M. Millam, M. Klene, C. Adamo, R. Cammi, 
 J. W. Ochterski, R. L. Martin, K. Morokuma, O. Farkas, 
 J. B. Foresman, and D. J. Fox, Gaussian, Inc., Wallingford CT, 2019.
 
 ******************************************
 Gaussian 16:  AS64L-G16RevC.01  3-Jul-2019
                14-Jun-2021 
 ******************************************
 %nprocshared=4
 Will use up to    4 processors via shared memory.
 %chk=FuncsHSEH1PBE-V-1st.chk
 %Mem=3GB
 --------------------------------------------------------------
 # td= (nstates=6, root=1) HSEH1PBE/6-31+G* Opt density=current
 --------------------------------------------------------------
 1/18=20,19=15,26=3,38=1/1,3;
 2/9=110,12=2,17=6,18=5,40=1/2;
 3/5=1,6=6,7=11,11=9,25=1,30=1,71=1,74=-51/1,2,3,8;
 4//1;
 5/5=2,38=5/2;
 8/6=1,10=2,107=1,108=6/1;
 9/8=1,15=2,41=6,42=1,70=2/14;
 10/5=4,28=1/2;
 6/7=2,8=2,9=2,10=2,22=-1/1;
 7/12=6,13=5,14=1/1,2,3,16;
 1/18=20,19=15,26=3/3(2);
 2/9=110/2;
 99//99;
 2/9=110/2;
 3/5=1,6=6,7=11,11=9,25=1,30=1,71=1,74=-51/1,2,3,8;
 4/5=5,16=3,69=1/1;
 5/5=2,38=5/2;
 8/6=1,10=2,107=1,108=6/1;
 9/8=1,15=2,41=6,42=1,49=4,70=2/14;
 10/5=4,28=1/2;
 7/12=6,13=5,14=1/1,2,3,16;
 1/18=20,19=15,26=3/3(-8);
 2/9=110/2;
 6/7=2,8=2,9=2,10=2,22=-1/1;
 99/9=10/99;
 -------------------
 FuncsHSEH1PBE-V-1st
 -------------------
 Symbolic Z-matrix:
 Charge =  0 Multiplicity = 1
 C                    -2.15106   0.68921   0.00009 
 C                    -2.12793  -0.71582   0.00008 
 C                    -0.9323   -1.4131   -0.00001 
 C                     0.24691  -0.6702   -0.00004 
 C                     0.24819   0.7483    0. 
 C                    -0.97947   1.42353   0.00003 
 N                     1.56177  -1.07759  -0.00029 
 C                     1.62013   1.1629   -0.00016 
 C                     2.38201   0.03081   0.00025 
 H                     1.87632  -2.03001   0.00044 
 H                     1.99217   2.17301  -0.00035 
 H                     3.45255  -0.08243   0.00041 
 H                    -3.06159  -1.26202   0.00009 
 H                    -0.91725  -2.49534  -0.00007 
 H                    -3.1042    1.20079   0.00009 
 H                    -1.00935   2.50542  -0.00002 
 

 GradGradGradGradGradGradGradGradGradGradGradGradGradGradGradGradGradGrad
 Berny optimization.
 Initialization pass.
                           ----------------------------
                           !    Initial Parameters    !
                           ! (Angstroms and Degrees)  !
 --------------------------                            --------------------------
 ! Name  Definition              Value          Derivative Info.                !
 --------------------------------------------------------------------------------
 ! R1    R(1,2)                  1.4052         estimate D2E/DX2                !
 ! R2    R(1,6)                  1.3827         estimate D2E/DX2                !
 ! R3    R(1,15)                 1.0818         estimate D2E/DX2                !
 ! R4    R(2,3)                  1.3841         estimate D2E/DX2                !
 ! R5    R(2,13)                 1.0817         estimate D2E/DX2                !
 ! R6    R(3,4)                  1.3937         estimate D2E/DX2                !
 ! R7    R(3,14)                 1.0823         estimate D2E/DX2                !
 ! R8    R(4,5)                  1.4185         estimate D2E/DX2                !
 ! R9    R(4,7)                  1.3765         estimate D2E/DX2                !
 ! R10   R(5,6)                  1.4011         estimate D2E/DX2                !
 ! R11   R(5,8)                  1.4332         estimate D2E/DX2                !
 ! R12   R(6,16)                 1.0823         estimate D2E/DX2                !
 ! R13   R(7,9)                  1.3789         estimate D2E/DX2                !
 ! R14   R(7,10)                 1.003          estimate D2E/DX2                !
 ! R15   R(8,9)                  1.3646         estimate D2E/DX2                !
 ! R16   R(8,11)                 1.0764         estimate D2E/DX2                !
 ! R17   R(9,12)                 1.0765         estimate D2E/DX2                !
 ! A1    A(2,1,6)              121.1349         estimate D2E/DX2                !
 ! A2    A(2,1,15)             119.1671         estimate D2E/DX2                !
 ! A3    A(6,1,15)             119.698          estimate D2E/DX2                !
 ! A4    A(1,2,3)              121.1938         estimate D2E/DX2                !
 ! A5    A(1,2,13)             119.3846         estimate D2E/DX2                !
 ! A6    A(3,2,13)             119.4217         estimate D2E/DX2                !
 ! A7    A(2,3,4)              117.5387         estimate D2E/DX2                !
 ! A8    A(2,3,14)             121.0469         estimate D2E/DX2                !
 ! A9    A(4,3,14)             121.4144         estimate D2E/DX2                !
 ! A10   A(3,4,5)              122.2626         estimate D2E/DX2                !
 ! A11   A(3,4,7)              130.5743         estimate D2E/DX2                !
 ! A12   A(5,4,7)              107.163          estimate D2E/DX2                !
 ! A13   A(4,5,6)              118.7594         estimate D2E/DX2                !
 ! A14   A(4,5,8)              106.8666         estimate D2E/DX2                !
 ! A15   A(6,5,8)              134.374          estimate D2E/DX2                !
 ! A16   A(1,6,5)              119.1105         estimate D2E/DX2                !
 ! A17   A(1,6,16)             120.4966         estimate D2E/DX2                !
 ! A18   A(5,6,16)             120.3928         estimate D2E/DX2                !
 ! A19   A(4,7,9)              109.2874         estimate D2E/DX2                !
 ! A20   A(4,7,10)             125.4909         estimate D2E/DX2                !
 ! A21   A(9,7,10)             125.2217         estimate D2E/DX2                !
 ! A22   A(5,8,9)              107.125          estimate D2E/DX2                !
 ! A23   A(5,8,11)             127.0344         estimate D2E/DX2                !
 ! A24   A(9,8,11)             125.8405         estimate D2E/DX2                !
 ! A25   A(7,9,8)              109.5578         estimate D2E/DX2                !
 ! A26   A(7,9,12)             120.4645         estimate D2E/DX2                !
 ! A27   A(8,9,12)             129.9776         estimate D2E/DX2                !
 ! D1    D(6,1,2,3)             -0.0008         estimate D2E/DX2                !
 ! D2    D(6,1,2,13)          -179.9981         estimate D2E/DX2                !
 ! D3    D(15,1,2,3)           179.996          estimate D2E/DX2                !
 ! D4    D(15,1,2,13)           -0.0013         estimate D2E/DX2                !
 ! D5    D(2,1,6,5)             -0.0018         estimate D2E/DX2                !
 ! D6    D(2,1,6,16)           179.9965         estimate D2E/DX2                !
 ! D7    D(15,1,6,5)          -179.9986         estimate D2E/DX2                !
 ! D8    D(15,1,6,16)           -0.0003         estimate D2E/DX2                !
 ! D9    D(1,2,3,4)              0.002          estimate D2E/DX2                !
 ! D10   D(1,2,3,14)          -179.9968         estimate D2E/DX2                !
 ! D11   D(13,2,3,4)           179.9992         estimate D2E/DX2                !
 ! D12   D(13,2,3,14)            0.0005         estimate D2E/DX2                !
 ! D13   D(2,3,4,5)             -0.0005         estimate D2E/DX2                !
 ! D14   D(2,3,4,7)           -179.9911         estimate D2E/DX2                !
 ! D15   D(14,3,4,5)           179.9982         estimate D2E/DX2                !
 ! D16   D(14,3,4,7)             0.0076         estimate D2E/DX2                !
 ! D17   D(3,4,5,6)             -0.002          estimate D2E/DX2                !
 ! D18   D(3,4,5,8)           -179.9955         estimate D2E/DX2                !
 ! D19   D(7,4,5,6)            179.9905         estimate D2E/DX2                !
 ! D20   D(7,4,5,8)             -0.003          estimate D2E/DX2                !
 ! D21   D(3,4,7,9)           -179.98           estimate D2E/DX2                !
 ! D22   D(3,4,7,10)            -0.0649         estimate D2E/DX2                !
 ! D23   D(5,4,7,9)              0.0284         estimate D2E/DX2                !
 ! D24   D(5,4,7,10)           179.9434         estimate D2E/DX2                !
 ! D25   D(4,5,6,1)              0.0031         estimate D2E/DX2                !
 ! D26   D(4,5,6,16)          -179.9951         estimate D2E/DX2                !
 ! D27   D(8,5,6,1)            179.9944         estimate D2E/DX2                !
 ! D28   D(8,5,6,16)            -0.0038         estimate D2E/DX2                !
 ! D29   D(4,5,8,9)             -0.0234         estimate D2E/DX2                !
 ! D30   D(4,5,8,11)           179.9883         estimate D2E/DX2                !
 ! D31   D(6,5,8,9)            179.9846         estimate D2E/DX2                !
 ! D32   D(6,5,8,11)            -0.0037         estimate D2E/DX2                !
 ! D33   D(4,7,9,8)             -0.0444         estimate D2E/DX2                !
 ! D34   D(4,7,9,12)           179.9847         estimate D2E/DX2                !
 ! D35   D(10,7,9,8)          -179.9597         estimate D2E/DX2                !
 ! D36   D(10,7,9,12)            0.0693         estimate D2E/DX2                !
 ! D37   D(5,8,9,7)              0.0414         estimate D2E/DX2                !
 ! D38   D(5,8,9,12)          -179.9913         estimate D2E/DX2                !
 ! D39   D(11,8,9,7)          -179.9702         estimate D2E/DX2                !
 ! D40   D(11,8,9,12)           -0.0029         estimate D2E/DX2                !
 --------------------------------------------------------------------------------
 Trust Radius=3.00D-01 FncErr=1.00D-07 GrdErr=1.00D-06 EigMax=2.50D+02 EigMin=1.00D-04
 Number of steps in this run=     94 maximum allowed number of steps=    100.
 GradGradGradGradGradGradGradGradGradGradGradGradGradGradGradGradGradGrad

                          Input orientation:                          
 ---------------------------------------------------------------------
 Center     Atomic      Atomic             Coordinates (Angstroms)
 Number     Number       Type             X           Y           Z
 ---------------------------------------------------------------------
      1          6           0       -2.151063    0.689208    0.000088
      2          6           0       -2.127927   -0.715818    0.000075
      3          6           0       -0.932297   -1.413100   -0.000011
      4          6           0        0.246911   -0.670201   -0.000042
      5          6           0        0.248193    0.748299    0.000000
      6          6           0       -0.979474    1.423526    0.000032
      7          7           0        1.561774   -1.077592   -0.000285
      8          6           0        1.620133    1.162900   -0.000157
      9          6           0        2.382013    0.030806    0.000248
     10          1           0        1.876315   -2.030011    0.000438
     11          1           0        1.992173    2.173010   -0.000348
     12          1           0        3.452549   -0.082425    0.000408
     13          1           0       -3.061594   -1.262020    0.000088
     14          1           0       -0.917252   -2.495342   -0.000073
     15          1           0       -3.104203    1.200785    0.000090
     16          1           0       -1.009348    2.505421   -0.000015
 ---------------------------------------------------------------------
                    Distance matrix (angstroms):
                    1          2          3          4          5
     1  C    0.000000
     2  C    1.405216   0.000000
     3  C    2.430039   1.384100   0.000000
     4  C    2.756496   2.375276   1.393711   0.000000
     5  C    2.399984   2.790983   2.462763   1.418501   0.000000
     6  C    1.382694   2.428114   2.837018   2.426461   1.401106
     7  N    4.111781   3.707395   2.516536   1.376529   2.249305
     8  C    3.800829   4.192557   3.626386   2.290414   1.433218
     9  C    4.580641   4.571324   3.615178   2.247236   2.251218
    10  H    4.859416   4.214387   2.875566   2.122273   3.220216
    11  H    4.400917   5.031953   4.627387   3.336134   2.251948
    12  H    5.656491   5.616307   4.582311   3.259079   3.310287
    13  H    2.153220   1.081698   2.134650   3.361020   3.872476
    14  H    3.415208   2.152310   1.082347   2.164813   3.446661
    15  H    1.081752   2.150926   3.398466   3.838040   3.382795
    16  H    2.145261   3.409927   3.919278   3.415079   2.160761
                    6          7          8          9         10
     6  C    0.000000
     7  N    3.565604   0.000000
     8  C    2.612639   2.241252   0.000000
     9  C    3.638580   1.378890   1.364587   0.000000
    10  H    4.481345   1.003015   3.203172   2.121956   0.000000
    11  H    3.064704   3.278972   1.076446   2.177387   4.204618
    12  H    4.680888   2.136677   2.215532   1.076508   2.505515
    13  H    3.398144   4.627045   5.272457   5.595021   4.997275
    14  H    3.919362   2.855798   4.452085   4.155307   2.832058
    15  H    2.136372   5.192528   4.724488   5.609583   5.936632
    16  H    1.082307   4.410062   2.952378   4.198220   5.375611
                   11         12         13         14         15
    11  H    0.000000
    12  H    2.686947   0.000000
    13  H    6.110646   6.620083   0.000000
    14  H    5.500751   4.991726   2.473719   0.000000
    15  H    5.188282   6.681139   2.463174   4.294661   0.000000
    16  H    3.019872   5.158049   4.290143   5.001611   2.467892
                   16
    16  H    0.000000
 Stoichiometry    C8H7N
 Framework group  C1[X(C8H7N)]
 Deg. of freedom    42
 Full point group                 C1      NOp   1
 Largest Abelian subgroup         C1      NOp   1
 Largest concise Abelian subgroup C1      NOp   1
                         Standard orientation:                         
 ---------------------------------------------------------------------
 Center     Atomic      Atomic             Coordinates (Angstroms)
 Number     Number       Type             X           Y           Z
 ---------------------------------------------------------------------
      1          6           0       -2.151063    0.689208    0.000088
      2          6           0       -2.127927   -0.715818    0.000075
      3          6           0       -0.932297   -1.413100   -0.000011
      4          6           0        0.246911   -0.670201   -0.000042
      5          6           0        0.248193    0.748299    0.000000
      6          6           0       -0.979474    1.423526    0.000032
      7          7           0        1.561774   -1.077592   -0.000285
      8          6           0        1.620133    1.162900   -0.000157
      9          6           0        2.382013    0.030806    0.000248
     10          1           0        1.876315   -2.030011    0.000438
     11          1           0        1.992173    2.173010   -0.000348
     12          1           0        3.452549   -0.082425    0.000408
     13          1           0       -3.061594   -1.262020    0.000088
     14          1           0       -0.917252   -2.495342   -0.000073
     15          1           0       -3.104203    1.200785    0.000090
     16          1           0       -1.009348    2.505421   -0.000015
 ---------------------------------------------------------------------
 Rotational constants (GHZ):           3.9080822           1.6429452           1.1566805
 Standard basis: 6-31+G(d) (6D, 7F)
 There are   185 symmetry adapted cartesian basis functions of A   symmetry.
 There are   185 symmetry adapted basis functions of A   symmetry.
   185 basis functions,   316 primitive gaussians,   185 cartesian basis functions
    31 alpha electrons       31 beta electrons
       nuclear repulsion energy       401.3368668897 Hartrees.
 NAtoms=   16 NActive=   16 NUniq=   16 SFac= 1.00D+00 NAtFMM=   60 NAOKFM=F Big=F
 Integral buffers will be    131072 words long.
 Regular integral format.
 Two-electron integral symmetry is turned on.
 One-electron integrals computed using PRISM.
 NBasis=   185 RedAO= T EigKep=  1.26D-06  NBF=   185
 NBsUse=   185 1.00D-06 EigRej= -1.00D+00 NBFU=   185
 ExpMin= 4.38D-02 ExpMax= 4.17D+03 ExpMxC= 6.27D+02 IAcc=3 IRadAn=         5 AccDes= 0.00D+00
 Harris functional with IExCor= 1009 and IRadAn=       5 diagonalized for initial guess.
 HarFok:  IExCor= 1009 AccDes= 0.00D+00 IRadAn=         5 IDoV= 1 UseB2=F ITyADJ=14
 ICtDFT=  3500011 ScaDFX=  1.000000  1.000000  1.000000  1.000000
 FoFCou: FMM=F IPFlag=           0 FMFlag=      100000 FMFlg1=           0
         NFxFlg=           0 DoJE=T BraDBF=F KetDBF=T FulRan=T
         wScrn=  0.000000 ICntrl=       500 IOpCl=  0 I1Cent=   200000004 NGrid=           0
         NMat0=    1 NMatS0=      1 NMatT0=    0 NMatD0=    1 NMtDS0=    0 NMtDT0=    0
 Petite list used in FoFCou.
 Keep R1 ints in memory in canonical form, NReq=303303409.
 Requested convergence on RMS density matrix=1.00D-08 within 128 cycles.
 Requested convergence on MAX density matrix=1.00D-06.
 Requested convergence on             energy=1.00D-06.
 No special actions if energy rises.
 SCF Done:  E(RHSEH1PBE) =  -363.433772147     A.U. after   14 cycles
            NFock= 14  Conv=0.75D-08     -V/T= 2.0088
 DoSCS=F DFT=T ScalE2(SS,OS)=  1.000000  1.000000
 ExpMin= 4.38D-02 ExpMax= 4.17D+03 ExpMxC= 6.27D+02 IAcc=3 IRadAn=         5 AccDes= 0.00D+00
 HarFok:  IExCor=  205 AccDes= 0.00D+00 IRadAn=         5 IDoV=-2 UseB2=F ITyADJ=14
 ICtDFT= 12500011 ScaDFX=  1.000000  1.000000  1.000000  1.000000
 Range of M.O.s used for correlation:    10   185
 NBasis=   185 NAE=    31 NBE=    31 NFC=     9 NFV=     0
 NROrb=    176 NOA=    22 NOB=    22 NVA=   154 NVB=   154

 **** Warning!!: The largest alpha MO coefficient is  0.17295505D+03

 Orbital symmetries:
       Occupied  (A) (A) (A) (A) (A) (A) (A) (A) (A) (A) (A) (A)
                 (A) (A) (A) (A) (A) (A) (A) (A) (A) (A) (A) (A)
                 (A) (A) (A) (A) (A) (A) (A)
       Virtual   (A) (A) (A) (A) (A) (A) (A) (A) (A) (A) (A) (A)
                 (A) (A) (A) (A) (A) (A) (A) (A) (A) (A) (A) (A)
                 (A) (A) (A) (A) (A) (A) (A) (A) (A) (A) (A) (A)
                 (A) (A) (A) (A) (A) (A) (A) (A) (A) (A) (A) (A)
                 (A) (A) (A) (A) (A) (A) (A) (A) (A) (A) (A) (A)
                 (A) (A) (A) (A) (A) (A) (A) (A) (A) (A) (A) (A)
                 (A) (A) (A) (A) (A) (A) (A) (A) (A) (A) (A) (A)
                 (A) (A) (A) (A) (A) (A) (A) (A) (A) (A) (A) (A)
                 (A) (A) (A) (A) (A) (A) (A) (A) (A) (A) (A) (A)
                 (A) (A) (A) (A) (A) (A) (A) (A) (A) (A) (A) (A)
                 (A) (A) (A) (A) (A) (A) (A) (A) (A) (A) (A) (A)
                 (A) (A) (A) (A) (A) (A) (A) (A) (A) (A) (A) (A)
                 (A) (A) (A) (A) (A) (A) (A) (A) (A) (A)
    24 initial guesses have been made.
 Convergence on wavefunction:    0.000001000000000
 Iteration     1 Dimension    24 NMult     0 NNew     24
 CISAX will form    24 AO SS matrices at one time.
 New state      1 was old state      3
 New state      3 was old state      1
 New state      4 was old state      5
 New state      5 was old state      6
 New state      6 was old state      7
 Iteration     2 Dimension    36 NMult    24 NNew     12
 New state      1 was old state      3
 New state      3 was old state      1
 Iteration     3 Dimension    48 NMult    36 NNew     12
 Iteration     4 Dimension    60 NMult    48 NNew     12
 Iteration     5 Dimension    72 NMult    60 NNew     12
 Iteration     6 Dimension    84 NMult    72 NNew     12
 Iteration     7 Dimension    96 NMult    84 NNew     12
 Iteration     8 Dimension   108 NMult    96 NNew     12
 Iteration     9 Dimension   120 NMult   108 NNew     12
 Iteration    10 Dimension   130 NMult   120 NNew     10
 Iteration    11 Dimension   134 NMult   130 NNew      4
 ***********************************************************************
 Excited states from <AA,BB:AA,BB> singles matrix:
 ***********************************************************************
 
 Ground to excited state transition densities written to RWF  633
 Ground to excited state transition electric dipole moments (Au):
       state          X           Y           Z        Dip. S.      Osc.
         1        -0.5502      0.6237     -0.0002      0.6917      0.0822
         2        -0.5490     -0.1062     -0.0002      0.3127      0.0383
         3         0.0012     -0.0005     -0.1303      0.0170      0.0021
         4        -0.0004      0.0001     -0.1436      0.0206      0.0028
         5         0.0005     -0.0000      0.0238      0.0006      0.0001
         6         0.0006      0.0002      0.1034      0.0107      0.0015
 Ground to excited state transition velocity dipole moments (Au):
       state          X           Y           Z        Dip. S.      Osc.
         1         0.0889     -0.1203      0.0000      0.0224      0.0837
         2         0.0951      0.0202      0.0000      0.0094      0.0343
         3        -0.0002      0.0001      0.0158      0.0002      0.0009
         4         0.0001     -0.0000      0.0306      0.0009      0.0031
         5        -0.0001      0.0000     -0.0038      0.0000      0.0000
         6        -0.0001     -0.0000     -0.0221      0.0005      0.0015
 Ground to excited state transition magnetic dipole moments (Au):
       state          X           Y           Z
         1         0.0003     -0.0001      0.1852
         2         0.0000     -0.0002     -0.0283
         3         0.1190     -0.0652      0.0001
         4         0.0491     -0.2336     -0.0000
         5         0.3186     -0.1230      0.0002
         6         0.0825      0.3752      0.0005
 Ground to excited state transition velocity quadrupole moments (Au):
       state          XX          YY          ZZ          XY          XZ          YZ
         1         0.1938     -0.1112      0.0109      0.0490      0.0001      0.0001
         2         0.0738     -0.1119      0.0260      0.0008      0.0001      0.0000
         3        -0.0003      0.0002      0.0001      0.0000      0.0575      0.0519
         4        -0.0001      0.0000      0.0000     -0.0000      0.1639     -0.0086
         5        -0.0002     -0.0001      0.0000      0.0002      0.1574      0.2622
         6         0.0001     -0.0001      0.0000      0.0002     -0.3339     -0.0078
 <0|del|b> * <b|rxdel|0> + <0|del|b> * <b|delr+rdel|0>
 Rotatory Strengths (R) in cgs (10**-40 erg-esu-cm/Gauss)
       state          XX          YY          ZZ    R(velocity)    E-M Angle
         1         0.0511      0.0764      0.0268      0.0514       90.00
         2        -0.0169      0.0045      0.0016     -0.0036       90.00
         3        -0.0232     -0.0613     -0.0260     -0.0368       90.00
         4         0.0149      0.0062      0.0109      0.0107       90.00
         5        -0.0044     -0.0928     -0.0087     -0.0353       90.00
         6        -0.0667     -0.0237     -0.0196     -0.0367       90.00
 1/2[<0|r|b>*<b|rxdel|0> + (<0|rxdel|b>*<b|r|0>)*]
 Rotatory Strengths (R) in cgs (10**-40 erg-esu-cm/Gauss)
       state          XX          YY          ZZ     R(length)
         1         0.1207      0.0263      0.0240      0.0570
         2         0.0125     -0.0186     -0.0041     -0.0034
         3        -0.0969     -0.0243      0.0047     -0.0388
         4         0.0131      0.0172     -0.0003      0.0100
         5        -0.1057     -0.0016     -0.0039     -0.0370
         6        -0.0333     -0.0576     -0.0351     -0.0420
  1/2[<0|del|b>*<b|r|0> + (<0|r|b>*<b|del|0>)*] (Au)
       state          X           Y           Z        Dip. S.   Osc.(frdel)
         1        -0.0489     -0.0750     -0.0000      0.1240      0.0826
         2        -0.0522     -0.0021     -0.0000      0.0543      0.0362
         3        -0.0000     -0.0000     -0.0021      0.0021      0.0014
         4        -0.0000     -0.0000     -0.0044      0.0044      0.0029
         5        -0.0000     -0.0000     -0.0001      0.0001      0.0001
         6        -0.0000     -0.0000     -0.0023      0.0023      0.0015

 Excitation energies and oscillator strengths:
 
 Excited State   1:      Singlet-A      4.8531 eV  255.47 nm  f=0.0822  <S**2>=0.000
      30 -> 32        -0.13553
      30 -> 34         0.15405
      31 -> 32         0.66298
 This state for optimization and/or second-order correction.
 Total Energy, E(TD-HF/TD-DFT) =  -363.255423654    
 Copying the excited state density for this state as the 1-particle RhoCI density.
 
 Excited State   2:      Singlet-A      4.9973 eV  248.10 nm  f=0.0383  <S**2>=0.000
      30 -> 32         0.56498
      31 -> 32         0.11432
      31 -> 34        -0.39951
 
 Excited State   3:      Singlet-A      5.0849 eV  243.83 nm  f=0.0021  <S**2>=0.000
      31 -> 33         0.70415
 
 Excited State   4:      Singlet-A      5.5531 eV  223.27 nm  f=0.0028  <S**2>=0.000
      30 -> 33         0.69254
      31 -> 35         0.11458
 
 Excited State   5:      Singlet-A      5.6515 eV  219.38 nm  f=0.0001  <S**2>=0.000
      30 -> 33        -0.11690
      31 -> 35         0.69297
 
 Excited State   6:      Singlet-A      5.7809 eV  214.47 nm  f=0.0015  <S**2>=0.000
      31 -> 36         0.69833
 SavETr:  write IOETrn=   770 NScale= 10 NData=  16 NLR=1 NState=    6 LETran=     118.
          IDoAtm=1111111111111111
          Differentiating once with respect to electric field.
                with respect to dipole field.
          Differentiating once with respect to nuclear coordinates.
 Keep R1 ints in memory in canonical form, NReq=303315801.
          There are     1 degrees of freedom in the 1st order CPHF.  IDoFFX=0 NUNeed=     1.
 LinEq1:  Iter=  0 NonCon=     1 RMS=1.23D-02 Max=3.65D-01 NDo=     1
 AX will form     1 AO Fock derivatives at one time.
 LinEq1:  Iter=  1 NonCon=     1 RMS=5.17D-03 Max=1.15D-01 NDo=     1
 LinEq1:  Iter=  2 NonCon=     1 RMS=4.39D-03 Max=1.26D-01 NDo=     1
 LinEq1:  Iter=  3 NonCon=     1 RMS=1.76D-03 Max=4.84D-02 NDo=     1
 LinEq1:  Iter=  4 NonCon=     1 RMS=1.38D-03 Max=5.03D-02 NDo=     1
 LinEq1:  Iter=  5 NonCon=     1 RMS=6.65D-04 Max=1.32D-02 NDo=     1
 LinEq1:  Iter=  6 NonCon=     1 RMS=3.82D-04 Max=9.94D-03 NDo=     1
 LinEq1:  Iter=  7 NonCon=     1 RMS=2.39D-04 Max=6.40D-03 NDo=     1
 LinEq1:  Iter=  8 NonCon=     1 RMS=1.20D-04 Max=2.34D-03 NDo=     1
 LinEq1:  Iter=  9 NonCon=     1 RMS=6.99D-05 Max=1.41D-03 NDo=     1
 LinEq1:  Iter= 10 NonCon=     1 RMS=2.99D-05 Max=9.06D-04 NDo=     1
 LinEq1:  Iter= 11 NonCon=     1 RMS=1.67D-05 Max=3.57D-04 NDo=     1
 LinEq1:  Iter= 12 NonCon=     1 RMS=6.68D-06 Max=8.58D-05 NDo=     1
 LinEq1:  Iter= 13 NonCon=     1 RMS=2.30D-06 Max=5.07D-05 NDo=     1
 LinEq1:  Iter= 14 NonCon=     1 RMS=1.32D-06 Max=2.70D-05 NDo=     1
 LinEq1:  Iter= 15 NonCon=     1 RMS=2.05D-07 Max=3.07D-06 NDo=     1
 LinEq1:  Iter= 16 NonCon=     1 RMS=5.44D-08 Max=7.75D-07 NDo=     1
 LinEq1:  Iter= 17 NonCon=     1 RMS=3.57D-08 Max=7.77D-07 NDo=     1
 LinEq1:  Iter= 18 NonCon=     1 RMS=8.42D-09 Max=1.53D-07 NDo=     1
 LinEq1:  Iter= 19 NonCon=     1 RMS=1.31D-09 Max=1.28D-08 NDo=     1
 LinEq1:  Iter= 20 NonCon=     1 RMS=3.14D-10 Max=3.61D-09 NDo=     1
 LinEq1:  Iter= 21 NonCon=     1 RMS=1.05D-10 Max=1.02D-09 NDo=     1
 LinEq1:  Iter= 22 NonCon=     0 RMS=2.04D-11 Max=2.52D-10 NDo=     1
 Linear equations converged to 1.000D-10 1.000D-09 after    22 iterations.
 End of Minotr F.D. properties file   721 does not exist.
 End of Minotr F.D. properties file   722 does not exist.
 End of Minotr F.D. properties file   788 does not exist.

 **********************************************************************

            Population analysis using the CI Density.

 **********************************************************************

 Orbital symmetries:
       Occupied  (A) (A) (A) (A) (A) (A) (A) (A) (A) (A) (A) (A)
                 (A) (A) (A) (A) (A) (A) (A) (A) (A) (A) (A) (A)
                 (A) (A) (A) (A) (A) (A) (A)
       Virtual   (A) (A) (A) (A) (A) (A) (A) (A) (A) (A) (A) (A)
                 (A) (A) (A) (A) (A) (A) (A) (A) (A) (A) (A) (A)
                 (A) (A) (A) (A) (A) (A) (A) (A) (A) (A) (A) (A)
                 (A) (A) (A) (A) (A) (A) (A) (A) (A) (A) (A) (A)
                 (A) (A) (A) (A) (A) (A) (A) (A) (A) (A) (A) (A)
                 (A) (A) (A) (A) (A) (A) (A) (A) (A) (A) (A) (A)
                 (A) (A) (A) (A) (A) (A) (A) (A) (A) (A) (A) (A)
                 (A) (A) (A) (A) (A) (A) (A) (A) (A) (A) (A) (A)
                 (A) (A) (A) (A) (A) (A) (A) (A) (A) (A) (A) (A)
                 (A) (A) (A) (A) (A) (A) (A) (A) (A) (A) (A) (A)
                 (A) (A) (A) (A) (A) (A) (A) (A) (A) (A) (A) (A)
                 (A) (A) (A) (A) (A) (A) (A) (A) (A) (A) (A) (A)
                 (A) (A) (A) (A) (A) (A) (A) (A) (A) (A)
 The electronic state is 1-A.
 Alpha  occ. eigenvalues --  -14.43659 -10.25747 -10.25556 -10.22524 -10.22140
 Alpha  occ. eigenvalues --  -10.21985 -10.21978 -10.21469 -10.21245  -0.99778
 Alpha  occ. eigenvalues --   -0.85176  -0.79369  -0.74505  -0.72645  -0.63078
 Alpha  occ. eigenvalues --   -0.60077  -0.58710  -0.54410  -0.48545  -0.47299
 Alpha  occ. eigenvalues --   -0.43888  -0.43005  -0.42437  -0.41175  -0.39188
 Alpha  occ. eigenvalues --   -0.35425  -0.33460  -0.33349  -0.27787  -0.22090
 Alpha  occ. eigenvalues --   -0.20396
 Alpha virt. eigenvalues --   -0.02533  -0.00505   0.01125   0.01381   0.01973
 Alpha virt. eigenvalues --    0.03518   0.03649   0.03970   0.05514   0.05736
 Alpha virt. eigenvalues --    0.06429   0.06485   0.08234   0.08564   0.10434
 Alpha virt. eigenvalues --    0.10598   0.10852   0.12331   0.13219   0.13588
 Alpha virt. eigenvalues --    0.15258   0.15408   0.16390   0.16468   0.16993
 Alpha virt. eigenvalues --    0.17926   0.18433   0.18621   0.19501   0.19724
 Alpha virt. eigenvalues --    0.19911   0.20067   0.21669   0.22199   0.22921
 Alpha virt. eigenvalues --    0.23357   0.23572   0.24424   0.25452   0.25842
 Alpha virt. eigenvalues --    0.26914   0.27164   0.27647   0.29440   0.29934
 Alpha virt. eigenvalues --    0.30707   0.31360   0.33020   0.34933   0.36530
 Alpha virt. eigenvalues --    0.37713   0.39809   0.43354   0.44882   0.51304
 Alpha virt. eigenvalues --    0.58110   0.62638   0.67463   0.67538   0.70045
 Alpha virt. eigenvalues --    0.71742   0.72233   0.73186   0.73834   0.74395
 Alpha virt. eigenvalues --    0.75469   0.75961   0.77942   0.79422   0.80213
 Alpha virt. eigenvalues --    0.81644   0.85525   0.89588   0.90346   0.91492
 Alpha virt. eigenvalues --    0.93797   0.94547   0.95447   0.96173   0.98571
 Alpha virt. eigenvalues --    1.00510   1.03213   1.04861   1.06612   1.09447
 Alpha virt. eigenvalues --    1.11364   1.11726   1.17114   1.17987   1.20553
 Alpha virt. eigenvalues --    1.22496   1.23079   1.25314   1.31720   1.31930
 Alpha virt. eigenvalues --    1.33737   1.36964   1.41167   1.41809   1.45346
 Alpha virt. eigenvalues --    1.45754   1.46457   1.49555   1.50123   1.54029
 Alpha virt. eigenvalues --    1.59065   1.65136   1.78847   1.84605   1.88566
 Alpha virt. eigenvalues --    1.89221   1.92450   1.94579   1.99824   2.00087
 Alpha virt. eigenvalues --    2.00644   2.06652   2.10337   2.14535   2.17586
 Alpha virt. eigenvalues --    2.17629   2.20241   2.25150   2.26317   2.26842
 Alpha virt. eigenvalues --    2.28941   2.31842   2.38442   2.41232   2.45102
 Alpha virt. eigenvalues --    2.55356   2.56315   2.64281   2.66448   2.67500
 Alpha virt. eigenvalues --    2.70680   2.74329   2.81696   2.85389   2.86569
 Alpha virt. eigenvalues --    2.96251   2.98702   3.12128   3.25223   3.45788
 Alpha virt. eigenvalues --    4.16676   4.27763   4.30738   4.34201   4.37798
 Alpha virt. eigenvalues --    4.41363   4.49683   4.53608   4.80607
          Condensed to atoms (all electrons):
               1          2          3          4          5          6
     1  C    5.729050   0.478131   0.228000  -0.768575   0.147476  -0.240081
     2  C    0.478131   6.225456  -0.405603   0.509289  -0.959053   0.662170
     3  C    0.228000  -0.405603  13.878633  -2.097368  -3.923954  -3.201761
     4  C   -0.768575   0.509289  -2.097368  13.332193  -3.921816  -0.856837
     5  C    0.147476  -0.959053  -3.923954  -3.921816  15.428148  -0.337784
     6  C   -0.240081   0.662170  -3.201761  -0.856837  -0.337784  13.663882
     7  N   -0.022281  -0.001397  -0.596619  -0.410956   1.004042   0.157263
     8  C    0.133256  -0.332412   3.461926   1.964228  -5.040146  -4.200240
     9  C   -0.088498   0.029524  -1.249538  -0.696795   1.817641   1.128755
    10  H   -0.001500  -0.008846  -0.120671  -0.055773   0.156584   0.022938
    11  H    0.003498   0.001139   0.003710   0.016581  -0.000717   0.010574
    12  H    0.001115   0.000406   0.037113   0.105044  -0.114255  -0.022703
    13  H    0.020704   0.250230   0.012239   0.009784   0.015058  -0.002657
    14  H    0.016149   0.065575   0.202161   0.036103  -0.000293  -0.022289
    15  H    0.260810   0.018051   0.024154  -0.022373   0.032591  -0.015716
    16  H    0.034898   0.010813  -0.031146   0.032622   0.087409   0.193596
               7          8          9         10         11         12
     1  C   -0.022281   0.133256  -0.088498  -0.001500   0.003498   0.001115
     2  C   -0.001397  -0.332412   0.029524  -0.008846   0.001139   0.000406
     3  C   -0.596619   3.461926  -1.249538  -0.120671   0.003710   0.037113
     4  C   -0.410956   1.964228  -0.696795  -0.055773   0.016581   0.105044
     5  C    1.004042  -5.040146   1.817641   0.156584  -0.000717  -0.114255
     6  C    0.157263  -4.200240   1.128755   0.022938   0.010574  -0.022703
     7  N    7.208651  -0.782928   0.618561   0.265821   0.005542  -0.056998
     8  C   -0.782928  12.515190  -2.198157  -0.005491   0.281312   0.061261
     9  C    0.618561  -2.198157   6.698017  -0.021560  -0.021720   0.304561
    10  H    0.265821  -0.005491  -0.021560   0.313192  -0.000061  -0.001966
    11  H    0.005542   0.281312  -0.021720  -0.000061   0.457273  -0.000669
    12  H   -0.056998   0.061261   0.304561  -0.001966  -0.000669   0.452971
    13  H   -0.000538   0.000531   0.001230  -0.000002  -0.000000  -0.000000
    14  H   -0.008579  -0.004178   0.007294   0.002144   0.000002   0.000003
    15  H    0.000327   0.008150  -0.000116  -0.000000  -0.000002  -0.000000
    16  H   -0.001193  -0.038633   0.003971   0.000004   0.001371  -0.000001
              13         14         15         16
     1  C    0.020704   0.016149   0.260810   0.034898
     2  C    0.250230   0.065575   0.018051   0.010813
     3  C    0.012239   0.202161   0.024154  -0.031146
     4  C    0.009784   0.036103  -0.022373   0.032622
     5  C    0.015058  -0.000293   0.032591   0.087409
     6  C   -0.002657  -0.022289  -0.015716   0.193596
     7  N   -0.000538  -0.008579   0.000327  -0.001193
     8  C    0.000531  -0.004178   0.008150  -0.038633
     9  C    0.001230   0.007294  -0.000116   0.003971
    10  H   -0.000002   0.002144  -0.000000   0.000004
    11  H   -0.000000   0.000002  -0.000002   0.001371
    12  H   -0.000000   0.000003  -0.000000  -0.000001
    13  H    0.501861  -0.004213  -0.004150  -0.000152
    14  H   -0.004213   0.509426  -0.000153   0.000018
    15  H   -0.004150  -0.000153   0.502575  -0.004114
    16  H   -0.000152   0.000018  -0.004114   0.505028
 Mulliken charges:
               1
     1  C    0.067848
     2  C   -0.543474
     3  C   -0.221275
     4  C   -1.175350
     5  C    1.609069
     6  C   -0.939111
     7  N   -0.378718
     8  C    0.176331
     9  C   -0.333171
    10  H    0.455186
    11  H    0.242167
    12  H    0.234117
    13  H    0.200074
    14  H    0.200832
    15  H    0.199968
    16  H    0.205509
 Sum of Mulliken charges =  -0.00000
 Mulliken charges with hydrogens summed into heavy atoms:
               1
     1  C    0.267816
     2  C   -0.343400
     3  C   -0.020444
     4  C   -1.175350
     5  C    1.609069
     6  C   -0.733603
     7  N    0.076468
     8  C    0.418498
     9  C   -0.099054
 Electronic spatial extent (au):  <R**2>=           1007.5971
 Charge=             -0.0000 electrons
 Dipole moment (field-independent basis, Debye):
    X=              4.0488    Y=             -1.1261    Z=             -0.0020  Tot=              4.2025
 Quadrupole moment (field-independent basis, Debye-Ang):
   XX=            -45.8082   YY=            -45.6159   ZZ=            -60.4409
   XY=             -2.5964   XZ=             -0.0029   YZ=              0.0013
 Traceless Quadrupole moment (field-independent basis, Debye-Ang):
   XX=              4.8135   YY=              5.0058   ZZ=             -9.8192
   XY=             -2.5964   XZ=             -0.0029   YZ=              0.0013
 Octapole moment (field-independent basis, Debye-Ang**2):
  XXX=             24.0813  YYY=             -8.6968  ZZZ=             -0.0196  XYY=             15.9068
  XXY=             -5.4151  XXZ=             -0.0097  XZZ=              4.6380  YZZ=             -0.7598
  YYZ=             -0.0146  XYZ=              0.0002
 Hexadecapole moment (field-independent basis, Debye-Ang**3):
 XXXX=           -848.6564 YYYY=           -389.3398 ZZZZ=            -86.6673 XXXY=            -19.0759
 XXXZ=             -0.0504 YYYX=            -15.6830 YYYZ=              0.0220 ZZZX=             -0.0259
 ZZZY=              0.0217 XXYY=           -192.3165 XXZZ=           -200.6238 YYZZ=           -102.7082
 XXYZ=              0.0054 YYXZ=             -0.0024 ZZXY=             -2.0485
 N-N= 4.013368668897D+02 E-N=-1.644740242422D+03  KE= 3.603943885896D+02
 Calling FoFJK, ICntrl=  10005127 FMM=F ISym2X=0 I1Cent= 0 IOpClX= 0 NMat=1 NMatS=1 NMatT=0.
 ***** Axes restored to original set *****
 -------------------------------------------------------------------
 Center     Atomic                   Forces (Hartrees/Bohr)
 Number     Number              X              Y              Z
 -------------------------------------------------------------------
      1        6          -0.024370913   -0.037732612   -0.000003424
      2        6          -0.040114542    0.042073998    0.000001760
      3        6           0.037596309   -0.032415509    0.000009389
      4        6          -0.011834796    0.019082048   -0.000021506
      5        6           0.012847014   -0.018890902   -0.000025754
      6        6           0.012062216    0.033025876    0.000002316
      7        7           0.012745753    0.030591796    0.000054734
      8        6          -0.036351011    0.019548581    0.000021040
      9        6           0.034684878   -0.052251893   -0.000034372
     10        1           0.002891606   -0.006137120   -0.000000001
     11        1           0.001943183    0.003618363    0.000002666
     12        1           0.003119450   -0.000884672   -0.000004788
     13        1          -0.003066321   -0.001036691   -0.000000046
     14        1           0.000665026   -0.003271329   -0.000005132
     15        1          -0.003040048    0.001356664    0.000000862
     16        1           0.000222196    0.003323400    0.000002256
 -------------------------------------------------------------------
 Cartesian Forces:  Max     0.052251893 RMS     0.018806032

 GradGradGradGradGradGradGradGradGradGradGradGradGradGradGradGradGradGrad
 Berny optimization.
 FormGI is forming the generalized inverse of G from B-inverse, IUseBI=4.
 Internal  Forces:  Max     0.049596910 RMS     0.009789937
 Search for a local minimum.
 Step number   1 out of a maximum of   94
 All quantities printed in internal units (Hartrees-Bohrs-Radians)
 Mixed Optimization -- RFO/linear search
 Second derivative matrix not updated -- first step.
 ITU=  0
     Eigenvalues ---    0.01853   0.01931   0.01986   0.02012   0.02070
     Eigenvalues ---    0.02113   0.02148   0.02153   0.02172   0.02209
     Eigenvalues ---    0.02233   0.02248   0.02338   0.16000   0.16000
     Eigenvalues ---    0.16000   0.16000   0.16000   0.16000   0.16000
     Eigenvalues ---    0.22000   0.22188   0.22662   0.24011   0.24651
     Eigenvalues ---    0.35712   0.35717   0.35783   0.35790   0.36420
     Eigenvalues ---    0.36427   0.37009   0.38432   0.42633   0.43465
     Eigenvalues ---    0.45769   0.46692   0.47162   0.47468   0.47567
     Eigenvalues ---    0.48125   0.50955
 RFO step:  Lambda=-1.77417488D-02 EMin= 1.85287394D-02
 Linear search not attempted -- first point.
 Iteration  1 RMS(Cart)=  0.03012010 RMS(Int)=  0.00033038
 Iteration  2 RMS(Cart)=  0.00041032 RMS(Int)=  0.00014329
 Iteration  3 RMS(Cart)=  0.00000009 RMS(Int)=  0.00014329
 Variable       Old X    -DE/DX   Delta X   Delta X   Delta X     New X
                                 (Linear)    (Quad)   (Total)
    R1        2.65547  -0.01479   0.00000  -0.02966  -0.02963   2.62584
    R2        2.61291   0.03562   0.00000   0.07177   0.07179   2.68470
    R3        2.04421   0.00332   0.00000   0.00884   0.00884   2.05305
    R4        2.61557   0.04960   0.00000   0.09987   0.09988   2.71545
    R5        2.04411   0.00317   0.00000   0.00844   0.00844   2.05255
    R6        2.63373   0.00827   0.00000   0.01593   0.01592   2.64965
    R7        2.04534   0.00328   0.00000   0.00875   0.00875   2.05409
    R8        2.68058  -0.00810   0.00000  -0.02409  -0.02433   2.65625
    R9        2.60126   0.01747   0.00000   0.03108   0.03135   2.63261
   R10        2.64771   0.02131   0.00000   0.04418   0.04417   2.69188
   R11        2.70839   0.00003   0.00000   0.00128   0.00089   2.70928
   R12        2.04526   0.00332   0.00000   0.00884   0.00884   2.05411
   R13        2.60573  -0.01963   0.00000  -0.03705  -0.03667   2.56906
   R14        1.89542   0.00673   0.00000   0.01376   0.01376   1.90918
   R15        2.57870   0.04239   0.00000   0.08236   0.08234   2.66104
   R16        2.03419   0.00407   0.00000   0.01065   0.01065   2.04483
   R17        2.03430   0.00320   0.00000   0.00837   0.00837   2.04267
    A1        2.11420   0.00058   0.00000   0.00774   0.00773   2.12193
    A2        2.07986  -0.00054   0.00000  -0.00527  -0.00526   2.07460
    A3        2.08912  -0.00004   0.00000  -0.00247  -0.00247   2.08666
    A4        2.11523  -0.00119   0.00000  -0.00002  -0.00003   2.11520
    A5        2.08365  -0.00007   0.00000  -0.00374  -0.00374   2.07992
    A6        2.08430   0.00126   0.00000   0.00377   0.00377   2.08807
    A7        2.05144  -0.00380   0.00000  -0.01732  -0.01737   2.03407
    A8        2.11267   0.00253   0.00000   0.01223   0.01225   2.12492
    A9        2.11908   0.00126   0.00000   0.00509   0.00512   2.12420
   A10        2.13389   0.00438   0.00000   0.01606   0.01597   2.14985
   A11        2.27895  -0.00617   0.00000  -0.01350  -0.01347   2.26548
   A12        1.87035   0.00179   0.00000  -0.00256  -0.00250   1.86785
   A13        2.07274   0.00493   0.00000   0.01486   0.01507   2.08781
   A14        1.86517  -0.00338   0.00000  -0.01510  -0.01564   1.84953
   A15        2.34527  -0.00155   0.00000   0.00023   0.00057   2.34584
   A16        2.07887  -0.00490   0.00000  -0.02132  -0.02136   2.05751
   A17        2.10306   0.00277   0.00000   0.01246   0.01248   2.11555
   A18        2.10125   0.00213   0.00000   0.00886   0.00888   2.11013
   A19        1.90743   0.01237   0.00000   0.04709   0.04764   1.95506
   A20        2.19023  -0.00541   0.00000  -0.01916  -0.01944   2.17079
   A21        2.18553  -0.00696   0.00000  -0.02793  -0.02820   2.15733
   A22        1.86968   0.00663   0.00000   0.03561   0.03523   1.90491
   A23        2.21717  -0.00273   0.00000  -0.01453  -0.01434   2.20283
   A24        2.19633  -0.00390   0.00000  -0.02108  -0.02089   2.17544
   A25        1.91215  -0.01741   0.00000  -0.06505  -0.06472   1.84742
   A26        2.10250   0.00814   0.00000   0.02937   0.02921   2.13171
   A27        2.26854   0.00926   0.00000   0.03568   0.03551   2.30405
    D1       -0.00001   0.00000   0.00000   0.00001   0.00001  -0.00000
    D2       -3.14156  -0.00000   0.00000  -0.00002  -0.00002  -3.14158
    D3        3.14152   0.00000   0.00000   0.00005   0.00005   3.14158
    D4       -0.00002   0.00000   0.00000   0.00003   0.00003   0.00000
    D5       -0.00003   0.00000   0.00000   0.00007   0.00007   0.00004
    D6        3.14153   0.00000   0.00000   0.00005   0.00005   3.14159
    D7       -3.14157   0.00000   0.00000   0.00003   0.00002  -3.14154
    D8       -0.00001  -0.00000   0.00000   0.00001   0.00001   0.00001
    D9        0.00003  -0.00000   0.00000  -0.00006  -0.00007  -0.00003
   D10       -3.14154   0.00000   0.00000   0.00002   0.00002  -3.14152
   D11        3.14158  -0.00000   0.00000  -0.00004  -0.00004   3.14154
   D12        0.00001   0.00000   0.00000   0.00004   0.00004   0.00005
   D13       -0.00001  -0.00000   0.00000   0.00004   0.00005   0.00004
   D14       -3.14144  -0.00000   0.00000  -0.00004  -0.00004  -3.14147
   D15        3.14156  -0.00000   0.00000  -0.00004  -0.00004   3.14153
   D16        0.00013  -0.00000   0.00000  -0.00012  -0.00012   0.00001
   D17       -0.00004   0.00000   0.00000   0.00003   0.00003  -0.00001
   D18       -3.14151   0.00000   0.00000  -0.00004  -0.00005  -3.14157
   D19        3.14143   0.00000   0.00000   0.00009   0.00009   3.14152
   D20       -0.00005   0.00000   0.00000   0.00002   0.00001  -0.00004
   D21       -3.14124  -0.00000   0.00000  -0.00024  -0.00025  -3.14150
   D22       -0.00113   0.00001   0.00000   0.00019   0.00019  -0.00095
   D23        0.00049  -0.00001   0.00000  -0.00031  -0.00033   0.00017
   D24        3.14060   0.00001   0.00000   0.00012   0.00011   3.14072
   D25        0.00005  -0.00000   0.00000  -0.00009  -0.00009  -0.00003
   D26       -3.14151  -0.00000   0.00000  -0.00007  -0.00007  -3.14158
   D27        3.14150  -0.00000   0.00000   0.00001   0.00002   3.14152
   D28       -0.00007  -0.00000   0.00000   0.00003   0.00003  -0.00003
   D29       -0.00041   0.00001   0.00000   0.00031   0.00031  -0.00010
   D30        3.14139   0.00000   0.00000   0.00001   0.00001   3.14140
   D31        3.14132   0.00001   0.00000   0.00021   0.00022   3.14154
   D32       -0.00006  -0.00000   0.00000  -0.00008  -0.00008  -0.00015
   D33       -0.00077   0.00003   0.00000   0.00056   0.00055  -0.00022
   D34        3.14133   0.00001   0.00000   0.00028   0.00028  -3.14158
   D35       -3.14089   0.00001   0.00000   0.00012   0.00011  -3.14078
   D36        0.00121  -0.00000   0.00000  -0.00016  -0.00016   0.00105
   D37        0.00072  -0.00002   0.00000  -0.00053  -0.00053   0.00019
   D38       -3.14144  -0.00001   0.00000  -0.00023  -0.00023   3.14152
   D39       -3.14107  -0.00001   0.00000  -0.00024  -0.00023  -3.14131
   D40       -0.00005   0.00000   0.00000   0.00007   0.00007   0.00002
         Item               Value     Threshold  Converged?
 Maximum Force            0.049597     0.000450     NO 
 RMS     Force            0.009790     0.000300     NO 
 Maximum Displacement     0.109008     0.001800     NO 
 RMS     Displacement     0.030090     0.001200     NO 
 Predicted change in Energy=-9.247022D-03
 GradGradGradGradGradGradGradGradGradGradGradGradGradGradGradGradGradGrad

                          Input orientation:                          
 ---------------------------------------------------------------------
 Center     Atomic      Atomic             Coordinates (Angstroms)
 Number     Number       Type             X           Y           Z
 ---------------------------------------------------------------------
      1          6           0       -2.190878    0.683759    0.000023
      2          6           0       -2.163550   -0.705508    0.000018
      3          6           0       -0.919926   -1.425395    0.000040
      4          6           0        0.250755   -0.653719    0.000025
      5          6           0        0.245499    0.751897    0.000037
      6          6           0       -0.995421    1.451368    0.000055
      7          7           0        1.584373   -1.056506   -0.000088
      8          6           0        1.622370    1.151515   -0.000022
      9          6           0        2.436647    0.002660    0.000060
     10          1           0        1.889378   -2.019663    0.000608
     11          1           0        1.992965    2.168154   -0.000197
     12          1           0        3.510233   -0.123162   -0.000010
     13          1           0       -3.101364   -1.253464   -0.000023
     14          1           0       -0.887984   -2.511903   -0.000032
     15          1           0       -3.152455    1.189426   -0.000011
     16          1           0       -1.023740    2.537987    0.000052
 ---------------------------------------------------------------------
                    Distance matrix (angstroms):
                    1          2          3          4          5
     1  C    0.000000
     2  C    1.389536   0.000000
     3  C    2.462489   1.436954   0.000000
     4  C    2.783958   2.414860   1.402133   0.000000
     5  C    2.437330   2.815590   2.469579   1.405627   0.000000
     6  C    1.420683   2.452884   2.877754   2.446293   1.424480
     7  N    4.157047   3.764322   2.531322   1.393117   2.250090
     8  C    3.841829   4.216837   3.619907   2.267200   1.433689
     9  C    4.677380   4.654386   3.647728   2.282314   2.315704
    10  H    4.894587   4.260661   2.871471   2.133281   3.222403
    11  H    4.439366   5.053172   4.625854   3.316363   2.249315
    12  H    5.757933   5.703590   4.617588   3.302376   3.379973
    13  H    2.140518   1.086164   2.188204   3.405348   3.901663
    14  H    3.451056   2.211364   1.086977   2.179352   3.455022
    15  H    1.086430   2.137454   3.438237   3.870274   3.426007
    16  H    2.190976   3.437939   3.964742   3.436761   2.191138
                    6          7          8          9         10
     6  C    0.000000
     7  N    3.597884   0.000000
     8  C    2.634908   2.208348   0.000000
     9  C    3.725298   1.359486   1.408160   0.000000
    10  H    4.513328   1.010297   3.182398   2.095064   0.000000
    11  H    3.073147   3.250443   1.082080   2.210479   4.189098
    12  H    4.772847   2.140110   2.277900   1.080934   2.494772
    13  H    3.427990   4.689875   5.300715   5.678681   5.049215
    14  H    3.964728   2.868924   4.441002   4.168476   2.820646
    15  H    2.172880   5.242304   4.774975   5.713709   5.976482
    16  H    1.086988   4.441017   2.987340   4.289774   5.409106
                   11         12         13         14         15
    11  H    0.000000
    12  H    2.748133   0.000000
    13  H    6.136747   6.707519   0.000000
    14  H    5.495708   5.005037   2.546119   0.000000
    15  H    5.237676   6.790751   2.443424   4.339086   0.000000
    16  H    3.039290   5.257245   4.323381   5.051715   2.519930
                   16
    16  H    0.000000
 Stoichiometry    C8H7N
 Framework group  C1[X(C8H7N)]
 Deg. of freedom    42
 Full point group                 C1      NOp   1
 Largest Abelian subgroup         C1      NOp   1
 Largest concise Abelian subgroup C1      NOp   1
                         Standard orientation:                         
 ---------------------------------------------------------------------
 Center     Atomic      Atomic             Coordinates (Angstroms)
 Number     Number       Type             X           Y           Z
 ---------------------------------------------------------------------
      1          6           0       -2.198806    0.657265    0.000004
      2          6           0       -2.156052   -0.731612   -0.000001
      3          6           0       -0.904511   -1.437646    0.000021
      4          6           0        0.257528   -0.653017    0.000006
      5          6           0        0.236665    0.752454    0.000018
      6          6           0       -1.011947    1.438102    0.000036
      7          7           0        1.595537   -1.040970   -0.000108
      8          6           0        1.609012    1.167336   -0.000041
      9          6           0        2.435997    0.027594    0.000041
     10          1           0        1.911219   -2.000681    0.000589
     11          1           0        1.968295    2.188028   -0.000216
     12          1           0        3.510914   -0.086298   -0.000029
     13          1           0       -3.087724   -1.289949   -0.000042
     14          1           0       -0.860506   -2.523732   -0.000051
     15          1           0       -3.165939    1.152223   -0.000030
     16          1           0       -1.052330    2.524340    0.000033
 ---------------------------------------------------------------------
 Rotational constants (GHZ):           3.9056792           1.5948883           1.1324508
 Standard basis: 6-31+G(d) (6D, 7F)
 There are   185 symmetry adapted cartesian basis functions of A   symmetry.
 There are   185 symmetry adapted basis functions of A   symmetry.
   185 basis functions,   316 primitive gaussians,   185 cartesian basis functions
    31 alpha electrons       31 beta electrons
       nuclear repulsion energy       397.8508982569 Hartrees.
 NAtoms=   16 NActive=   16 NUniq=   16 SFac= 1.00D+00 NAtFMM=   60 NAOKFM=F Big=F
 Integral buffers will be    131072 words long.
 Regular integral format.
 Two-electron integral symmetry is turned on.
 One-electron integrals computed using PRISM.
 NBasis=   185 RedAO= T EigKep=  1.31D-06  NBF=   185
 NBsUse=   185 1.00D-06 EigRej= -1.00D+00 NBFU=   185
 Initial guess from the checkpoint file:  "FuncsHSEH1PBE-V-1st.chk"
 B after Tr=     0.000000   -0.000000    0.000000
         Rot=    0.999984    0.000005    0.000005   -0.005598 Ang=   0.64 deg.
 ExpMin= 4.38D-02 ExpMax= 4.17D+03 ExpMxC= 6.27D+02 IAcc=3 IRadAn=         5 AccDes= 0.00D+00
 Harris functional with IExCor= 1009 and IRadAn=       5 diagonalized for initial guess.
 HarFok:  IExCor= 1009 AccDes= 0.00D+00 IRadAn=         5 IDoV= 1 UseB2=F ITyADJ=14
 ICtDFT=  3500011 ScaDFX=  1.000000  1.000000  1.000000  1.000000
 FoFCou: FMM=F IPFlag=           0 FMFlag=      100000 FMFlg1=           0
         NFxFlg=           0 DoJE=T BraDBF=F KetDBF=T FulRan=T
         wScrn=  0.000000 ICntrl=       500 IOpCl=  0 I1Cent=   200000004 NGrid=           0
         NMat0=    1 NMatS0=      1 NMatT0=    0 NMatD0=    1 NMtDS0=    0 NMtDT0=    0
 Petite list used in FoFCou.
 Keep R1 ints in memory in canonical form, NReq=303303409.
 Requested convergence on RMS density matrix=1.00D-08 within 128 cycles.
 Requested convergence on MAX density matrix=1.00D-06.
 Requested convergence on             energy=1.00D-06.
 No special actions if energy rises.
 SCF Done:  E(RHSEH1PBE) =  -363.426882571     A.U. after   13 cycles
            NFock= 13  Conv=0.42D-08     -V/T= 2.0099
 DoSCS=F DFT=T ScalE2(SS,OS)=  1.000000  1.000000
 ExpMin= 4.38D-02 ExpMax= 4.17D+03 ExpMxC= 6.27D+02 IAcc=3 IRadAn=         5 AccDes= 0.00D+00
 HarFok:  IExCor=  205 AccDes= 0.00D+00 IRadAn=         5 IDoV=-2 UseB2=F ITyADJ=14
 ICtDFT= 12500011 ScaDFX=  1.000000  1.000000  1.000000  1.000000
 Range of M.O.s used for correlation:    10   185
 NBasis=   185 NAE=    31 NBE=    31 NFC=     9 NFV=     0
 NROrb=    176 NOA=    22 NOB=    22 NVA=   154 NVB=   154

 **** Warning!!: The largest alpha MO coefficient is  0.18530985D+03

 Orbital symmetries:
       Occupied  (A) (A) (A) (A) (A) (A) (A) (A) (A) (A) (A) (A)
                 (A) (A) (A) (A) (A) (A) (A) (A) (A) (A) (A) (A)
                 (A) (A) (A) (A) (A) (A) (A)
       Virtual   (A) (A) (A) (A) (A) (A) (A) (A) (A) (A) (A) (A)
                 (A) (A) (A) (A) (A) (A) (A) (A) (A) (A) (A) (A)
                 (A) (A) (A) (A) (A) (A) (A) (A) (A) (A) (A) (A)
                 (A) (A) (A) (A) (A) (A) (A) (A) (A) (A) (A) (A)
                 (A) (A) (A) (A) (A) (A) (A) (A) (A) (A) (A) (A)
                 (A) (A) (A) (A) (A) (A) (A) (A) (A) (A) (A) (A)
                 (A) (A) (A) (A) (A) (A) (A) (A) (A) (A) (A) (A)
                 (A) (A) (A) (A) (A) (A) (A) (A) (A) (A) (A) (A)
                 (A) (A) (A) (A) (A) (A) (A) (A) (A) (A) (A) (A)
                 (A) (A) (A) (A) (A) (A) (A) (A) (A) (A) (A) (A)
                 (A) (A) (A) (A) (A) (A) (A) (A) (A) (A) (A) (A)
                 (A) (A) (A) (A) (A) (A) (A) (A) (A) (A) (A) (A)
                 (A) (A) (A) (A) (A) (A) (A) (A) (A) (A)
 Generating guess from densities on rwf.
 Convergence on wavefunction:    0.000001000000000
 Iteration     1 Dimension    12 NMult     0 NNew     12
 CISAX will form    12 AO SS matrices at one time.
 New state      4 was old state      5
 New state      5 was old state      4
 Iteration     2 Dimension    24 NMult    12 NNew     12
 New state      2 was old state      3
 New state      3 was old state      2
 Iteration     3 Dimension    36 NMult    24 NNew     12
 Iteration     4 Dimension    48 NMult    36 NNew     12
 Iteration     5 Dimension    60 NMult    48 NNew     12
 Iteration     6 Dimension    72 NMult    60 NNew     12
 Iteration     7 Dimension    84 NMult    72 NNew     12
 Iteration     8 Dimension    96 NMult    84 NNew     12
 Iteration     9 Dimension   108 NMult    96 NNew     12
 Iteration    10 Dimension   120 NMult   108 NNew     12
 Iteration    11 Dimension   124 NMult   120 NNew      4
 Iteration    12 Dimension   128 NMult   124 NNew      4
 ***********************************************************************
 Excited states from <AA,BB:AA,BB> singles matrix:
 ***********************************************************************
 
 Ground to excited state transition densities written to RWF  633
 Ground to excited state transition electric dipole moments (Au):
       state          X           Y           Z        Dip. S.      Osc.
         1        -0.6924      0.6756     -0.0001      0.9358      0.1007
         2        -0.0002     -0.0005     -0.1344      0.0181      0.0021
         3        -0.3143     -0.1708      0.0002      0.1280      0.0152
         4         0.0002     -0.0000     -0.0076      0.0001      0.0000
         5         0.0002      0.0001      0.1410      0.0199      0.0027
         6        -0.0006     -0.0001     -0.1168      0.0136      0.0019
 Ground to excited state transition velocity dipole moments (Au):
       state          X           Y           Z        Dip. S.      Osc.
         1         0.1017     -0.1188      0.0000      0.0245      0.1010
         2         0.0000      0.0001      0.0156      0.0002      0.0009
         3         0.0525      0.0324     -0.0000      0.0038      0.0142
         4        -0.0000      0.0000      0.0033      0.0000      0.0000
         5        -0.0000     -0.0000     -0.0285      0.0008      0.0027
         6         0.0001      0.0000      0.0263      0.0007      0.0022
 Ground to excited state transition magnetic dipole moments (Au):
       state          X           Y           Z
         1         0.0001      0.0000      0.1653
         2         0.1297     -0.0689      0.0002
         3        -0.0003      0.0000      0.0455
         4         0.3196     -0.1412      0.0001
         5         0.0698      0.3956      0.0002
         6         0.0081     -0.1336     -0.0002
 Ground to excited state transition velocity quadrupole moments (Au):
       state          XX          YY          ZZ          XY          XZ          YZ
         1         0.1808     -0.1194      0.0118      0.0694      0.0000     -0.0000
         2        -0.0000     -0.0001      0.0001      0.0000      0.0619      0.0505
         3         0.0335     -0.0821      0.0266      0.0067     -0.0001     -0.0001
         4         0.0000     -0.0001      0.0000      0.0000      0.1679      0.2451
         5         0.0000     -0.0000      0.0000      0.0001     -0.3509     -0.0169
         6         0.0001     -0.0001     -0.0000     -0.0001      0.0668     -0.0557
 <0|del|b> * <b|rxdel|0> + <0|del|b> * <b|delr+rdel|0>
 Rotatory Strengths (R) in cgs (10**-40 erg-esu-cm/Gauss)
       state          XX          YY          ZZ    R(velocity)    E-M Angle
         1         0.0071      0.0190      0.0061      0.0107       90.00
         2        -0.0176      0.0197      0.0056      0.0026       90.00
         3         0.0060     -0.0413     -0.0222     -0.0192       90.00
         4         0.0009     -0.0330     -0.0044     -0.0122       90.00
         5        -0.0258     -0.0082     -0.0065     -0.0135       90.00
         6        -0.0163     -0.0145      0.0122     -0.0062       90.00
 1/2[<0|r|b>*<b|rxdel|0> + (<0|rxdel|b>*<b|r|0>)*]
 Rotatory Strengths (R) in cgs (10**-40 erg-esu-cm/Gauss)
       state          XX          YY          ZZ     R(length)
         1         0.0416     -0.0090      0.0075      0.0134
         2         0.0212     -0.0243      0.0172      0.0047
         3        -0.0635      0.0054     -0.0065     -0.0215
         4        -0.0415     -0.0004      0.0007     -0.0137
         5        -0.0099     -0.0221     -0.0167     -0.0162
         6         0.0036     -0.0079     -0.0126     -0.0056
  1/2[<0|del|b>*<b|r|0> + (<0|r|b>*<b|del|0>)*] (Au)
       state          X           Y           Z        Dip. S.   Osc.(frdel)
         1        -0.0704     -0.0803     -0.0000      0.1507      0.1005
         2        -0.0000     -0.0000     -0.0021      0.0021      0.0014
         3        -0.0165     -0.0055     -0.0000      0.0221      0.0147
         4        -0.0000     -0.0000     -0.0000      0.0000      0.0000
         5        -0.0000     -0.0000     -0.0040      0.0040      0.0027
         6        -0.0000     -0.0000     -0.0031      0.0031      0.0020

 Excitation energies and oscillator strengths:
 
 Excited State   1:      Singlet-A      4.3946 eV  282.13 nm  f=0.1007  <S**2>=0.000
      29 -> 32         0.10613
      30 -> 34         0.10454
      31 -> 32         0.68262
 This state for optimization and/or second-order correction.
 Total Energy, E(TD-HF/TD-DFT) =  -363.265385125    
 Copying the excited state density for this state as the 1-particle RhoCI density.
 
 Excited State   2:      Singlet-A      4.8376 eV  256.29 nm  f=0.0021  <S**2>=0.000
      31 -> 33         0.70447
 
 Excited State   3:      Singlet-A      4.8630 eV  254.95 nm  f=0.0152  <S**2>=0.000
      30 -> 32         0.55595
      31 -> 34        -0.42556
 
 Excited State   4:      Singlet-A      5.4212 eV  228.70 nm  f=0.0000  <S**2>=0.000
      31 -> 35        -0.70112
 
 Excited State   5:      Singlet-A      5.5615 eV  222.93 nm  f=0.0027  <S**2>=0.000
      31 -> 36        -0.69671
 
 Excited State   6:      Singlet-A      5.7283 eV  216.44 nm  f=0.0019  <S**2>=0.000
      30 -> 33         0.69700
 SavETr:  write IOETrn=   770 NScale= 10 NData=  16 NLR=1 NState=    6 LETran=     118.
          IDoAtm=1111111111111111
          Differentiating once with respect to electric field.
                with respect to dipole field.
          Differentiating once with respect to nuclear coordinates.
 Keep R1 ints in memory in canonical form, NReq=303315801.
          There are     1 degrees of freedom in the 1st order CPHF.  IDoFFX=0 NUNeed=     1.
 LinEq1:  Iter=  0 NonCon=     1 RMS=1.52D-02 Max=4.94D-01 NDo=     1
 AX will form     1 AO Fock derivatives at one time.
 LinEq1:  Iter=  1 NonCon=     1 RMS=6.18D-03 Max=1.31D-01 NDo=     1
 LinEq1:  Iter=  2 NonCon=     1 RMS=5.72D-03 Max=1.99D-01 NDo=     1
 LinEq1:  Iter=  3 NonCon=     1 RMS=2.37D-03 Max=5.96D-02 NDo=     1
 LinEq1:  Iter=  4 NonCon=     1 RMS=2.05D-03 Max=6.58D-02 NDo=     1
 LinEq1:  Iter=  5 NonCon=     1 RMS=9.34D-04 Max=2.32D-02 NDo=     1
 LinEq1:  Iter=  6 NonCon=     1 RMS=5.65D-04 Max=1.45D-02 NDo=     1
 LinEq1:  Iter=  7 NonCon=     1 RMS=2.79D-04 Max=7.83D-03 NDo=     1
 LinEq1:  Iter=  8 NonCon=     1 RMS=1.62D-04 Max=3.67D-03 NDo=     1
 LinEq1:  Iter=  9 NonCon=     1 RMS=9.72D-05 Max=2.13D-03 NDo=     1
 LinEq1:  Iter= 10 NonCon=     1 RMS=3.88D-05 Max=6.64D-04 NDo=     1
 LinEq1:  Iter= 11 NonCon=     1 RMS=2.45D-05 Max=4.03D-04 NDo=     1
 LinEq1:  Iter= 12 NonCon=     1 RMS=9.70D-06 Max=1.92D-04 NDo=     1
 LinEq1:  Iter= 13 NonCon=     1 RMS=4.95D-06 Max=1.16D-04 NDo=     1
 LinEq1:  Iter= 14 NonCon=     1 RMS=1.83D-06 Max=2.26D-05 NDo=     1
 LinEq1:  Iter= 15 NonCon=     1 RMS=2.74D-07 Max=3.59D-06 NDo=     1
 LinEq1:  Iter= 16 NonCon=     1 RMS=1.44D-07 Max=3.46D-06 NDo=     1
 LinEq1:  Iter= 17 NonCon=     1 RMS=5.95D-08 Max=7.64D-07 NDo=     1
 LinEq1:  Iter= 18 NonCon=     1 RMS=1.04D-08 Max=1.90D-07 NDo=     1
 LinEq1:  Iter= 19 NonCon=     1 RMS=1.70D-09 Max=1.78D-08 NDo=     1
 LinEq1:  Iter= 20 NonCon=     1 RMS=3.43D-10 Max=6.96D-09 NDo=     1
 LinEq1:  Iter= 21 NonCon=     1 RMS=9.50D-11 Max=1.45D-09 NDo=     1
 LinEq1:  Iter= 22 NonCon=     0 RMS=3.13D-11 Max=4.92D-10 NDo=     1
 Linear equations converged to 1.000D-10 1.000D-09 after    22 iterations.
 End of Minotr F.D. properties file   721 does not exist.
 End of Minotr F.D. properties file   722 does not exist.
 End of Minotr F.D. properties file   788 does not exist.
 Calling FoFJK, ICntrl=  10005127 FMM=F ISym2X=0 I1Cent= 0 IOpClX= 0 NMat=1 NMatS=1 NMatT=0.
 ***** Axes restored to original set *****
 -------------------------------------------------------------------
 Center     Atomic                   Forces (Hartrees/Bohr)
 Number     Number              X              Y              Z
 -------------------------------------------------------------------
      1        6          -0.000730090   -0.011161697   -0.000001406
      2        6          -0.001552992    0.012919417    0.000000472
      3        6           0.006473866   -0.011439687    0.000002586
      4        6          -0.009162812    0.010171560   -0.000003659
      5        6           0.004726410   -0.008193795   -0.000004905
      6        6           0.003190918    0.009329966   -0.000001029
      7        7           0.013113012    0.005920460    0.000031228
      8        6          -0.012357950    0.012823318   -0.000004479
      9        6          -0.002729726   -0.020067462   -0.000012667
     10        1          -0.000775145   -0.001117494   -0.000013639
     11        1           0.000753124    0.000534423    0.000003483
     12        1          -0.001098930    0.000800412    0.000002985
     13        1           0.000820527   -0.001331354    0.000000468
     14        1          -0.001033670    0.000955431   -0.000001581
     15        1           0.000436191    0.000979846    0.000000304
     16        1          -0.000072734   -0.001123344    0.000001840
 -------------------------------------------------------------------
 Cartesian Forces:  Max     0.020067462 RMS     0.006101661

 GradGradGradGradGradGradGradGradGradGradGradGradGradGradGradGradGradGrad
 Berny optimization.
 Using GEDIIS/GDIIS optimizer.
 FormGI is forming the generalized inverse of G from B-inverse, IUseBI=4.
 Internal  Forces:  Max     0.011895073 RMS     0.002604101
 Search for a local minimum.
 Step number   2 out of a maximum of   94
 All quantities printed in internal units (Hartrees-Bohrs-Radians)
 Mixed Optimization -- RFO/linear search
 Update second derivatives using D2CorX and points    1    2
 DE= -9.96D-03 DEPred=-9.25D-03 R= 1.08D+00
 TightC=F SS=  1.41D+00  RLast= 2.06D-01 DXNew= 5.0454D-01 6.1791D-01
 Trust test= 1.08D+00 RLast= 2.06D-01 DXMaxT set to 5.05D-01
 ITU=  1  0
 Use linear search instead of GDIIS.
     Eigenvalues ---    0.01852   0.01931   0.01986   0.02011   0.02069
     Eigenvalues ---    0.02113   0.02146   0.02150   0.02172   0.02210
     Eigenvalues ---    0.02234   0.02248   0.02341   0.15956   0.16000
     Eigenvalues ---    0.16000   0.16000   0.16000   0.16000   0.16023
     Eigenvalues ---    0.20524   0.22006   0.23950   0.24547   0.24761
     Eigenvalues ---    0.35635   0.35714   0.35787   0.35845   0.36096
     Eigenvalues ---    0.36473   0.36575   0.38652   0.40325   0.42779
     Eigenvalues ---    0.43940   0.46028   0.47050   0.47169   0.47665
     Eigenvalues ---    0.49026   0.53053
 RFO step:  Lambda=-1.69353138D-03 EMin= 1.85222445D-02
 Quartic linear search produced a step of  0.14815.
 Iteration  1 RMS(Cart)=  0.00980139 RMS(Int)=  0.00006346
 Iteration  2 RMS(Cart)=  0.00010956 RMS(Int)=  0.00001857
 Iteration  3 RMS(Cart)=  0.00000000 RMS(Int)=  0.00001857
 Variable       Old X    -DE/DX   Delta X   Delta X   Delta X     New X
                                 (Linear)    (Quad)   (Total)
    R1        2.62584  -0.00556  -0.00439  -0.01268  -0.01709   2.60875
    R2        2.68470   0.00258   0.01064   0.00205   0.01267   2.69737
    R3        2.05305   0.00007   0.00131  -0.00027   0.00104   2.05409
    R4        2.71545   0.00382   0.01480   0.00350   0.01830   2.73375
    R5        2.05255  -0.00004   0.00125  -0.00059   0.00066   2.05321
    R6        2.64965  -0.00132   0.00236  -0.00402  -0.00164   2.64801
    R7        2.05409  -0.00099   0.00130  -0.00364  -0.00235   2.05174
    R8        2.65625  -0.00255  -0.00360  -0.00568  -0.00927   2.64698
    R9        2.63261   0.00463   0.00464   0.00817   0.01284   2.64545
   R10        2.69188  -0.00086   0.00654  -0.00458   0.00197   2.69385
   R11        2.70928  -0.00613   0.00013  -0.01658  -0.01649   2.69279
   R12        2.05411  -0.00112   0.00131  -0.00408  -0.00277   2.05134
   R13        2.56906  -0.01151  -0.00543  -0.02490  -0.03030   2.53876
   R14        1.90918   0.00083   0.00204   0.00126   0.00330   1.91248
   R15        2.66104   0.01190   0.01220   0.02226   0.03444   2.69548
   R16        2.04483   0.00076   0.00158   0.00179   0.00336   2.04820
   R17        2.04267  -0.00118   0.00124  -0.00419  -0.00295   2.03972
    A1        2.12193   0.00185   0.00115   0.00925   0.01035   2.13228
    A2        2.07460   0.00017  -0.00078   0.00326   0.00250   2.07710
    A3        2.08666  -0.00202  -0.00037  -0.01251  -0.01285   2.07381
    A4        2.11520   0.00271  -0.00000   0.01428   0.01424   2.12944
    A5        2.07992   0.00025  -0.00055   0.00449   0.00395   2.08387
    A6        2.08807  -0.00296   0.00056  -0.01877  -0.01819   2.06988
    A7        2.03407  -0.00550  -0.00257  -0.02680  -0.02935   2.00472
    A8        2.12492   0.00172   0.00182   0.00585   0.00766   2.13258
    A9        2.12420   0.00378   0.00076   0.02094   0.02169   2.14589
   A10        2.14985   0.00320   0.00237   0.01527   0.01767   2.16752
   A11        2.26548  -0.00397  -0.00200  -0.01699  -0.01902   2.24646
   A12        1.86785   0.00077  -0.00037   0.00172   0.00135   1.86920
   A13        2.08781   0.00207   0.00223   0.00878   0.01106   2.09887
   A14        1.84953   0.00163  -0.00232   0.00909   0.00671   1.85625
   A15        2.34584  -0.00371   0.00008  -0.01787  -0.01777   2.32807
   A16        2.05751  -0.00434  -0.00316  -0.02078  -0.02397   2.03354
   A17        2.11555   0.00207   0.00185   0.00953   0.01139   2.12694
   A18        2.11013   0.00228   0.00132   0.01125   0.01258   2.12271
   A19        1.95506  -0.00087   0.00706  -0.00893  -0.00181   1.95325
   A20        2.17079  -0.00059  -0.00288  -0.00310  -0.00601   2.16478
   A21        2.15733   0.00146  -0.00418   0.01203   0.00782   2.16515
   A22        1.90491  -0.00317   0.00522  -0.01537  -0.01019   1.89472
   A23        2.20283   0.00212  -0.00212   0.01129   0.00918   2.21201
   A24        2.17544   0.00105  -0.00309   0.00408   0.00101   2.17645
   A25        1.84742   0.00163  -0.00959   0.01349   0.00393   1.85135
   A26        2.13171  -0.00013   0.00433  -0.00171   0.00260   2.13431
   A27        2.30405  -0.00150   0.00526  -0.01178  -0.00653   2.29752
    D1       -0.00000   0.00000   0.00000   0.00001   0.00001   0.00000
    D2       -3.14158  -0.00000  -0.00000  -0.00000  -0.00001  -3.14158
    D3        3.14158   0.00000   0.00001   0.00002   0.00003  -3.14158
    D4        0.00000   0.00000   0.00000   0.00001   0.00001   0.00002
    D5        0.00004   0.00000   0.00001   0.00000   0.00001   0.00005
    D6        3.14159   0.00000   0.00001   0.00003   0.00004  -3.14156
    D7       -3.14154  -0.00000   0.00000  -0.00001  -0.00001  -3.14155
    D8        0.00001   0.00000   0.00000   0.00002   0.00002   0.00003
    D9       -0.00003   0.00000  -0.00001   0.00001   0.00000  -0.00003
   D10       -3.14152   0.00000   0.00000   0.00001   0.00001  -3.14150
   D11        3.14154   0.00000  -0.00001   0.00002   0.00002   3.14156
   D12        0.00005   0.00000   0.00001   0.00002   0.00003   0.00008
   D13        0.00004  -0.00000   0.00001  -0.00004  -0.00003   0.00000
   D14       -3.14147  -0.00000  -0.00001  -0.00005  -0.00005  -3.14152
   D15        3.14153  -0.00000  -0.00001  -0.00004  -0.00005   3.14148
   D16        0.00001  -0.00000  -0.00002  -0.00005  -0.00006  -0.00005
   D17       -0.00001   0.00000   0.00000   0.00005   0.00006   0.00005
   D18       -3.14157   0.00000  -0.00001   0.00003   0.00002  -3.14154
   D19        3.14152   0.00000   0.00001   0.00005   0.00007   3.14159
   D20       -0.00004   0.00000   0.00000   0.00003   0.00003  -0.00000
   D21       -3.14150  -0.00000  -0.00004  -0.00007  -0.00011   3.14158
   D22       -0.00095   0.00001   0.00003   0.00028   0.00030  -0.00065
   D23        0.00017  -0.00000  -0.00005  -0.00007  -0.00013   0.00004
   D24        3.14072   0.00001   0.00002   0.00027   0.00028   3.14100
   D25       -0.00003  -0.00000  -0.00001  -0.00003  -0.00004  -0.00007
   D26       -3.14158  -0.00000  -0.00001  -0.00006  -0.00007   3.14153
   D27        3.14152  -0.00000   0.00000  -0.00000   0.00000   3.14152
   D28       -0.00003  -0.00000   0.00000  -0.00003  -0.00003  -0.00006
   D29       -0.00010   0.00000   0.00005   0.00002   0.00006  -0.00003
   D30        3.14140   0.00000   0.00000   0.00008   0.00008   3.14148
   D31        3.14154   0.00000   0.00003  -0.00001   0.00002   3.14156
   D32       -0.00015   0.00000  -0.00001   0.00005   0.00004  -0.00011
   D33       -0.00022   0.00000   0.00008   0.00008   0.00016  -0.00006
   D34       -3.14158   0.00000   0.00004   0.00001   0.00005  -3.14153
   D35       -3.14078  -0.00000   0.00002  -0.00025  -0.00024  -3.14102
   D36        0.00105  -0.00001  -0.00002  -0.00033  -0.00035   0.00069
   D37        0.00019  -0.00000  -0.00008  -0.00006  -0.00014   0.00006
   D38        3.14152   0.00000  -0.00003   0.00003  -0.00000   3.14151
   D39       -3.14131  -0.00000  -0.00003  -0.00012  -0.00015  -3.14146
   D40        0.00002   0.00000   0.00001  -0.00003  -0.00002  -0.00000
         Item               Value     Threshold  Converged?
 Maximum Force            0.011895     0.000450     NO 
 RMS     Force            0.002604     0.000300     NO 
 Maximum Displacement     0.029218     0.001800     NO 
 RMS     Displacement     0.009861     0.001200     NO 
 Predicted change in Energy=-1.014255D-03
 GradGradGradGradGradGradGradGradGradGradGradGradGradGradGradGradGradGrad

                          Input orientation:                          
 ---------------------------------------------------------------------
 Center     Atomic      Atomic             Coordinates (Angstroms)
 Number     Number       Type             X           Y           Z
 ---------------------------------------------------------------------
      1          6           0       -2.183347    0.680915    0.000001
      2          6           0       -2.153537   -0.699254    0.000009
      3          6           0       -0.910556   -1.439358    0.000059
      4          6           0        0.246096   -0.648344    0.000062
      5          6           0        0.241751    0.752370    0.000024
      6          6           0       -0.991806    1.466830    0.000040
      7          7           0        1.585411   -1.055763    0.000028
      8          6           0        1.607802    1.157864   -0.000026
      9          6           0        2.427825   -0.009244    0.000024
     10          1           0        1.883214   -2.022996    0.000538
     11          1           0        1.982167    2.175020   -0.000159
     12          1           0        3.500164   -0.132289   -0.000056
     13          1           0       -3.088416   -1.252889   -0.000031
     14          1           0       -0.883707   -2.524762   -0.000016
[...]
 ! D9    D(1,2,3,4)              0.0            -DE/DX =    0.0                 !
 ! D10   D(1,2,3,14)          -179.9953         -DE/DX =    0.0                 !
 ! D11   D(13,2,3,4)           179.9999         -DE/DX =    0.0                 !
 ! D12   D(13,2,3,14)            0.0045         -DE/DX =    0.0                 !
 ! D13   D(2,3,4,5)             -0.0003         -DE/DX =    0.0                 !
 ! D14   D(2,3,4,7)           -179.9986         -DE/DX =    0.0                 !
 ! D15   D(14,3,4,5)           179.995          -DE/DX =    0.0                 !
 ! D16   D(14,3,4,7)            -0.0033         -DE/DX =    0.0                 !
 ! D17   D(3,4,5,6)              0.0006         -DE/DX =    0.0                 !
 ! D18   D(3,4,5,8)           -179.9983         -DE/DX =    0.0                 !
 ! D19   D(7,4,5,6)            179.9991         -DE/DX =    0.0                 !
 ! D20   D(7,4,5,8)              0.0003         -DE/DX =    0.0                 !
 ! D21   D(3,4,7,9)            180.0012         -DE/DX =    0.0                 !
 ! D22   D(3,4,7,10)            -0.0068         -DE/DX =    0.0                 !
 ! D23   D(5,4,7,9)              0.0027         -DE/DX =    0.0                 !
 ! D24   D(5,4,7,10)           179.9947         -DE/DX =    0.0                 !
 ! D25   D(4,5,6,1)             -0.0005         -DE/DX =    0.0                 !
 ! D26   D(4,5,6,16)           179.9982         -DE/DX =    0.0                 !
 ! D27   D(8,5,6,1)            179.998          -DE/DX =    0.0                 !
 ! D28   D(8,5,6,16)            -0.0033         -DE/DX =    0.0                 !
 ! D29   D(4,5,8,9)             -0.003          -DE/DX =    0.0                 !
 ! D30   D(4,5,8,11)           179.9989         -DE/DX =    0.0                 !
 ! D31   D(6,5,8,9)           -180.0016         -DE/DX =    0.0                 !
 ! D32   D(6,5,8,11)             0.0003         -DE/DX =    0.0                 !
 ! D33   D(4,7,9,8)             -0.0045         -DE/DX =    0.0                 !
 ! D34   D(4,7,9,12)          -180.0019         -DE/DX =    0.0                 !
 ! D35   D(10,7,9,8)          -179.9964         -DE/DX =    0.0                 !
 ! D36   D(10,7,9,12)            0.0062         -DE/DX =    0.0                 !
 ! D37   D(5,8,9,7)              0.0046         -DE/DX =    0.0                 !
 ! D38   D(5,8,9,12)           180.0016         -DE/DX =    0.0                 !
 ! D39   D(11,8,9,7)          -179.9972         -DE/DX =    0.0                 !
 ! D40   D(11,8,9,12)           -0.0002         -DE/DX =    0.0                 !
 --------------------------------------------------------------------------------
 GradGradGradGradGradGradGradGradGradGradGradGradGradGradGradGradGradGrad

                          Input orientation:                          
 ---------------------------------------------------------------------
 Center     Atomic      Atomic             Coordinates (Angstroms)
 Number     Number       Type             X           Y           Z
 ---------------------------------------------------------------------
      1          6           0       -2.179519    0.683797   -0.000007
      2          6           0       -2.146864   -0.698568    0.000048
      3          6           0       -0.913881   -1.446178    0.000089
      4          6           0        0.242481   -0.650105    0.000070
      5          6           0        0.238378    0.747391    0.000010
      6          6           0       -0.990230    1.469366   -0.000025
      7          7           0        1.590135   -1.056716    0.000072
      8          6           0        1.603661    1.158671   -0.000030
      9          6           0        2.424325   -0.010553    0.000077
     10          1           0        1.884338   -2.023901    0.000188
     11          1           0        1.982076    2.172994   -0.000097
     12          1           0        3.498882   -0.118369    0.000108
     13          1           0       -3.083267   -1.250769    0.000057
     14          1           0       -0.895142   -2.529944    0.000056
     15          1           0       -3.142899    1.186971   -0.000037
     16          1           0       -1.015572    2.553358   -0.000043
 ---------------------------------------------------------------------
                    Distance matrix (angstroms):
                    1          2          3          4          5
     1  C    0.000000
     2  C    1.382751   0.000000
     3  C    2.477626   1.441932   0.000000
     4  C    2.765027   2.389836   1.403889   0.000000
     5  C    2.418733   2.789297   2.477791   1.397502   0.000000
     6  C    1.425317   2.457182   2.916543   2.451883   1.425035
     7  N    4.152068   3.754122   2.534122   1.407659   2.254340
     8  C    3.812867   4.185185   3.622603   2.263732   1.425885
     9  C    4.655910   4.622676   3.633818   2.273647   2.313620
    10  H    4.883294   4.243477   2.857235   2.140797   3.223234
    11  H    4.420021   5.029316   4.635189   3.316034   2.252294
    12  H    5.734780   5.675480   4.608205   3.299529   3.373488
    13  H    2.135253   1.087095   2.178169   3.379555   3.876335
    14  H    3.460889   2.218276   1.083929   2.197267   3.467823
    15  H    1.086870   2.132451   3.449927   3.851707   3.409731
    16  H    2.202279   3.443087   4.000828   3.441637   2.198615
                    6          7          8          9         10
     6  C    0.000000
     7  N    3.611007   0.000000
     8  C    2.612432   2.215428   0.000000
     9  C    3.721470   1.338032   1.428486   0.000000
    10  H    4.523942   1.010941   3.194924   2.084504   0.000000
    11  H    3.054455   3.253405   1.082613   2.227883   4.198033
    12  H    4.761620   2.126925   2.285321   1.079953   2.497560
    13  H    3.432192   4.677429   5.269980   5.645503   5.027408
    14  H    4.000440   2.889118   4.455323   4.167276   2.825170
    15  H    2.171113   5.237914   4.746644   5.694562   5.965133
    16  H    1.084288   4.452228   2.967411   4.290282   5.418558
                   11         12         13         14         15
    11  H    0.000000
    12  H    2.747916   0.000000
    13  H    6.113907   6.678848   0.000000
    14  H    5.513258   5.012299   2.534597   0.000000
    15  H    5.218967   6.768838   2.438470   4.343717   0.000000
    16  H    3.021683   5.245800   4.329751   5.084729   2.528346
                   16
    16  H    0.000000
 Stoichiometry    C8H7N
 Framework group  C1[X(C8H7N)]
 Deg. of freedom    42
 Full point group                 C1      NOp   1
 Largest Abelian subgroup         C1      NOp   1
 Largest concise Abelian subgroup C1      NOp   1
                         Standard orientation:                         
 ---------------------------------------------------------------------
 Center     Atomic      Atomic             Coordinates (Angstroms)
 Number     Number       Type             X           Y           Z
 ---------------------------------------------------------------------
      1          6           0       -2.190111    0.648695   -0.000041
      2          6           0       -2.136440   -0.733014    0.000013
      3          6           0       -0.892232   -1.461789    0.000055
      4          6           0        0.251891   -0.648225    0.000036
      5          6           0        0.226540    0.749047   -0.000024
      6          6           0       -1.012904    1.452257   -0.000060
      7          7           0        1.605572   -1.034297    0.000038
      8          6           0        1.585411    1.181040   -0.000065
      9          6           0        2.423758    0.024429    0.000043
     10          1           0        1.914448   -1.996896    0.000154
     11          1           0        1.948359    2.200999   -0.000131
     12          1           0        3.499831   -0.067035    0.000074
     13          1           0       -3.064338   -1.299389    0.000023
     14          1           0       -0.857016   -2.545145    0.000022
     15          1           0       -3.161031    1.137163   -0.000071
     16          1           0       -1.054726    2.535738   -0.000078
 ---------------------------------------------------------------------
 Rotational constants (GHZ):           3.8617543           1.6116247           1.1370853

 **********************************************************************

            Population analysis using the CI Density.

 **********************************************************************

 Orbital symmetries:
       Occupied  (A) (A) (A) (A) (A) (A) (A) (A) (A) (A) (A) (A)
                 (A) (A) (A) (A) (A) (A) (A) (A) (A) (A) (A) (A)
                 (A) (A) (A) (A) (A) (A) (A)
       Virtual   (A) (A) (A) (A) (A) (A) (A) (A) (A) (A) (A) (A)
                 (A) (A) (A) (A) (A) (A) (A) (A) (A) (A) (A) (A)
                 (A) (A) (A) (A) (A) (A) (A) (A) (A) (A) (A) (A)
                 (A) (A) (A) (A) (A) (A) (A) (A) (A) (A) (A) (A)
                 (A) (A) (A) (A) (A) (A) (A) (A) (A) (A) (A) (A)
                 (A) (A) (A) (A) (A) (A) (A) (A) (A) (A) (A) (A)
                 (A) (A) (A) (A) (A) (A) (A) (A) (A) (A) (A) (A)
                 (A) (A) (A) (A) (A) (A) (A) (A) (A) (A) (A) (A)
                 (A) (A) (A) (A) (A) (A) (A) (A) (A) (A) (A) (A)
                 (A) (A) (A) (A) (A) (A) (A) (A) (A) (A) (A) (A)
                 (A) (A) (A) (A) (A) (A) (A) (A) (A) (A) (A) (A)
                 (A) (A) (A) (A) (A) (A) (A) (A) (A) (A) (A) (A)
                 (A) (A) (A) (A) (A) (A) (A) (A) (A) (A)
 The electronic state is 1-A.
 Alpha  occ. eigenvalues --  -14.43937 -10.26330 -10.25945 -10.23615 -10.22921
 Alpha  occ. eigenvalues --  -10.22561 -10.22458 -10.22152 -10.21365  -0.99999
 Alpha  occ. eigenvalues --   -0.84846  -0.78453  -0.74867  -0.71587  -0.63423
 Alpha  occ. eigenvalues --   -0.59950  -0.58109  -0.54400  -0.48509  -0.47367
 Alpha  occ. eigenvalues --   -0.43850  -0.43300  -0.42405  -0.40195  -0.39155
 Alpha  occ. eigenvalues --   -0.34915  -0.34248  -0.33383  -0.27036  -0.23003
 Alpha  occ. eigenvalues --   -0.19191
 Alpha virt. eigenvalues --   -0.03696  -0.00639   0.01130   0.01311   0.01998
 Alpha virt. eigenvalues --    0.03425   0.03571   0.03600   0.05456   0.05715
 Alpha virt. eigenvalues --    0.06316   0.06370   0.08187   0.08405   0.10268
 Alpha virt. eigenvalues --    0.10527   0.10702   0.12358   0.13032   0.13437
 Alpha virt. eigenvalues --    0.15026   0.15176   0.16235   0.16264   0.17166
 Alpha virt. eigenvalues --    0.17482   0.18295   0.18387   0.19322   0.19418
 Alpha virt. eigenvalues --    0.19840   0.19934   0.21453   0.21799   0.22867
 Alpha virt. eigenvalues --    0.23094   0.23330   0.24090   0.24914   0.25750
 Alpha virt. eigenvalues --    0.26678   0.27010   0.27632   0.28686   0.29537
 Alpha virt. eigenvalues --    0.30038   0.31339   0.33008   0.34724   0.35013
 Alpha virt. eigenvalues --    0.36361   0.38932   0.41940   0.44784   0.50505
 Alpha virt. eigenvalues --    0.57424   0.60442   0.66862   0.67416   0.69940
 Alpha virt. eigenvalues --    0.71711   0.72448   0.72875   0.73502   0.73511
 Alpha virt. eigenvalues --    0.75612   0.75956   0.77518   0.78866   0.79255
 Alpha virt. eigenvalues --    0.80879   0.85253   0.88859   0.89428   0.90471
 Alpha virt. eigenvalues --    0.94036   0.94687   0.95430   0.95957   0.98389
 Alpha virt. eigenvalues --    0.99967   1.02887   1.04593   1.06055   1.08718
 Alpha virt. eigenvalues --    1.11263   1.12330   1.16960   1.17429   1.20703
 Alpha virt. eigenvalues --    1.22245   1.23171   1.24369   1.31346   1.31604
 Alpha virt. eigenvalues --    1.34154   1.35918   1.39703   1.39883   1.43611
 Alpha virt. eigenvalues --    1.46429   1.47093   1.48467   1.49477   1.54181
 Alpha virt. eigenvalues --    1.57789   1.62666   1.78824   1.81834   1.87328
 Alpha virt. eigenvalues --    1.89369   1.90351   1.93007   1.98946   1.99510
 Alpha virt. eigenvalues --    2.00151   2.03323   2.06539   2.12393   2.16068
 Alpha virt. eigenvalues --    2.16176   2.19976   2.21583   2.23985   2.27328
 Alpha virt. eigenvalues --    2.27552   2.30541   2.36459   2.39342   2.45599
 Alpha virt. eigenvalues --    2.52073   2.54846   2.61348   2.64225   2.65287
 Alpha virt. eigenvalues --    2.66921   2.73351   2.79543   2.82986   2.84516
 Alpha virt. eigenvalues --    2.94346   2.97897   3.07963   3.23296   3.40478
 Alpha virt. eigenvalues --    4.16244   4.25884   4.29579   4.32890   4.36983
 Alpha virt. eigenvalues --    4.41312   4.48808   4.53180   4.78695
          Condensed to atoms (all electrons):
               1          2          3          4          5          6
     1  C    5.674521   0.409873   0.403499  -0.451734  -0.164334  -0.227153
     2  C    0.409873   5.901000  -0.373663   0.219034  -0.545441   0.767654
     3  C    0.403499  -0.373663  13.587604  -0.512728  -5.161054  -3.174396
     4  C   -0.451734   0.219034  -0.512728  13.951942  -5.758494  -2.232260
     5  C   -0.164334  -0.545441  -5.161054  -5.758494  17.309578   1.126649
     6  C   -0.227153   0.767654  -3.174396  -2.232260   1.126649  13.300124
     7  N   -0.026708   0.007998  -0.561509  -0.447630   1.063862   0.146345
     8  C    0.172274  -0.379313   3.199967   3.406526  -5.627180  -4.154484
     9  C   -0.094198   0.043777  -1.064913  -1.059352   1.860582   1.027576
    10  H   -0.003235  -0.003543  -0.132316  -0.068693   0.181577   0.021109
    11  H    0.002865   0.001238   0.005875   0.015526  -0.022954   0.020369
    12  H    0.001277  -0.000204   0.034257   0.106303  -0.119603  -0.018027
    13  H    0.032622   0.249401   0.002189   0.001604   0.017273  -0.000467
    14  H    0.014190   0.044554   0.241628   0.020742  -0.000079  -0.017685
    15  H    0.254751   0.030437   0.018491  -0.018091   0.030477  -0.018642
    16  H    0.025224   0.009718  -0.026740   0.026607   0.073834   0.224824
               7          8          9         10         11         12
     1  C   -0.026708   0.172274  -0.094198  -0.003235   0.002865   0.001277
     2  C    0.007998  -0.379313   0.043777  -0.003543   0.001238  -0.000204
     3  C   -0.561509   3.199967  -1.064913  -0.132316   0.005875   0.034257
     4  C   -0.447630   3.406526  -1.059352  -0.068693   0.015526   0.106303
     5  C    1.063862  -5.627180   1.860582   0.181577  -0.022954  -0.119603
     6  C    0.146345  -4.154484   1.027576   0.021109   0.020369  -0.018027
     7  N    7.141177  -0.788617   0.617119   0.266560   0.006553  -0.054259
     8  C   -0.788617  11.582354  -1.725033  -0.017970   0.306361   0.061088
     9  C    0.617119  -1.725033   6.351697  -0.013179  -0.034063   0.308037
    10  H    0.266560  -0.017970  -0.013179   0.314655  -0.000071  -0.002170
    11  H    0.006553   0.306361  -0.034063  -0.000071   0.453761  -0.000466
    12  H   -0.054259   0.061088   0.308037  -0.002170  -0.000466   0.441773
    13  H   -0.000463   0.000764   0.001182  -0.000002  -0.000000  -0.000000
    14  H   -0.006696  -0.003358   0.005843   0.002026   0.000002   0.000001
    15  H    0.000283   0.007523  -0.000065  -0.000000  -0.000002  -0.000000
    16  H   -0.000910  -0.038033   0.003325   0.000004   0.001343  -0.000001
              13         14         15         16
     1  C    0.032622   0.014190   0.254751   0.025224
     2  C    0.249401   0.044554   0.030437   0.009718
     3  C    0.002189   0.241628   0.018491  -0.026740
     4  C    0.001604   0.020742  -0.018091   0.026607
     5  C    0.017273  -0.000079   0.030477   0.073834
     6  C   -0.000467  -0.017685  -0.018642   0.224824
     7  N   -0.000463  -0.006696   0.000283  -0.000910
     8  C    0.000764  -0.003358   0.007523  -0.038033
     9  C    0.001182   0.005843  -0.000065   0.003325
    10  H   -0.000002   0.002026  -0.000000   0.000004
    11  H   -0.000000   0.000002  -0.000002   0.001343
    12  H   -0.000000   0.000001  -0.000000  -0.000001
    13  H    0.506059  -0.003249  -0.004699  -0.000132
    14  H   -0.003249   0.500090  -0.000124   0.000013
    15  H   -0.004699  -0.000124   0.506896  -0.003139
    16  H   -0.000132   0.000013  -0.003139   0.498608
 Mulliken charges:
               1
     1  C   -0.023735
     2  C   -0.382518
     3  C   -0.486193
     4  C   -1.199300
     5  C    1.735307
     6  C   -0.791536
     7  N   -0.363103
     8  C   -0.002869
     9  C   -0.228336
    10  H    0.455247
    11  H    0.243662
    12  H    0.241994
    13  H    0.197919
    14  H    0.202101
    15  H    0.195905
    16  H    0.205457
 Sum of Mulliken charges =  -0.00000
 Mulliken charges with hydrogens summed into heavy atoms:
               1
     1  C    0.172170
     2  C   -0.184599
     3  C   -0.284092
     4  C   -1.199300
     5  C    1.735307
     6  C   -0.586080
     7  N    0.092144
     8  C    0.240793
     9  C    0.013657
 Electronic spatial extent (au):  <R**2>=           1022.0694
 Charge=              0.0000 electrons
 Dipole moment (field-independent basis, Debye):
    X=              4.8094    Y=             -1.1852    Z=             -0.0000  Tot=              4.9533
 Quadrupole moment (field-independent basis, Debye-Ang):
   XX=            -43.7247   YY=            -46.5284   ZZ=            -60.6176
   XY=             -2.2105   XZ=              0.0003   YZ=             -0.0003
 Traceless Quadrupole moment (field-independent basis, Debye-Ang):
   XX=              6.5656   YY=              3.7618   ZZ=            -10.3274
   XY=             -2.2105   XZ=              0.0003   YZ=             -0.0003
 Octapole moment (field-independent basis, Debye-Ang**2):
  XXX=             30.7906  YYY=             -8.4020  ZZZ=             -0.0008  XYY=             16.6568
  XXY=             -6.8249  XXZ=              0.0003  XZZ=              5.9219  YZZ=             -1.1668
  YYZ=             -0.0008  XYZ=             -0.0012
 Hexadecapole moment (field-independent basis, Debye-Ang**3):
 XXXX=           -831.8276 YYYY=           -399.2818 ZZZZ=            -85.6361 XXXY=            -17.1958
 XXXZ=             -0.0016 YYYX=            -15.0993 YYYZ=              0.0065 ZZZX=             -0.0051
 ZZZY=              0.0109 XXYY=           -197.0352 XXZZ=           -199.7017 YYZZ=           -105.6899
 XXYZ=             -0.0002 YYXZ=              0.0003 ZZXY=             -1.8705
 N-N= 3.981394212778D+02 E-N=-1.638100761321D+03  KE= 3.600198564047D+02
 Unable to Open any file for archive entry.
 1\1\GINC-EXP-2-07\FOpt\RHSEH1PBE TD-FC\6-31+G(d)\C8H7N1\SCAPARAS\14-Ju
 n-2021\0\\# td= (nstates=6, root=1) HSEH1PBE/6-31+G* Opt density=curre
 nt\\FuncsHSEH1PBE-V-1st\\0,1\C,-2.1795188616,0.6837966191,-0.000006818
 1\C,-2.1468639348,-0.6985683253,0.0000475059\C,-0.9138809946,-1.446177
 6881,0.0000889536\C,0.2424806902,-0.6501047415,0.000070214\C,0.2383784
 55,0.7473911807,0.0000101408\C,-0.9902296344,1.4693657687,-0.000025368
 1\N,1.590134727,-1.0567158135,0.0000722011\C,1.6036608563,1.1586712041
 ,-0.0000303994\C,2.4243245925,-0.0105526855,0.0000767746\H,1.884337878
 6,-2.0239005367,0.0001880111\H,1.9820764697,2.1729943963,-0.0000966104
 \H,3.4988819837,-0.1183686036,0.0001084002\H,-3.0832667868,-1.25076933
 72,0.0000569101\H,-0.8951418706,-2.5299444472,0.0000564512\H,-3.142898
 9696,1.1869713209,-0.0000370084\H,-1.0155716006,2.5533576887,-0.000043
 3582\\Version=AS64L-G16RevC.01\State=1-A\HF=-363.422993\RMSD=5.099e-09
 \RMSF=3.496e-05\Dipole=1.8921728,-0.4662846,-0.0000123\Quadrupole=4.88
 13307,2.7968252,-7.6781559,-1.6434599,0.0002502,-0.0002575\PG=C01 [X(C
 8H7N1)]\\@
 The archive entry for this job was punched.


 FORGIVE MY NONSENSE AS I ALSO FORGIVE THOSE WHO THINK THEY TALK SENSE

                                                       -- ROBERT FROST
 Job cpu time:       0 days  2 hours  9 minutes 19.7 seconds.
 Elapsed time:       0 days  0 hours 32 minutes 59.6 seconds.
 File lengths (MBytes):  RWF=    238 Int=      0 D2E=      0 Chk=     11 Scr=      1
 Normal termination of Gaussian 16 at Mon Jun 14 11:30:37 2021.
