 Entering Gaussian System, Link 0=/cm/shared/apps/spack/cpu/opt/spack/linux-centos8-zen/gcc-8.3.1/gaussian-16.C.01-po5bqktfeugvmjyga3v7eigbecnokxng/g16/g16
 Initial command:
 /cm/shared/apps/spack/cpu/opt/spack/linux-centos8-zen/gcc-8.3.1/gaussian-16.C.01-po5bqktfeugvmjyga3v7eigbecnokxng/g16/l1.exe "/scratch/scaparas/job_3468752/Gau-19482.inp" -scrdir="/scratch/scaparas/job_3468752/"
 Entering Link 1 = /cm/shared/apps/spack/cpu/opt/spack/linux-centos8-zen/gcc-8.3.1/gaussian-16.C.01-po5bqktfeugvmjyga3v7eigbecnokxng/g16/l1.exe PID=     19483.
  
 Copyright (c) 1988-2019, Gaussian, Inc.  All Rights Reserved.
  
 This is part of the Gaussian(R) 16 program.  It is based on
 the Gaussian(R) 09 system (copyright 2009, Gaussian, Inc.),
 the Gaussian(R) 03 system (copyright 2003, Gaussian, Inc.),
 the Gaussian(R) 98 system (copyright 1998, Gaussian, Inc.),
 the Gaussian(R) 94 system (copyright 1995, Gaussian, Inc.),
 the Gaussian 92(TM) system (copyright 1992, Gaussian, Inc.),
 the Gaussian 90(TM) system (copyright 1990, Gaussian, Inc.),
 the Gaussian 88(TM) system (copyright 1988, Gaussian, Inc.),
 the Gaussian 86(TM) system (copyright 1986, Carnegie Mellon
 University), and the Gaussian 82(TM) system (copyright 1983,
 Carnegie Mellon University). Gaussian is a federally registered
 trademark of Gaussian, Inc.
  
 This software contains proprietary and confidential information,
 including trade secrets, belonging to Gaussian, Inc.
  
 This software is provided under written license and may be
 used, copied, transmitted, or stored only in accord with that
 written license.
  
 The following legend is applicable only to US Government
 contracts under FAR:
  
                    RESTRICTED RIGHTS LEGEND
  
 Use, reproduction and disclosure by the US Government is
 subject to restrictions as set forth in subparagraphs (a)
 and (c) of the Commercial Computer Software - Restricted
 Rights clause in FAR 52.227-19.
  
 Gaussian, Inc.
 340 Quinnipiac St., Bldg. 40, Wallingford CT 06492
  
  
 ---------------------------------------------------------------
 Warning -- This program may not be used in any manner that
 competes with the business of Gaussian, Inc. or will provide
 assistance to any competitor of Gaussian, Inc.  The licensee
 of this program is prohibited from giving any competitor of
 Gaussian, Inc. access to this program.  By using this program,
 the user acknowledges that Gaussian, Inc. is engaged in the
 business of creating and licensing software in the field of
 computational chemistry and represents and warrants to the
 licensee that it is not a competitor of Gaussian, Inc. and that
 it will not use this program in any manner prohibited above.
 ---------------------------------------------------------------
  

 Cite this work as:
 Gaussian 16, Revision C.01,
 M. J. Frisch, G. W. Trucks, H. B. Schlegel, G. E. Scuseria, 
 M. A. Robb, J. R. Cheeseman, G. Scalmani, V. Barone, 
 G. A. Petersson, H. Nakatsuji, X. Li, M. Caricato, A. V. Marenich, 
 J. Bloino, B. G. Janesko, R. Gomperts, B. Mennucci, H. P. Hratchian, 
 J. V. Ortiz, A. F. Izmaylov, J. L. Sonnenberg, D. Williams-Young, 
 F. Ding, F. Lipparini, F. Egidi, J. Goings, B. Peng, A. Petrone, 
 T. Henderson, D. Ranasinghe, V. G. Zakrzewski, J. Gao, N. Rega, 
 G. Zheng, W. Liang, M. Hada, M. Ehara, K. Toyota, R. Fukuda, 
 J. Hasegawa, M. Ishida, T. Nakajima, Y. Honda, O. Kitao, H. Nakai, 
 T. Vreven, K. Throssell, J. A. Montgomery, Jr., J. E. Peralta, 
 F. Ogliaro, M. J. Bearpark, J. J. Heyd, E. N. Brothers, K. N. Kudin, 
 V. N. Staroverov, T. A. Keith, R. Kobayashi, J. Normand, 
 K. Raghavachari, A. P. Rendell, J. C. Burant, S. S. Iyengar, 
 J. Tomasi, M. Cossi, J. M. Millam, M. Klene, C. Adamo, R. Cammi, 
 J. W. Ochterski, R. L. Martin, K. Morokuma, O. Farkas, 
 J. B. Foresman, and D. J. Fox, Gaussian, Inc., Wallingford CT, 2019.
 
 ******************************************
 Gaussian 16:  AS64L-G16RevC.01  3-Jul-2019
                17-Jun-2021 
 ******************************************
 %nprocshared=4
 Will use up to    4 processors via shared memory.
 %chk=FuncsM062X-V-2nd.chk
 %Mem=3GB
 -----------------------------------------------------------
 # td= (nstates=6, root=2) M062X/6-31+G* Opt density=current
 -----------------------------------------------------------
 1/18=20,19=15,26=3,38=1/1,3;
 2/9=110,12=2,17=6,18=5,40=1/2;
 3/5=1,6=6,7=11,11=9,25=1,30=1,71=1,74=-55/1,2,3,8;
 4//1;
 5/5=2,38=5/2;
 8/6=1,10=2,107=2,108=6/1;
 9/8=2,15=2,41=6,42=1,70=2/14;
 10/5=4,28=2/2;
 6/7=2,8=2,9=2,10=2,22=-1/1;
 7/12=6,13=5,14=2/1,2,3,16;
 1/18=20,19=15,26=3/3(2);
 2/9=110/2;
 99//99;
 2/9=110/2;
 3/5=1,6=6,7=11,11=9,25=1,30=1,71=1,74=-55/1,2,3,8;
 4/5=5,16=3,69=1/1;
 5/5=2,38=5/2;
 8/6=1,10=2,107=2,108=6/1;
 9/8=2,15=2,41=6,42=1,49=4,70=2/14;
 10/5=4,28=2/2;
 7/12=6,13=5,14=2/1,2,3,16;
 1/18=20,19=15,26=3/3(-8);
 2/9=110/2;
 6/7=2,8=2,9=2,10=2,22=-1/1;
 99/9=10/99;
 ----------------
 FuncsM062X-V-2nd
 ----------------
 Symbolic Z-matrix:
 Charge =  0 Multiplicity = 1
 C                    -2.15106   0.68921   0.00009 
 C                    -2.12793  -0.71582   0.00008 
 C                    -0.9323   -1.4131   -0.00001 
 C                     0.24691  -0.6702   -0.00004 
 C                     0.24819   0.7483    0. 
 C                    -0.97947   1.42353   0.00003 
 N                     1.56177  -1.07759  -0.00029 
 C                     1.62013   1.1629   -0.00016 
 C                     2.38201   0.03081   0.00025 
 H                     1.87632  -2.03001   0.00044 
 H                     1.99217   2.17301  -0.00035 
 H                     3.45255  -0.08243   0.00041 
 H                    -3.06159  -1.26202   0.00009 
 H                    -0.91725  -2.49534  -0.00007 
 H                    -3.1042    1.20079   0.00009 
 H                    -1.00935   2.50542  -0.00002 
 

 GradGradGradGradGradGradGradGradGradGradGradGradGradGradGradGradGradGrad
 Berny optimization.
 Initialization pass.
                           ----------------------------
                           !    Initial Parameters    !
                           ! (Angstroms and Degrees)  !
 --------------------------                            --------------------------
 ! Name  Definition              Value          Derivative Info.                !
 --------------------------------------------------------------------------------
 ! R1    R(1,2)                  1.4052         estimate D2E/DX2                !
 ! R2    R(1,6)                  1.3827         estimate D2E/DX2                !
 ! R3    R(1,15)                 1.0818         estimate D2E/DX2                !
 ! R4    R(2,3)                  1.3841         estimate D2E/DX2                !
 ! R5    R(2,13)                 1.0817         estimate D2E/DX2                !
 ! R6    R(3,4)                  1.3937         estimate D2E/DX2                !
 ! R7    R(3,14)                 1.0823         estimate D2E/DX2                !
 ! R8    R(4,5)                  1.4185         estimate D2E/DX2                !
 ! R9    R(4,7)                  1.3765         estimate D2E/DX2                !
 ! R10   R(5,6)                  1.4011         estimate D2E/DX2                !
 ! R11   R(5,8)                  1.4332         estimate D2E/DX2                !
 ! R12   R(6,16)                 1.0823         estimate D2E/DX2                !
 ! R13   R(7,9)                  1.3789         estimate D2E/DX2                !
 ! R14   R(7,10)                 1.003          estimate D2E/DX2                !
 ! R15   R(8,9)                  1.3646         estimate D2E/DX2                !
 ! R16   R(8,11)                 1.0764         estimate D2E/DX2                !
 ! R17   R(9,12)                 1.0765         estimate D2E/DX2                !
 ! A1    A(2,1,6)              121.1349         estimate D2E/DX2                !
 ! A2    A(2,1,15)             119.1671         estimate D2E/DX2                !
 ! A3    A(6,1,15)             119.698          estimate D2E/DX2                !
 ! A4    A(1,2,3)              121.1938         estimate D2E/DX2                !
 ! A5    A(1,2,13)             119.3846         estimate D2E/DX2                !
 ! A6    A(3,2,13)             119.4217         estimate D2E/DX2                !
 ! A7    A(2,3,4)              117.5387         estimate D2E/DX2                !
 ! A8    A(2,3,14)             121.0469         estimate D2E/DX2                !
 ! A9    A(4,3,14)             121.4144         estimate D2E/DX2                !
 ! A10   A(3,4,5)              122.2626         estimate D2E/DX2                !
 ! A11   A(3,4,7)              130.5743         estimate D2E/DX2                !
 ! A12   A(5,4,7)              107.163          estimate D2E/DX2                !
 ! A13   A(4,5,6)              118.7594         estimate D2E/DX2                !
 ! A14   A(4,5,8)              106.8666         estimate D2E/DX2                !
 ! A15   A(6,5,8)              134.374          estimate D2E/DX2                !
 ! A16   A(1,6,5)              119.1105         estimate D2E/DX2                !
 ! A17   A(1,6,16)             120.4966         estimate D2E/DX2                !
 ! A18   A(5,6,16)             120.3928         estimate D2E/DX2                !
 ! A19   A(4,7,9)              109.2874         estimate D2E/DX2                !
 ! A20   A(4,7,10)             125.4909         estimate D2E/DX2                !
 ! A21   A(9,7,10)             125.2217         estimate D2E/DX2                !
 ! A22   A(5,8,9)              107.125          estimate D2E/DX2                !
 ! A23   A(5,8,11)             127.0344         estimate D2E/DX2                !
 ! A24   A(9,8,11)             125.8405         estimate D2E/DX2                !
 ! A25   A(7,9,8)              109.5578         estimate D2E/DX2                !
 ! A26   A(7,9,12)             120.4645         estimate D2E/DX2                !
 ! A27   A(8,9,12)             129.9776         estimate D2E/DX2                !
 ! D1    D(6,1,2,3)             -0.0008         estimate D2E/DX2                !
 ! D2    D(6,1,2,13)          -179.9981         estimate D2E/DX2                !
 ! D3    D(15,1,2,3)           179.996          estimate D2E/DX2                !
 ! D4    D(15,1,2,13)           -0.0013         estimate D2E/DX2                !
 ! D5    D(2,1,6,5)             -0.0018         estimate D2E/DX2                !
 ! D6    D(2,1,6,16)           179.9965         estimate D2E/DX2                !
 ! D7    D(15,1,6,5)          -179.9986         estimate D2E/DX2                !
 ! D8    D(15,1,6,16)           -0.0003         estimate D2E/DX2                !
 ! D9    D(1,2,3,4)              0.002          estimate D2E/DX2                !
 ! D10   D(1,2,3,14)          -179.9968         estimate D2E/DX2                !
 ! D11   D(13,2,3,4)           179.9992         estimate D2E/DX2                !
 ! D12   D(13,2,3,14)            0.0005         estimate D2E/DX2                !
 ! D13   D(2,3,4,5)             -0.0005         estimate D2E/DX2                !
 ! D14   D(2,3,4,7)           -179.9911         estimate D2E/DX2                !
 ! D15   D(14,3,4,5)           179.9982         estimate D2E/DX2                !
 ! D16   D(14,3,4,7)             0.0076         estimate D2E/DX2                !
 ! D17   D(3,4,5,6)             -0.002          estimate D2E/DX2                !
 ! D18   D(3,4,5,8)           -179.9955         estimate D2E/DX2                !
 ! D19   D(7,4,5,6)            179.9905         estimate D2E/DX2                !
 ! D20   D(7,4,5,8)             -0.003          estimate D2E/DX2                !
 ! D21   D(3,4,7,9)           -179.98           estimate D2E/DX2                !
 ! D22   D(3,4,7,10)            -0.0649         estimate D2E/DX2                !
 ! D23   D(5,4,7,9)              0.0284         estimate D2E/DX2                !
 ! D24   D(5,4,7,10)           179.9434         estimate D2E/DX2                !
 ! D25   D(4,5,6,1)              0.0031         estimate D2E/DX2                !
 ! D26   D(4,5,6,16)          -179.9951         estimate D2E/DX2                !
 ! D27   D(8,5,6,1)            179.9944         estimate D2E/DX2                !
 ! D28   D(8,5,6,16)            -0.0038         estimate D2E/DX2                !
 ! D29   D(4,5,8,9)             -0.0234         estimate D2E/DX2                !
 ! D30   D(4,5,8,11)           179.9883         estimate D2E/DX2                !
 ! D31   D(6,5,8,9)            179.9846         estimate D2E/DX2                !
 ! D32   D(6,5,8,11)            -0.0037         estimate D2E/DX2                !
 ! D33   D(4,7,9,8)             -0.0444         estimate D2E/DX2                !
 ! D34   D(4,7,9,12)           179.9847         estimate D2E/DX2                !
 ! D35   D(10,7,9,8)          -179.9597         estimate D2E/DX2                !
 ! D36   D(10,7,9,12)            0.0693         estimate D2E/DX2                !
 ! D37   D(5,8,9,7)              0.0414         estimate D2E/DX2                !
 ! D38   D(5,8,9,12)          -179.9913         estimate D2E/DX2                !
 ! D39   D(11,8,9,7)          -179.9702         estimate D2E/DX2                !
 ! D40   D(11,8,9,12)           -0.0029         estimate D2E/DX2                !
 --------------------------------------------------------------------------------
 Trust Radius=3.00D-01 FncErr=1.00D-07 GrdErr=1.00D-06 EigMax=2.50D+02 EigMin=1.00D-04
 Number of steps in this run=     94 maximum allowed number of steps=    100.
 GradGradGradGradGradGradGradGradGradGradGradGradGradGradGradGradGradGrad

                          Input orientation:                          
 ---------------------------------------------------------------------
 Center     Atomic      Atomic             Coordinates (Angstroms)
 Number     Number       Type             X           Y           Z
 ---------------------------------------------------------------------
      1          6           0       -2.151063    0.689208    0.000088
      2          6           0       -2.127927   -0.715818    0.000075
      3          6           0       -0.932297   -1.413100   -0.000011
      4          6           0        0.246911   -0.670201   -0.000042
      5          6           0        0.248193    0.748299    0.000000
      6          6           0       -0.979474    1.423526    0.000032
      7          7           0        1.561774   -1.077592   -0.000285
      8          6           0        1.620133    1.162900   -0.000157
      9          6           0        2.382013    0.030806    0.000248
     10          1           0        1.876315   -2.030011    0.000438
     11          1           0        1.992173    2.173010   -0.000348
     12          1           0        3.452549   -0.082425    0.000408
     13          1           0       -3.061594   -1.262020    0.000088
     14          1           0       -0.917252   -2.495342   -0.000073
     15          1           0       -3.104203    1.200785    0.000090
     16          1           0       -1.009348    2.505421   -0.000015
 ---------------------------------------------------------------------
                    Distance matrix (angstroms):
                    1          2          3          4          5
     1  C    0.000000
     2  C    1.405216   0.000000
     3  C    2.430039   1.384100   0.000000
     4  C    2.756496   2.375276   1.393711   0.000000
     5  C    2.399984   2.790983   2.462763   1.418501   0.000000
     6  C    1.382694   2.428114   2.837018   2.426461   1.401106
     7  N    4.111781   3.707395   2.516536   1.376529   2.249305
     8  C    3.800829   4.192557   3.626386   2.290414   1.433218
     9  C    4.580641   4.571324   3.615178   2.247236   2.251218
    10  H    4.859416   4.214387   2.875566   2.122273   3.220216
    11  H    4.400917   5.031953   4.627387   3.336134   2.251948
    12  H    5.656491   5.616307   4.582311   3.259079   3.310287
    13  H    2.153220   1.081698   2.134650   3.361020   3.872476
    14  H    3.415208   2.152310   1.082347   2.164813   3.446661
    15  H    1.081752   2.150926   3.398466   3.838040   3.382795
    16  H    2.145261   3.409927   3.919278   3.415079   2.160761
                    6          7          8          9         10
     6  C    0.000000
     7  N    3.565604   0.000000
     8  C    2.612639   2.241252   0.000000
     9  C    3.638580   1.378890   1.364587   0.000000
    10  H    4.481345   1.003015   3.203172   2.121956   0.000000
    11  H    3.064704   3.278972   1.076446   2.177387   4.204618
    12  H    4.680888   2.136677   2.215532   1.076508   2.505515
    13  H    3.398144   4.627045   5.272457   5.595021   4.997275
    14  H    3.919362   2.855798   4.452085   4.155307   2.832058
    15  H    2.136372   5.192528   4.724488   5.609583   5.936632
    16  H    1.082307   4.410062   2.952378   4.198220   5.375611
                   11         12         13         14         15
    11  H    0.000000
    12  H    2.686947   0.000000
    13  H    6.110646   6.620083   0.000000
    14  H    5.500751   4.991726   2.473719   0.000000
    15  H    5.188282   6.681139   2.463174   4.294661   0.000000
    16  H    3.019872   5.158049   4.290143   5.001611   2.467892
                   16
    16  H    0.000000
 Stoichiometry    C8H7N
 Framework group  C1[X(C8H7N)]
 Deg. of freedom    42
 Full point group                 C1      NOp   1
 Largest Abelian subgroup         C1      NOp   1
 Largest concise Abelian subgroup C1      NOp   1
                         Standard orientation:                         
 ---------------------------------------------------------------------
 Center     Atomic      Atomic             Coordinates (Angstroms)
 Number     Number       Type             X           Y           Z
 ---------------------------------------------------------------------
      1          6           0       -2.151063    0.689208    0.000088
      2          6           0       -2.127927   -0.715818    0.000075
      3          6           0       -0.932297   -1.413100   -0.000011
      4          6           0        0.246911   -0.670201   -0.000042
      5          6           0        0.248193    0.748299    0.000000
      6          6           0       -0.979474    1.423526    0.000032
      7          7           0        1.561774   -1.077592   -0.000285
      8          6           0        1.620133    1.162900   -0.000157
      9          6           0        2.382013    0.030806    0.000248
     10          1           0        1.876315   -2.030011    0.000438
     11          1           0        1.992173    2.173010   -0.000348
     12          1           0        3.452549   -0.082425    0.000408
     13          1           0       -3.061594   -1.262020    0.000088
     14          1           0       -0.917252   -2.495342   -0.000073
     15          1           0       -3.104203    1.200785    0.000090
     16          1           0       -1.009348    2.505421   -0.000015
 ---------------------------------------------------------------------
 Rotational constants (GHZ):           3.9080822           1.6429452           1.1566805
 Standard basis: 6-31+G(d) (6D, 7F)
 There are   185 symmetry adapted cartesian basis functions of A   symmetry.
 There are   185 symmetry adapted basis functions of A   symmetry.
   185 basis functions,   316 primitive gaussians,   185 cartesian basis functions
    31 alpha electrons       31 beta electrons
       nuclear repulsion energy       401.3368668897 Hartrees.
 NAtoms=   16 NActive=   16 NUniq=   16 SFac= 1.00D+00 NAtFMM=   60 NAOKFM=F Big=F
 Integral buffers will be    131072 words long.
 Regular integral format.
 Two-electron integral symmetry is turned on.
 One-electron integrals computed using PRISM.
 NBasis=   185 RedAO= T EigKep=  1.26D-06  NBF=   185
 NBsUse=   185 1.00D-06 EigRej= -1.00D+00 NBFU=   185
 ExpMin= 4.38D-02 ExpMax= 4.17D+03 ExpMxC= 6.27D+02 IAcc=3 IRadAn=         5 AccDes= 0.00D+00
 Harris functional with IExCor= 1009 and IRadAn=       5 diagonalized for initial guess.
 HarFok:  IExCor= 1009 AccDes= 0.00D+00 IRadAn=         5 IDoV= 1 UseB2=F ITyADJ=14
 ICtDFT=  3500011 ScaDFX=  1.000000  1.000000  1.000000  1.000000
 FoFCou: FMM=F IPFlag=           0 FMFlag=      100000 FMFlg1=           0
         NFxFlg=           0 DoJE=T BraDBF=F KetDBF=T FulRan=T
         wScrn=  0.000000 ICntrl=       500 IOpCl=  0 I1Cent=   200000004 NGrid=           0
         NMat0=    1 NMatS0=      1 NMatT0=    0 NMatD0=    1 NMtDS0=    0 NMtDT0=    0
 Petite list used in FoFCou.
 Keep R1 ints in memory in canonical form, NReq=152074523.
 Requested convergence on RMS density matrix=1.00D-08 within 128 cycles.
 Requested convergence on MAX density matrix=1.00D-06.
 Requested convergence on             energy=1.00D-06.
 No special actions if energy rises.
 SCF Done:  E(RM062X) =  -363.671654518     A.U. after   15 cycles
            NFock= 15  Conv=0.62D-08     -V/T= 2.0085
 DoSCS=F DFT=T ScalE2(SS,OS)=  1.000000  1.000000
 ExpMin= 4.38D-02 ExpMax= 4.17D+03 ExpMxC= 6.27D+02 IAcc=3 IRadAn=         5 AccDes= 0.00D+00
 HarFok:  IExCor=  205 AccDes= 0.00D+00 IRadAn=         5 IDoV=-2 UseB2=F ITyADJ=14
 ICtDFT= 12500011 ScaDFX=  1.000000  1.000000  1.000000  1.000000
 Range of M.O.s used for correlation:    10   185
 NBasis=   185 NAE=    31 NBE=    31 NFC=     9 NFV=     0
 NROrb=    176 NOA=    22 NOB=    22 NVA=   154 NVB=   154

 **** Warning!!: The largest alpha MO coefficient is  0.19273222D+03

 Orbital symmetries:
       Occupied  (A) (A) (A) (A) (A) (A) (A) (A) (A) (A) (A) (A)
                 (A) (A) (A) (A) (A) (A) (A) (A) (A) (A) (A) (A)
                 (A) (A) (A) (A) (A) (A) (A)
       Virtual   (A) (A) (A) (A) (A) (A) (A) (A) (A) (A) (A) (A)
                 (A) (A) (A) (A) (A) (A) (A) (A) (A) (A) (A) (A)
                 (A) (A) (A) (A) (A) (A) (A) (A) (A) (A) (A) (A)
                 (A) (A) (A) (A) (A) (A) (A) (A) (A) (A) (A) (A)
                 (A) (A) (A) (A) (A) (A) (A) (A) (A) (A) (A) (A)
                 (A) (A) (A) (A) (A) (A) (A) (A) (A) (A) (A) (A)
                 (A) (A) (A) (A) (A) (A) (A) (A) (A) (A) (A) (A)
                 (A) (A) (A) (A) (A) (A) (A) (A) (A) (A) (A) (A)
                 (A) (A) (A) (A) (A) (A) (A) (A) (A) (A) (A) (A)
                 (A) (A) (A) (A) (A) (A) (A) (A) (A) (A) (A) (A)
                 (A) (A) (A) (A) (A) (A) (A) (A) (A) (A) (A) (A)
                 (A) (A) (A) (A) (A) (A) (A) (A) (A) (A) (A) (A)
                 (A) (A) (A) (A) (A) (A) (A) (A) (A) (A)
    24 initial guesses have been made.
 Convergence on wavefunction:    0.000001000000000
 Iteration     1 Dimension    24 NMult     0 NNew     24
 CISAX will form    24 AO SS matrices at one time.
 New state      2 was old state      6
 New state      3 was old state      2
 New state      4 was old state      3
 New state      5 was old state      4
 New state      6 was old state      5
 Iteration     2 Dimension    36 NMult    24 NNew     12
 New state      1 was old state      2
 New state      2 was old state      1
 Iteration     3 Dimension    48 NMult    36 NNew     12
 New state      2 was old state      3
 New state      3 was old state      2
 Iteration     4 Dimension    60 NMult    48 NNew     12
 Iteration     5 Dimension    72 NMult    60 NNew     12
 Iteration     6 Dimension    84 NMult    72 NNew     12
 Iteration     7 Dimension    96 NMult    84 NNew     12
 Iteration     8 Dimension   108 NMult    96 NNew     12
 Iteration     9 Dimension   120 NMult   108 NNew     12
 Iteration    10 Dimension   128 NMult   120 NNew      8
 Iteration    11 Dimension   130 NMult   128 NNew      2
 ***********************************************************************
 Excited states from <AA,BB:AA,BB> singles matrix:
 ***********************************************************************
 
 Ground to excited state transition densities written to RWF  633
 Ground to excited state transition electric dipole moments (Au):
       state          X           Y           Z        Dip. S.      Osc.
         1         0.0951     -0.6273      0.0003      0.4025      0.0504
         2        -0.8625      0.3254     -0.0036      0.8497      0.1077
         3         0.0253     -0.0110     -0.1196      0.0151      0.0019
         4        -0.0003      0.0000     -0.1384      0.0192      0.0027
         5         0.0003     -0.0000     -0.0297      0.0009      0.0001
         6         0.0007      0.0001      0.0991      0.0098      0.0014
 Ground to excited state transition velocity dipole moments (Au):
       state          X           Y           Z        Dip. S.      Osc.
         1        -0.0147      0.1306     -0.0000      0.0173      0.0613
         2         0.1587     -0.0698      0.0004      0.0301      0.1054
         3        -0.0046      0.0023      0.0140      0.0002      0.0008
         4         0.0001     -0.0000      0.0324      0.0010      0.0033
         5        -0.0001      0.0000      0.0069      0.0000      0.0001
         6        -0.0001     -0.0000     -0.0218      0.0005      0.0015
 Ground to excited state transition magnetic dipole moments (Au):
       state          X           Y           Z
         1        -0.0006      0.0000     -0.1936
         2         0.0042     -0.0022      0.0738
         3         0.1435     -0.0690     -0.0025
         4         0.0756     -0.3073     -0.0001
         5         0.2414     -0.2663      0.0001
         6         0.2604      0.2854      0.0006
 Ground to excited state transition velocity quadrupole moments (Au):
       state          XX          YY          ZZ          XY          XZ          YZ
         1        -0.1428      0.0307      0.0050     -0.0396     -0.0001     -0.0002
         2         0.1963     -0.1798      0.0292      0.0225      0.0017      0.0020
         3        -0.0061      0.0053     -0.0007     -0.0008      0.0561      0.0680
         4        -0.0000      0.0000      0.0000     -0.0000      0.2180      0.0133
         5        -0.0003      0.0000      0.0000      0.0001      0.2893      0.2453
         6         0.0000     -0.0001      0.0001      0.0003     -0.2122      0.1451
 <0|del|b> * <b|rxdel|0> + <0|del|b> * <b|delr+rdel|0>
 Rotatory Strengths (R) in cgs (10**-40 erg-esu-cm/Gauss)
       state          XX          YY          ZZ    R(velocity)    E-M Angle
         1         0.0526      0.0305     -0.0093      0.0246       90.00
         2         0.5870      1.8654      0.7259      1.0594       86.18
         3        -0.6302     -1.8689     -0.7075     -1.0689      111.20
         4         0.0069      0.0100      0.0102      0.0090       90.00
         5        -0.0005     -0.0559      0.0005     -0.0186       90.00
         6        -0.0432     -0.1033     -0.0286     -0.0584       90.00
 1/2[<0|r|b>*<b|rxdel|0> + (<0|rxdel|b>*<b|r|0>)*]
 Rotatory Strengths (R) in cgs (10**-40 erg-esu-cm/Gauss)
       state          XX          YY          ZZ     R(length)
         1         0.0379      0.0190      0.0390      0.0319
         2         2.5762      0.5024      0.1863      1.0883
         3        -2.5636     -0.5351     -0.2100     -1.1029
         4         0.0185      0.0089     -0.0050      0.0075
         5        -0.0535     -0.0079      0.0014     -0.0200
         6        -0.1274     -0.0266     -0.0393     -0.0644
  1/2[<0|del|b>*<b|r|0> + (<0|r|b>*<b|del|0>)*] (Au)
       state          X           Y           Z        Dip. S.   Osc.(frdel)
         1        -0.0014     -0.0819     -0.0000      0.0833      0.0556
         2        -0.1369     -0.0227     -0.0000      0.1596      0.1064
         3        -0.0001     -0.0000     -0.0017      0.0018      0.0012
         4        -0.0000     -0.0000     -0.0045      0.0045      0.0030
         5        -0.0000     -0.0000     -0.0002      0.0002      0.0001
         6        -0.0000     -0.0000     -0.0022      0.0022      0.0014

 Excitation energies and oscillator strengths:
 
 Excited State   1:      Singlet-A      5.1141 eV  242.44 nm  f=0.0504  <S**2>=0.000
      30 -> 33         0.45701
      30 -> 38        -0.11021
      31 -> 33        -0.45033
      31 -> 38        -0.23510
 
 Excited State   2:      Singlet-A      5.1712 eV  239.76 nm  f=0.1077  <S**2>=0.000
      30 -> 33         0.37232
      30 -> 38         0.12088
      31 -> 33         0.50669
      31 -> 38        -0.27376
 This state for optimization and/or second-order correction.
 Total Energy, E(TD-HF/TD-DFT) =  -363.481615228    
 Copying the excited state density for this state as the 1-particle RhoCI density.
 
 Excited State   3:      Singlet-A      5.1779 eV  239.45 nm  f=0.0019  <S**2>=0.000
      31 -> 32         0.69070
 
 Excited State   4:      Singlet-A      5.6910 eV  217.86 nm  f=0.0027  <S**2>=0.000
      30 -> 32         0.65287
      31 -> 34         0.19873
 
 Excited State   5:      Singlet-A      5.8447 eV  212.13 nm  f=0.0001  <S**2>=0.000
      30 -> 32        -0.20426
      31 -> 34         0.63871
      31 -> 35        -0.15447
 
 Excited State   6:      Singlet-A      5.8941 eV  210.35 nm  f=0.0014  <S**2>=0.000
      31 -> 34         0.15771
      31 -> 35         0.65899
      31 -> 36         0.10343
 SavETr:  write IOETrn=   770 NScale= 10 NData=  16 NLR=1 NState=    6 LETran=     118.
          IDoAtm=1111111111111111
          Differentiating once with respect to electric field.
                with respect to dipole field.
          Differentiating once with respect to nuclear coordinates.
 Keep R1 ints in memory in canonical form, NReq=152086915.
          There are     1 degrees of freedom in the 1st order CPHF.  IDoFFX=0 NUNeed=     1.
 LinEq1:  Iter=  0 NonCon=     1 RMS=7.07D-03 Max=1.64D-01 NDo=     1
 AX will form     1 AO Fock derivatives at one time.
 LinEq1:  Iter=  1 NonCon=     1 RMS=2.40D-03 Max=6.01D-02 NDo=     1
 LinEq1:  Iter=  2 NonCon=     1 RMS=1.27D-03 Max=3.08D-02 NDo=     1
 LinEq1:  Iter=  3 NonCon=     1 RMS=6.46D-04 Max=1.38D-02 NDo=     1
 LinEq1:  Iter=  4 NonCon=     1 RMS=2.55D-04 Max=6.82D-03 NDo=     1
 LinEq1:  Iter=  5 NonCon=     1 RMS=1.38D-04 Max=3.61D-03 NDo=     1
 LinEq1:  Iter=  6 NonCon=     1 RMS=6.66D-05 Max=1.50D-03 NDo=     1
 LinEq1:  Iter=  7 NonCon=     1 RMS=3.59D-05 Max=1.02D-03 NDo=     1
 LinEq1:  Iter=  8 NonCon=     1 RMS=1.39D-05 Max=2.55D-04 NDo=     1
 LinEq1:  Iter=  9 NonCon=     1 RMS=7.00D-06 Max=1.25D-04 NDo=     1
 LinEq1:  Iter= 10 NonCon=     1 RMS=2.23D-06 Max=5.86D-05 NDo=     1
 LinEq1:  Iter= 11 NonCon=     1 RMS=1.26D-06 Max=2.83D-05 NDo=     1
 LinEq1:  Iter= 12 NonCon=     1 RMS=4.91D-07 Max=1.29D-05 NDo=     1
 LinEq1:  Iter= 13 NonCon=     1 RMS=2.56D-07 Max=4.81D-06 NDo=     1
 LinEq1:  Iter= 14 NonCon=     1 RMS=1.06D-07 Max=2.06D-06 NDo=     1
 LinEq1:  Iter= 15 NonCon=     1 RMS=3.29D-08 Max=5.82D-07 NDo=     1
 LinEq1:  Iter= 16 NonCon=     1 RMS=1.72D-08 Max=2.37D-07 NDo=     1
 LinEq1:  Iter= 17 NonCon=     1 RMS=4.12D-09 Max=6.00D-08 NDo=     1
 LinEq1:  Iter= 18 NonCon=     1 RMS=1.02D-09 Max=1.70D-08 NDo=     1
 LinEq1:  Iter= 19 NonCon=     1 RMS=4.32D-10 Max=9.97D-09 NDo=     1
 LinEq1:  Iter= 20 NonCon=     1 RMS=1.64D-10 Max=3.08D-09 NDo=     1
 LinEq1:  Iter= 21 NonCon=     0 RMS=5.38D-11 Max=6.90D-10 NDo=     1
 Linear equations converged to 1.000D-10 1.000D-09 after    21 iterations.
 End of Minotr F.D. properties file   721 does not exist.
 End of Minotr F.D. properties file   722 does not exist.
 End of Minotr F.D. properties file   788 does not exist.

 **********************************************************************

            Population analysis using the CI Density.

 **********************************************************************

 Orbital symmetries:
       Occupied  (A) (A) (A) (A) (A) (A) (A) (A) (A) (A) (A) (A)
                 (A) (A) (A) (A) (A) (A) (A) (A) (A) (A) (A) (A)
                 (A) (A) (A) (A) (A) (A) (A)
       Virtual   (A) (A) (A) (A) (A) (A) (A) (A) (A) (A) (A) (A)
                 (A) (A) (A) (A) (A) (A) (A) (A) (A) (A) (A) (A)
                 (A) (A) (A) (A) (A) (A) (A) (A) (A) (A) (A) (A)
                 (A) (A) (A) (A) (A) (A) (A) (A) (A) (A) (A) (A)
                 (A) (A) (A) (A) (A) (A) (A) (A) (A) (A) (A) (A)
                 (A) (A) (A) (A) (A) (A) (A) (A) (A) (A) (A) (A)
                 (A) (A) (A) (A) (A) (A) (A) (A) (A) (A) (A) (A)
                 (A) (A) (A) (A) (A) (A) (A) (A) (A) (A) (A) (A)
                 (A) (A) (A) (A) (A) (A) (A) (A) (A) (A) (A) (A)
                 (A) (A) (A) (A) (A) (A) (A) (A) (A) (A) (A) (A)
                 (A) (A) (A) (A) (A) (A) (A) (A) (A) (A) (A) (A)
                 (A) (A) (A) (A) (A) (A) (A) (A) (A) (A) (A) (A)
                 (A) (A) (A) (A) (A) (A) (A) (A) (A) (A)
 The electronic state is 1-A.
 Alpha  occ. eigenvalues --  -14.81043 -10.58588 -10.58293 -10.55216 -10.54724
 Alpha  occ. eigenvalues --  -10.54666 -10.54645 -10.54102 -10.53807  -1.09587
 Alpha  occ. eigenvalues --   -0.94525  -0.88334  -0.83265  -0.81325  -0.71042
 Alpha  occ. eigenvalues --   -0.67880  -0.66432  -0.61901  -0.55640  -0.54433
 Alpha  occ. eigenvalues --   -0.50520  -0.49963  -0.49875  -0.47754  -0.45664
 Alpha  occ. eigenvalues --   -0.41649  -0.40310  -0.39465  -0.33969  -0.27444
 Alpha  occ. eigenvalues --   -0.25664
 Alpha virt. eigenvalues --    0.00716   0.01304   0.02615   0.03046   0.04333
 Alpha virt. eigenvalues --    0.04583   0.05170   0.06622   0.06661   0.07040
 Alpha virt. eigenvalues --    0.07441   0.07619   0.09757   0.10432   0.10905
 Alpha virt. eigenvalues --    0.10991   0.12537   0.13697   0.14788   0.15226
 Alpha virt. eigenvalues --    0.16242   0.16393   0.17459   0.17904   0.18646
 Alpha virt. eigenvalues --    0.19609   0.19826   0.20281   0.21156   0.21618
 Alpha virt. eigenvalues --    0.22277   0.23082   0.23264   0.24170   0.24836
 Alpha virt. eigenvalues --    0.25218   0.25849   0.26179   0.26909   0.27630
 Alpha virt. eigenvalues --    0.28892   0.29084   0.30814   0.31737   0.33294
 Alpha virt. eigenvalues --    0.34339   0.34592   0.35869   0.37944   0.40334
 Alpha virt. eigenvalues --    0.41202   0.43912   0.48451   0.49192   0.55853
 Alpha virt. eigenvalues --    0.63025   0.67665   0.71604   0.71821   0.74551
 Alpha virt. eigenvalues --    0.75980   0.76706   0.77755   0.78322   0.78992
 Alpha virt. eigenvalues --    0.80019   0.80536   0.82415   0.83990   0.84652
 Alpha virt. eigenvalues --    0.86103   0.90096   0.94008   0.95786   0.96625
 Alpha virt. eigenvalues --    0.98859   0.99948   1.00475   1.01776   1.03313
 Alpha virt. eigenvalues --    1.05103   1.07784   1.09539   1.11747   1.13324
 Alpha virt. eigenvalues --    1.15458   1.15792   1.20924   1.21732   1.24166
 Alpha virt. eigenvalues --    1.26060   1.29001   1.29366   1.35605   1.37730
 Alpha virt. eigenvalues --    1.39773   1.40140   1.45090   1.47296   1.48769
 Alpha virt. eigenvalues --    1.51820   1.52384   1.55578   1.56314   1.57422
 Alpha virt. eigenvalues --    1.62490   1.68672   1.82750   1.88906   1.93187
 Alpha virt. eigenvalues --    1.94083   1.96140   1.99135   2.04589   2.05253
 Alpha virt. eigenvalues --    2.05364   2.11254   2.14305   2.18524   2.21551
 Alpha virt. eigenvalues --    2.21703   2.24194   2.29343   2.30115   2.30609
 Alpha virt. eigenvalues --    2.32596   2.35063   2.41927   2.44970   2.48397
 Alpha virt. eigenvalues --    2.58576   2.59563   2.66669   2.68560   2.69951
 Alpha virt. eigenvalues --    2.73035   2.76252   2.83908   2.87610   2.88298
 Alpha virt. eigenvalues --    2.97585   3.00125   3.14092   3.25783   3.45959
 Alpha virt. eigenvalues --    4.18343   4.28670   4.31861   4.35246   4.39001
 Alpha virt. eigenvalues --    4.42562   4.50718   4.54608   4.81432
          Condensed to atoms (all electrons):
               1          2          3          4          5          6
     1  C    5.853772   0.478045   0.053712  -0.465503  -0.012395  -0.258833
     2  C    0.478045   5.893067  -0.258793   0.408811  -0.644979   0.522259
     3  C    0.053712  -0.258793  12.972135  -2.164768  -3.258598  -2.721081
     4  C   -0.465503   0.408811  -2.164768  12.301905  -2.819379  -0.935226
     5  C   -0.012395  -0.644979  -3.258598  -2.819379  13.649567  -0.490863
     6  C   -0.258833   0.522259  -2.721081  -0.935226  -0.490863  12.789648
     7  N   -0.032561   0.004738  -0.502674  -0.310872   0.773722   0.144715
     8  C    0.177676  -0.302236   3.051137   1.385642  -4.309307  -3.512218
     9  C   -0.110770   0.039149  -1.154485  -0.593115   1.751256   1.028202
    10  H   -0.002485  -0.007383  -0.129537  -0.068377   0.166392   0.028047
    11  H    0.003280   0.000568   0.003940   0.037961  -0.005225  -0.022565
    12  H    0.000976   0.000315   0.026164   0.082536  -0.077098  -0.017484
    13  H    0.004419   0.281325  -0.011929   0.021611   0.004947   0.008577
    14  H    0.009503   0.059883   0.183623   0.056131   0.001711  -0.009442
    15  H    0.308848  -0.011535   0.026847  -0.021949   0.046710  -0.040976
    16  H    0.018667   0.008727  -0.028089   0.039340   0.120387   0.178090
               7          8          9         10         11         12
     1  C   -0.032561   0.177676  -0.110770  -0.002485   0.003280   0.000976
     2  C    0.004738  -0.302236   0.039149  -0.007383   0.000568   0.000315
     3  C   -0.502674   3.051137  -1.154485  -0.129537   0.003940   0.026164
     4  C   -0.310872   1.385642  -0.593115  -0.068377   0.037961   0.082536
     5  C    0.773722  -4.309307   1.751256   0.166392  -0.005225  -0.077098
     6  C    0.144715  -3.512218   1.028202   0.028047  -0.022565  -0.017484
     7  N    7.305497  -0.736934   0.631156   0.283725   0.006653  -0.051576
     8  C   -0.736934  11.922518  -2.173004  -0.016658   0.315828   0.033507
     9  C    0.631156  -2.173004   6.596086  -0.011618  -0.035261   0.317121
    10  H    0.283725  -0.016658  -0.011618   0.305879  -0.000065  -0.002169
    11  H    0.006653   0.315828  -0.035261  -0.000065   0.457343  -0.000640
    12  H   -0.051576   0.033507   0.317121  -0.002169  -0.000640   0.450795
    13  H   -0.000514   0.000001   0.001119  -0.000002   0.000000  -0.000000
    14  H   -0.002509  -0.013276   0.013421   0.001626   0.000002   0.000002
    15  H    0.000299   0.005254  -0.000020  -0.000000  -0.000002  -0.000000
    16  H   -0.000969  -0.043682   0.006590   0.000003   0.001247  -0.000001
              13         14         15         16
     1  C    0.004419   0.009503   0.308848   0.018667
     2  C    0.281325   0.059883  -0.011535   0.008727
     3  C   -0.011929   0.183623   0.026847  -0.028089
     4  C    0.021611   0.056131  -0.021949   0.039340
     5  C    0.004947   0.001711   0.046710   0.120387
     6  C    0.008577  -0.009442  -0.040976   0.178090
     7  N   -0.000514  -0.002509   0.000299  -0.000969
     8  C    0.000001  -0.013276   0.005254  -0.043682
     9  C    0.001119   0.013421  -0.000020   0.006590
    10  H   -0.000002   0.001626  -0.000000   0.000003
    11  H    0.000000   0.000002  -0.000002   0.001247
    12  H   -0.000000   0.000002  -0.000000  -0.000001
    13  H    0.490820  -0.003686  -0.003764  -0.000137
    14  H   -0.003686   0.502408  -0.000138   0.000016
    15  H   -0.003764  -0.000138   0.497141  -0.003849
    16  H   -0.000137   0.000016  -0.003849   0.505509
 Mulliken charges:
               1
     1  C   -0.026351
     2  C   -0.471963
     3  C   -0.087602
     4  C   -0.954749
     5  C    1.103151
     6  C   -0.690849
     7  N   -0.511897
     8  C    0.215752
     9  C   -0.305826
    10  H    0.452620
    11  H    0.236936
    12  H    0.237554
    13  H    0.207213
    14  H    0.200726
    15  H    0.197134
    16  H    0.198151
 Sum of Mulliken charges =  -0.00000
 Mulliken charges with hydrogens summed into heavy atoms:
               1
     1  C    0.170783
     2  C   -0.264750
     3  C    0.113124
     4  C   -0.954749
     5  C    1.103151
     6  C   -0.492698
     7  N   -0.059277
     8  C    0.452689
     9  C   -0.068273
 Electronic spatial extent (au):  <R**2>=           1008.2860
 Charge=             -0.0000 electrons
 Dipole moment (field-independent basis, Debye):
    X=              3.3557    Y=             -1.6560    Z=             -0.0626  Tot=              3.7426
 Quadrupole moment (field-independent basis, Debye-Ang):
   XX=            -44.9062   YY=            -47.1527   ZZ=            -60.7327
   XY=             -1.4704   XZ=             -0.1287   YZ=              0.1038
 Traceless Quadrupole moment (field-independent basis, Debye-Ang):
   XX=              6.0244   YY=              3.7778   ZZ=             -9.8022
   XY=             -1.4704   XZ=             -0.1287   YZ=              0.1038
 Octapole moment (field-independent basis, Debye-Ang**2):
  XXX=             24.2129  YYY=            -10.2732  ZZZ=             -0.4043  XYY=             13.2799
  XXY=             -7.7351  XXZ=             -0.4462  XZZ=              4.0389  YZZ=             -1.6614
  YYZ=             -0.4037  XYZ=              0.1360
 Hexadecapole moment (field-independent basis, Debye-Ang**3):
 XXXX=           -833.6667 YYYY=           -395.8271 ZZZZ=            -86.8816 XXXY=            -10.2066
 XXXZ=             -1.9993 YYYX=            -14.5628 YYYZ=              0.9327 ZZZX=             -0.7272
 ZZZY=              0.5914 XXYY=           -197.4486 XXZZ=           -200.4608 YYZZ=           -104.5507
 XXYZ=              0.5978 YYXZ=             -0.2990 ZZXY=             -0.8716
 N-N= 4.013368668897D+02 E-N=-1.644801664763D+03  KE= 3.607614560112D+02
 Calling FoFJK, ICntrl=  10005127 FMM=F ISym2X=0 I1Cent= 0 IOpClX= 0 NMat=1 NMatS=1 NMatT=0.
 ***** Axes restored to original set *****
 -------------------------------------------------------------------
 Center     Atomic                   Forces (Hartrees/Bohr)
 Number     Number              X              Y              Z
 -------------------------------------------------------------------
      1        6          -0.021768953   -0.009193223   -0.000134802
      2        6          -0.024138960    0.019477405    0.000085881
      3        6           0.024361053   -0.035804986    0.000201052
      4        6          -0.001187933    0.003398312   -0.000380032
      5        6           0.032601008    0.007230781    0.000107284
      6        6          -0.001008066    0.035867165    0.000274858
      7        7           0.020541726    0.012968610   -0.000132858
      8        6          -0.049308952    0.021036121   -0.000147561
      9        6           0.016659117   -0.050225776    0.000149689
     10        1           0.002453592   -0.005541486    0.000147659
     11        1           0.001104055    0.003043065   -0.000006345
     12        1           0.003367027   -0.000941141    0.000004492
     13        1          -0.002547165   -0.001593552    0.000005577
     14        1           0.000676762   -0.002130633   -0.000085016
     15        1          -0.002334177    0.000499245   -0.000037593
     16        1           0.000529865    0.001910093   -0.000052286
 -------------------------------------------------------------------
 Cartesian Forces:  Max     0.050225776 RMS     0.015915877

 GradGradGradGradGradGradGradGradGradGradGradGradGradGradGradGradGradGrad
 Berny optimization.
 FormGI is forming the generalized inverse of G from B-inverse, IUseBI=4.
 Internal  Forces:  Max     0.045052382 RMS     0.009238133
 Search for a local minimum.
 Step number   1 out of a maximum of   94
 All quantities printed in internal units (Hartrees-Bohrs-Radians)
 Mixed Optimization -- RFO/linear search
 Second derivative matrix not updated -- first step.
 ITU=  0
     Eigenvalues ---    0.01853   0.01931   0.01986   0.02012   0.02070
     Eigenvalues ---    0.02113   0.02148   0.02153   0.02172   0.02209
     Eigenvalues ---    0.02233   0.02248   0.02338   0.16000   0.16000
     Eigenvalues ---    0.16000   0.16000   0.16000   0.16000   0.16000
     Eigenvalues ---    0.22000   0.22188   0.22662   0.24011   0.24651
     Eigenvalues ---    0.35712   0.35717   0.35783   0.35790   0.36420
     Eigenvalues ---    0.36427   0.37009   0.38432   0.42633   0.43465
     Eigenvalues ---    0.45769   0.46692   0.47162   0.47468   0.47567
     Eigenvalues ---    0.48125   0.50955
 RFO step:  Lambda=-1.53778612D-02 EMin= 1.85287394D-02
 Linear search not attempted -- first point.
 Iteration  1 RMS(Cart)=  0.02859707 RMS(Int)=  0.00020988
 Iteration  2 RMS(Cart)=  0.00030854 RMS(Int)=  0.00004221
 Iteration  3 RMS(Cart)=  0.00000006 RMS(Int)=  0.00004221
 Variable       Old X    -DE/DX   Delta X   Delta X   Delta X     New X
                                 (Linear)    (Quad)   (Total)
    R1        2.65547   0.00897   0.00000   0.01994   0.01993   2.67540
    R2        2.61291   0.02658   0.00000   0.05356   0.05356   2.66647
    R3        2.04421   0.00229   0.00000   0.00614   0.00614   2.05036
    R4        2.61557   0.03981   0.00000   0.07975   0.07974   2.69531
    R5        2.04411   0.00300   0.00000   0.00805   0.00805   2.05216
    R6        2.63373   0.01053   0.00000   0.02125   0.02125   2.65498
    R7        2.04534   0.00214   0.00000   0.00575   0.00575   2.05109
    R8        2.68058   0.01732   0.00000   0.03730   0.03721   2.71778
    R9        2.60126   0.01533   0.00000   0.02913   0.02911   2.63037
   R10        2.64771   0.02795   0.00000   0.05955   0.05956   2.70726
   R11        2.70839  -0.02040   0.00000  -0.04833  -0.04837   2.66002
   R12        2.04526   0.00189   0.00000   0.00508   0.00508   2.05035
   R13        2.60573  -0.01956   0.00000  -0.03788  -0.03779   2.56794
   R14        1.89542   0.00603   0.00000   0.01238   0.01238   1.90780
   R15        2.57870   0.04505   0.00000   0.08522   0.08530   2.66399
   R16        2.03419   0.00324   0.00000   0.00853   0.00853   2.04272
   R17        2.03430   0.00345   0.00000   0.00908   0.00908   2.04339
    A1        2.11420  -0.00055   0.00000   0.00015   0.00011   2.11431
    A2        2.07986  -0.00041   0.00000  -0.00397  -0.00396   2.07590
    A3        2.08912   0.00096   0.00000   0.00383   0.00385   2.09297
    A4        2.11523   0.00640   0.00000   0.02837   0.02832   2.14355
    A5        2.08365  -0.00310   0.00000  -0.01363  -0.01361   2.07004
    A6        2.08430  -0.00330   0.00000  -0.01474  -0.01471   2.06959
    A7        2.05144  -0.00667   0.00000  -0.02952  -0.02955   2.02188
    A8        2.11267   0.00400   0.00000   0.01856   0.01857   2.13124
    A9        2.11908   0.00267   0.00000   0.01096   0.01098   2.13006
   A10        2.13389   0.00120   0.00000   0.00447   0.00452   2.13841
   A11        2.27895  -0.00671   0.00000  -0.02242  -0.02236   2.25659
   A12        1.87035   0.00550   0.00000   0.01795   0.01783   1.88818
   A13        2.07274   0.00742   0.00000   0.02819   0.02827   2.10101
   A14        1.86517  -0.00571   0.00000  -0.02322  -0.02337   1.84181
   A15        2.34527  -0.00171   0.00000  -0.00497  -0.00490   2.34037
   A16        2.07887  -0.00780   0.00000  -0.03166  -0.03168   2.04720
   A17        2.10306   0.00449   0.00000   0.01920   0.01921   2.12227
   A18        2.10125   0.00331   0.00000   0.01246   0.01246   2.11372
   A19        1.90743  -0.00062   0.00000  -0.00349  -0.00341   1.90401
   A20        2.19023   0.00088   0.00000   0.00496   0.00493   2.19515
   A21        2.18553  -0.00025   0.00000  -0.00148  -0.00152   2.18401
   A22        1.86968   0.00518   0.00000   0.02425   0.02428   1.89396
   A23        2.21717  -0.00261   0.00000  -0.01224  -0.01226   2.20491
   A24        2.19633  -0.00257   0.00000  -0.01201  -0.01202   2.18431
   A25        1.91215  -0.00436   0.00000  -0.01549  -0.01533   1.89682
   A26        2.10250   0.00159   0.00000   0.00441   0.00432   2.10683
   A27        2.26854   0.00277   0.00000   0.01109   0.01101   2.27954
    D1       -0.00001  -0.00005   0.00000  -0.00136  -0.00137  -0.00139
    D2       -3.14156  -0.00002   0.00000  -0.00071  -0.00072   3.14091
    D3        3.14152  -0.00003   0.00000  -0.00085  -0.00087   3.14066
    D4       -0.00002  -0.00001   0.00000  -0.00020  -0.00021  -0.00023
    D5       -0.00003   0.00007   0.00000   0.00190   0.00189   0.00186
    D6        3.14153  -0.00000   0.00000  -0.00011  -0.00012   3.14141
    D7       -3.14157   0.00005   0.00000   0.00139   0.00138  -3.14019
    D8       -0.00001  -0.00002   0.00000  -0.00062  -0.00063  -0.00064
    D9        0.00003  -0.00001   0.00000  -0.00028  -0.00028  -0.00024
   D10       -3.14154   0.00004   0.00000   0.00098   0.00100  -3.14054
   D11        3.14158  -0.00003   0.00000  -0.00092  -0.00094   3.14064
   D12        0.00001   0.00001   0.00000   0.00034   0.00034   0.00035
   D13       -0.00001   0.00005   0.00000   0.00134   0.00134   0.00133
   D14       -3.14144  -0.00005   0.00000  -0.00144  -0.00141   3.14033
   D15        3.14156   0.00000   0.00000   0.00007   0.00007  -3.14156
   D16        0.00013  -0.00010   0.00000  -0.00270  -0.00269  -0.00255
   D17       -0.00004  -0.00003   0.00000  -0.00079  -0.00080  -0.00084
   D18       -3.14151  -0.00001   0.00000  -0.00037  -0.00039   3.14128
   D19        3.14143   0.00005   0.00000   0.00142   0.00144  -3.14032
   D20       -0.00005   0.00007   0.00000   0.00183   0.00185   0.00179
   D21       -3.14124   0.00007   0.00000   0.00174   0.00173  -3.13952
   D22       -0.00113  -0.00001   0.00000  -0.00037  -0.00037  -0.00150
   D23        0.00049  -0.00002   0.00000  -0.00072  -0.00072  -0.00022
   D24        3.14060  -0.00010   0.00000  -0.00282  -0.00281   3.13780
   D25        0.00005  -0.00003   0.00000  -0.00085  -0.00085  -0.00079
   D26       -3.14151   0.00004   0.00000   0.00116   0.00115  -3.14036
   D27        3.14150  -0.00005   0.00000  -0.00141  -0.00140   3.14010
   D28       -0.00007   0.00002   0.00000   0.00060   0.00060   0.00053
   D29       -0.00041  -0.00008   0.00000  -0.00227  -0.00226  -0.00267
   D30        3.14139  -0.00001   0.00000  -0.00050  -0.00048   3.14091
   D31        3.14132  -0.00006   0.00000  -0.00176  -0.00177   3.13955
   D32       -0.00006   0.00000   0.00000   0.00001   0.00001  -0.00005
   D33       -0.00077  -0.00002   0.00000  -0.00072  -0.00069  -0.00147
   D34        3.14133  -0.00001   0.00000  -0.00036  -0.00033   3.14100
   D35       -3.14089   0.00005   0.00000   0.00137   0.00138  -3.13951
   D36        0.00121   0.00006   0.00000   0.00173   0.00174   0.00295
   D37        0.00072   0.00007   0.00000   0.00188   0.00191   0.00263
   D38       -3.14144   0.00006   0.00000   0.00146   0.00149  -3.13995
   D39       -3.14107   0.00001   0.00000   0.00013   0.00015  -3.14092
   D40       -0.00005  -0.00001   0.00000  -0.00028  -0.00027  -0.00032
         Item               Value     Threshold  Converged?
 Maximum Force            0.045052     0.000450     NO 
 RMS     Force            0.009238     0.000300     NO 
 Maximum Displacement     0.105127     0.001800     NO 
 RMS     Displacement     0.028578     0.001200     NO 
 Predicted change in Energy=-7.957791D-03
 GradGradGradGradGradGradGradGradGradGradGradGradGradGradGradGradGradGrad

                          Input orientation:                          
 ---------------------------------------------------------------------
 Center     Atomic      Atomic             Coordinates (Angstroms)
 Number     Number       Type             X           Y           Z
 ---------------------------------------------------------------------
      1          6           0       -2.180779    0.708390    0.000247
      2          6           0       -2.135487   -0.706647    0.000403
      3          6           0       -0.912698   -1.440889   -0.000198
      4          6           0        0.263305   -0.672179   -0.001275
      5          6           0        0.247009    0.765917   -0.000137
      6          6           0       -0.997043    1.476369    0.001150
      7          7           0        1.590555   -1.091563   -0.000699
      8          6           0        1.598895    1.158087   -0.001329
      9          6           0        2.401281   -0.001005    0.000445
     10          1           0        1.906508   -2.050412    0.001861
     11          1           0        1.971355    2.172853   -0.001543
     12          1           0        3.476836   -0.112439    0.001598
     13          1           0       -3.071775   -1.256798    0.000334
     14          1           0       -0.891338   -2.526067   -0.001038
     15          1           0       -3.146599    1.202778   -0.000155
     16          1           0       -1.023122    2.561052    0.000870
 ---------------------------------------------------------------------
                    Distance matrix (angstroms):
                    1          2          3          4          5
     1  C    0.000000
     2  C    1.415761   0.000000
     3  C    2.495482   1.426298   0.000000
     4  C    2.807048   2.399040   1.404956   0.000000
     5  C    2.428469   2.800845   2.492973   1.438189   0.000000
     6  C    1.411036   2.462034   2.918477   2.490931   1.432623
     7  N    4.178851   3.745872   2.527510   1.391933   2.292455
     8  C    3.806332   4.174068   3.614247   2.265761   1.407620
     9  C    4.636649   4.591318   3.613271   2.240853   2.286714
    10  H    4.931218   4.259511   2.884345   2.144680   3.268891
    11  H    4.402825   5.015742   4.623516   3.318379   2.225497
    12  H    5.716850   5.643692   4.586153   3.261917   3.347133
    13  H    2.157739   1.085957   2.166911   3.385933   3.886606
    14  H    3.482007   2.204133   1.085389   2.184056   3.483245
    15  H    1.085002   2.160613   3.461111   3.891389   3.421611
    16  H    2.184611   3.451842   4.003464   3.479753   2.199032
                    6          7          8          9         10
     6  C    0.000000
     7  N    3.645537   0.000000
     8  C    2.615377   2.249665   0.000000
     9  C    3.705569   1.358895   1.409724   0.000000
    10  H    4.568237   1.009566   3.223213   2.108286   0.000000
    11  H    3.049013   3.286551   1.080961   2.215964   4.223764
    12  H    4.747621   2.125264   2.267358   1.081313   2.494327
    13  H    3.431431   4.665258   5.258025   5.615279   5.041144
    14  H    4.003832   2.866635   4.446825   4.149371   2.837992
    15  H    2.166898   5.263519   4.745704   5.676977   6.009754
    16  H    1.084997   4.491425   2.973766   4.276759   5.463362
                   11         12         13         14         15
    11  H    0.000000
    12  H    2.736612   0.000000
    13  H    6.098825   6.647847   0.000000
    14  H    5.502260   4.990647   2.522965   0.000000
    15  H    5.209079   6.752755   2.460714   4.357808   0.000000
    16  H    3.019535   5.234231   4.332777   5.088826   2.520727
                   16
    16  H    0.000000
 Stoichiometry    C8H7N
 Framework group  C1[X(C8H7N)]
 Deg. of freedom    42
 Full point group                 C1      NOp   1
 Largest Abelian subgroup         C1      NOp   1
 Largest concise Abelian subgroup C1      NOp   1
                         Standard orientation:                         
 ---------------------------------------------------------------------
 Center     Atomic      Atomic             Coordinates (Angstroms)
 Number     Number       Type             X           Y           Z
 ---------------------------------------------------------------------
      1          6           0       -2.198939    0.651845    0.000362
      2          6           0       -2.117953   -0.761598    0.000518
      3          6           0       -0.877025   -1.464750   -0.000083
      4          6           0        0.279205   -0.666608   -0.001160
      5          6           0        0.226624    0.770619   -0.000022
      6          6           0       -1.034959    1.449450    0.001265
      7          7           0        1.616616   -1.052365   -0.000584
      8          6           0        1.568183    1.196778   -0.001214
      9          6           0        2.399564    0.058304    0.000560
     10          1           0        1.956665   -2.002936    0.001975
     11          1           0        1.914917    2.220620   -0.001428
     12          1           0        3.477588   -0.025953    0.001713
     13          1           0       -3.040060   -1.335201    0.000449
     14          1           0       -0.828287   -2.549043   -0.000923
     15          1           0       -3.176928    1.121703   -0.000040
     16          1           0       -1.088402    2.533130    0.000985
 ---------------------------------------------------------------------
 Rotational constants (GHZ):           3.7911607           1.6208515           1.1354206
 Standard basis: 6-31+G(d) (6D, 7F)
 There are   185 symmetry adapted cartesian basis functions of A   symmetry.
 There are   185 symmetry adapted basis functions of A   symmetry.
   185 basis functions,   316 primitive gaussians,   185 cartesian basis functions
    31 alpha electrons       31 beta electrons
       nuclear repulsion energy       397.4046068835 Hartrees.
 NAtoms=   16 NActive=   16 NUniq=   16 SFac= 1.00D+00 NAtFMM=   60 NAOKFM=F Big=F
 Integral buffers will be    131072 words long.
 Regular integral format.
 Two-electron integral symmetry is turned on.
 One-electron integrals computed using PRISM.
 NBasis=   185 RedAO= T EigKep=  1.37D-06  NBF=   185
 NBsUse=   185 1.00D-06 EigRej= -1.00D+00 NBFU=   185
 Initial guess from the checkpoint file:  "FuncsM062X-V-2nd.chk"
 B after Tr=     0.000000   -0.000000   -0.000000
         Rot=    0.999927   -0.000051   -0.000065   -0.012109 Ang=  -1.39 deg.
 ExpMin= 4.38D-02 ExpMax= 4.17D+03 ExpMxC= 6.27D+02 IAcc=3 IRadAn=         5 AccDes= 0.00D+00
 Harris functional with IExCor= 1009 and IRadAn=       5 diagonalized for initial guess.
 HarFok:  IExCor= 1009 AccDes= 0.00D+00 IRadAn=         5 IDoV= 1 UseB2=F ITyADJ=14
 ICtDFT=  3500011 ScaDFX=  1.000000  1.000000  1.000000  1.000000
 FoFCou: FMM=F IPFlag=           0 FMFlag=      100000 FMFlg1=           0
         NFxFlg=           0 DoJE=T BraDBF=F KetDBF=T FulRan=T
         wScrn=  0.000000 ICntrl=       500 IOpCl=  0 I1Cent=   200000004 NGrid=           0
         NMat0=    1 NMatS0=      1 NMatT0=    0 NMatD0=    1 NMtDS0=    0 NMtDT0=    0
 Petite list used in FoFCou.
 Keep R1 ints in memory in canonical form, NReq=152074523.
 Requested convergence on RMS density matrix=1.00D-08 within 128 cycles.
 Requested convergence on MAX density matrix=1.00D-06.
 Requested convergence on             energy=1.00D-06.
 No special actions if energy rises.
 SCF Done:  E(RM062X) =  -363.665513688     A.U. after   13 cycles
            NFock= 13  Conv=0.72D-08     -V/T= 2.0097
 DoSCS=F DFT=T ScalE2(SS,OS)=  1.000000  1.000000
 ExpMin= 4.38D-02 ExpMax= 4.17D+03 ExpMxC= 6.27D+02 IAcc=3 IRadAn=         5 AccDes= 0.00D+00
 HarFok:  IExCor=  205 AccDes= 0.00D+00 IRadAn=         5 IDoV=-2 UseB2=F ITyADJ=14
 ICtDFT= 12500011 ScaDFX=  1.000000  1.000000  1.000000  1.000000
 Range of M.O.s used for correlation:    10   185
 NBasis=   185 NAE=    31 NBE=    31 NFC=     9 NFV=     0
 NROrb=    176 NOA=    22 NOB=    22 NVA=   154 NVB=   154

 **** Warning!!: The largest alpha MO coefficient is  0.17773348D+03

 Orbital symmetries:
       Occupied  (A) (A) (A) (A) (A) (A) (A) (A) (A) (A) (A) (A)
                 (A) (A) (A) (A) (A) (A) (A) (A) (A) (A) (A) (A)
                 (A) (A) (A) (A) (A) (A) (A)
       Virtual   (A) (A) (A) (A) (A) (A) (A) (A) (A) (A) (A) (A)
                 (A) (A) (A) (A) (A) (A) (A) (A) (A) (A) (A) (A)
                 (A) (A) (A) (A) (A) (A) (A) (A) (A) (A) (A) (A)
                 (A) (A) (A) (A) (A) (A) (A) (A) (A) (A) (A) (A)
                 (A) (A) (A) (A) (A) (A) (A) (A) (A) (A) (A) (A)
                 (A) (A) (A) (A) (A) (A) (A) (A) (A) (A) (A) (A)
                 (A) (A) (A) (A) (A) (A) (A) (A) (A) (A) (A) (A)
                 (A) (A) (A) (A) (A) (A) (A) (A) (A) (A) (A) (A)
                 (A) (A) (A) (A) (A) (A) (A) (A) (A) (A) (A) (A)
                 (A) (A) (A) (A) (A) (A) (A) (A) (A) (A) (A) (A)
                 (A) (A) (A) (A) (A) (A) (A) (A) (A) (A) (A) (A)
                 (A) (A) (A) (A) (A) (A) (A) (A) (A) (A) (A) (A)
                 (A) (A) (A) (A) (A) (A) (A) (A) (A) (A)
 Generating guess from densities on rwf.
 Convergence on wavefunction:    0.000001000000000
 Iteration     1 Dimension    12 NMult     0 NNew     12
 CISAX will form    12 AO SS matrices at one time.
 New state      1 was old state      2
 New state      2 was old state      1
 New state      4 was old state      6
 New state      6 was old state      4
 Iteration     2 Dimension    24 NMult    12 NNew     12
 New state      2 was old state      3
 New state      3 was old state      2
 Iteration     3 Dimension    36 NMult    24 NNew     12
 Iteration     4 Dimension    48 NMult    36 NNew     12
 Iteration     5 Dimension    60 NMult    48 NNew     12
 Iteration     6 Dimension    72 NMult    60 NNew     12
 Iteration     7 Dimension    84 NMult    72 NNew     12
 Iteration     8 Dimension    96 NMult    84 NNew     12
 Iteration     9 Dimension   108 NMult    96 NNew     12
 Iteration    10 Dimension   118 NMult   108 NNew     10
 Iteration    11 Dimension   124 NMult   118 NNew      6
 Iteration    12 Dimension   126 NMult   124 NNew      2
 ***********************************************************************
 Excited states from <AA,BB:AA,BB> singles matrix:
 ***********************************************************************
 
 Ground to excited state transition densities written to RWF  633
 Ground to excited state transition electric dipole moments (Au):
       state          X           Y           Z        Dip. S.      Osc.
         1         0.0084     -0.0067     -0.1357      0.0185      0.0022
         2        -1.0021      0.6022     -0.0009      1.3668      0.1588
         3        -0.0901     -0.3642      0.0009      0.1408      0.0172
         4        -0.0010     -0.0008     -0.0796      0.0063      0.0009
         5         0.0000      0.0001      0.1187      0.0141      0.0020
         6        -0.0051     -0.0000     -0.0793      0.0063      0.0009
 Ground to excited state transition velocity dipole moments (Au):
       state          X           Y           Z        Dip. S.      Osc.
         1        -0.0014      0.0014      0.0168      0.0003      0.0011
         2         0.1688     -0.1181      0.0001      0.0424      0.1623
         3         0.0168      0.0728     -0.0001      0.0056      0.0204
         4         0.0002      0.0002      0.0186      0.0003      0.0011
         5         0.0000      0.0001     -0.0229      0.0005      0.0017
         6         0.0011     -0.0000      0.0212      0.0005      0.0014
 Ground to excited state transition magnetic dipole moments (Au):
       state          X           Y           Z
         1         0.1525     -0.1106     -0.0004
         2         0.0015     -0.0015      0.2079
         3        -0.0015      0.0006     -0.0178
         4         0.2377     -0.3758     -0.0003
         5         0.2177      0.2505      0.0013
         6        -0.0427     -0.1457     -0.0010
 Ground to excited state transition velocity quadrupole moments (Au):
       state          XX          YY          ZZ          XY          XZ          YZ
         1        -0.0027      0.0015      0.0002     -0.0005      0.0754      0.0578
         2         0.2082     -0.1730      0.0183      0.0715      0.0009      0.0001
         3        -0.0701     -0.0337      0.0146      0.0041     -0.0007     -0.0006
         4        -0.0007     -0.0005      0.0001      0.0000      0.3507      0.2097
         5        -0.0000     -0.0005      0.0004      0.0005     -0.1861      0.0990
         6        -0.0003     -0.0007      0.0002      0.0000      0.0521     -0.0913
 <0|del|b> * <b|rxdel|0> + <0|del|b> * <b|delr+rdel|0>
 Rotatory Strengths (R) in cgs (10**-40 erg-esu-cm/Gauss)
       state          XX          YY          ZZ    R(velocity)    E-M Angle
         1        -0.5331     -0.5846     -0.3594     -0.4924       96.81
         2         0.6136      0.5842      0.6186      0.6055       89.40
         3         0.1852     -0.0662     -0.0557      0.0211       90.00
         4        -0.2231      0.1787      0.0045     -0.0133       90.00
         5        -0.0280     -0.0170      0.0122     -0.0109       90.00
         6        -0.0325     -0.2881      0.0928     -0.0759       90.00
 1/2[<0|r|b>*<b|rxdel|0> + (<0|rxdel|b>*<b|r|0>)*]
 Rotatory Strengths (R) in cgs (10**-40 erg-esu-cm/Gauss)
       state          XX          YY          ZZ     R(length)
         1        -0.9022     -0.5212     -0.0396     -0.4877
         2         1.0726      0.6320      0.1374      0.6140
         3        -0.0956      0.1421      0.0112      0.0192
         4         0.1670     -0.2145     -0.0175     -0.0216
         5        -0.0046     -0.0156     -0.1115     -0.0439
         6        -0.1540     -0.0044     -0.0582     -0.0722
  1/2[<0|del|b>*<b|r|0> + (<0|r|b>*<b|del|0>)*] (Au)
       state          X           Y           Z        Dip. S.   Osc.(frdel)
         1        -0.0000     -0.0000     -0.0023      0.0023      0.0015
         2        -0.1691     -0.0711     -0.0000      0.2402      0.1602
         3        -0.0015     -0.0265     -0.0000      0.0280      0.0187
         4        -0.0000     -0.0000     -0.0015      0.0015      0.0010
         5         0.0000      0.0000     -0.0027      0.0027      0.0018
         6        -0.0000      0.0000     -0.0017      0.0017      0.0011

 Excitation energies and oscillator strengths:
 
 Excited State   1:      Singlet-A      4.9088 eV  252.58 nm  f=0.0022  <S**2>=0.000
      31 -> 33         0.69393
 
 Excited State   2:      Singlet-A      4.7419 eV  261.47 nm  f=0.1588  <S**2>=0.000
      30 -> 38         0.13136
      31 -> 32         0.67536
      31 -> 38        -0.11349
 This state for optimization and/or second-order correction.
 Total Energy, E(TD-HF/TD-DFT) =  -363.491253480    
 Copying the excited state density for this state as the 1-particle RhoCI density.
 
 Excited State   3:      Singlet-A      4.9771 eV  249.11 nm  f=0.0172  <S**2>=0.000
      30 -> 32         0.56067
      31 -> 32        -0.11709
      31 -> 38        -0.38226
 
 Excited State   4:      Singlet-A      5.5830 eV  222.07 nm  f=0.0009  <S**2>=0.000
      30 -> 33         0.12778
      31 -> 34         0.66478
      31 -> 35        -0.13479
 
 Excited State   5:      Singlet-A      5.6569 eV  219.17 nm  f=0.0020  <S**2>=0.000
      31 -> 34         0.12689
      31 -> 35         0.66290
      31 -> 36         0.13418
 
 Excited State   6:      Singlet-A      5.7692 eV  214.91 nm  f=0.0009  <S**2>=0.000
      30 -> 33         0.66906
      30 -> 34        -0.10251
      31 -> 34        -0.13249
 SavETr:  write IOETrn=   770 NScale= 10 NData=  16 NLR=1 NState=    6 LETran=     118.
          IDoAtm=1111111111111111
          Differentiating once with respect to electric field.
                with respect to dipole field.
          Differentiating once with respect to nuclear coordinates.
 Keep R1 ints in memory in canonical form, NReq=152086915.
          There are     1 degrees of freedom in the 1st order CPHF.  IDoFFX=0 NUNeed=     1.
 LinEq1:  Iter=  0 NonCon=     1 RMS=8.60D-03 Max=1.99D-01 NDo=     1
 AX will form     1 AO Fock derivatives at one time.
 LinEq1:  Iter=  1 NonCon=     1 RMS=3.08D-03 Max=7.44D-02 NDo=     1
 LinEq1:  Iter=  2 NonCon=     1 RMS=1.59D-03 Max=4.07D-02 NDo=     1
 LinEq1:  Iter=  3 NonCon=     1 RMS=8.36D-04 Max=1.87D-02 NDo=     1
 LinEq1:  Iter=  4 NonCon=     1 RMS=3.49D-04 Max=1.00D-02 NDo=     1
 LinEq1:  Iter=  5 NonCon=     1 RMS=1.91D-04 Max=3.80D-03 NDo=     1
 LinEq1:  Iter=  6 NonCon=     1 RMS=9.59D-05 Max=2.13D-03 NDo=     1
 LinEq1:  Iter=  7 NonCon=     1 RMS=5.21D-05 Max=1.55D-03 NDo=     1
 LinEq1:  Iter=  8 NonCon=     1 RMS=1.94D-05 Max=3.45D-04 NDo=     1
 LinEq1:  Iter=  9 NonCon=     1 RMS=1.03D-05 Max=2.10D-04 NDo=     1
 LinEq1:  Iter= 10 NonCon=     1 RMS=4.30D-06 Max=1.08D-04 NDo=     1
 LinEq1:  Iter= 11 NonCon=     1 RMS=1.87D-06 Max=2.29D-05 NDo=     1
 LinEq1:  Iter= 12 NonCon=     1 RMS=8.38D-07 Max=2.01D-05 NDo=     1
 LinEq1:  Iter= 13 NonCon=     1 RMS=4.63D-07 Max=9.69D-06 NDo=     1
 LinEq1:  Iter= 14 NonCon=     1 RMS=1.57D-07 Max=4.18D-06 NDo=     1
 LinEq1:  Iter= 15 NonCon=     1 RMS=4.65D-08 Max=9.21D-07 NDo=     1
 LinEq1:  Iter= 16 NonCon=     1 RMS=2.70D-08 Max=6.10D-07 NDo=     1
 LinEq1:  Iter= 17 NonCon=     1 RMS=6.26D-09 Max=9.32D-08 NDo=     1
 LinEq1:  Iter= 18 NonCon=     1 RMS=1.30D-09 Max=1.99D-08 NDo=     1
 LinEq1:  Iter= 19 NonCon=     1 RMS=3.56D-10 Max=4.69D-09 NDo=     1
 LinEq1:  Iter= 20 NonCon=     1 RMS=1.59D-10 Max=3.47D-09 NDo=     1
 LinEq1:  Iter= 21 NonCon=     0 RMS=5.63D-11 Max=6.94D-10 NDo=     1
 Linear equations converged to 1.000D-10 1.000D-09 after    21 iterations.
 End of Minotr F.D. properties file   721 does not exist.
 End of Minotr F.D. properties file   722 does not exist.
 End of Minotr F.D. properties file   788 does not exist.
 Calling FoFJK, ICntrl=  10005127 FMM=F ISym2X=0 I1Cent= 0 IOpClX= 0 NMat=1 NMatS=1 NMatT=0.
 ***** Axes restored to original set *****
 -------------------------------------------------------------------
 Center     Atomic                   Forces (Hartrees/Bohr)
 Number     Number              X              Y              Z
 -------------------------------------------------------------------
      1        6           0.000663540   -0.023700872    0.000043149
      2        6          -0.011142330    0.027578027   -0.000087704
      3        6           0.017927168   -0.006263752    0.000063080
      4        6          -0.022664635    0.012115176    0.000110825
      5        6           0.009637045   -0.020618990   -0.000143363
      6        6          -0.001121835    0.005692623   -0.000053792
      7        7           0.010924257    0.023041980    0.000002620
      8        6          -0.016978134    0.010359892    0.000134921
      9        6           0.011714622   -0.027872070   -0.000070544
     10        1          -0.000411713   -0.001266422    0.000003729
     11        1           0.001980358    0.000123507   -0.000004563
     12        1          -0.000479832    0.001300983   -0.000011070
     13        1           0.000018995   -0.000161794    0.000000373
     14        1          -0.000901161    0.000911549   -0.000015414
     15        1           0.000001489   -0.000394822    0.000020248
     16        1           0.000832169   -0.000845015    0.000007503
 -------------------------------------------------------------------
 Cartesian Forces:  Max     0.027872070 RMS     0.010196519

 GradGradGradGradGradGradGradGradGradGradGradGradGradGradGradGradGradGrad
 Berny optimization.
 Using GEDIIS/GDIIS optimizer.
 FormGI is forming the generalized inverse of G from B-inverse, IUseBI=4.
 Internal  Forces:  Max     0.021223986 RMS     0.004509963
 Search for a local minimum.
 Step number   2 out of a maximum of   94
 All quantities printed in internal units (Hartrees-Bohrs-Radians)
 Mixed Optimization -- RFO/linear search
 Update second derivatives using D2CorX and points    1    2
 DE= -9.64D-03 DEPred=-7.96D-03 R= 1.21D+00
 TightC=F SS=  1.41D+00  RLast= 1.87D-01 DXNew= 5.0454D-01 5.6155D-01
 Trust test= 1.21D+00 RLast= 1.87D-01 DXMaxT set to 5.05D-01
 ITU=  1  0
 Use linear search instead of GDIIS.
     Eigenvalues ---    0.01854   0.01932   0.01986   0.02010   0.02071
     Eigenvalues ---    0.02113   0.02148   0.02156   0.02171   0.02210
     Eigenvalues ---    0.02233   0.02248   0.02340   0.15819   0.16000
     Eigenvalues ---    0.16000   0.16000   0.16000   0.16000   0.16029
     Eigenvalues ---    0.18373   0.22045   0.22836   0.24645   0.25330
     Eigenvalues ---    0.31457   0.35715   0.35731   0.35786   0.35828
     Eigenvalues ---    0.36427   0.36479   0.38117   0.38891   0.43049
     Eigenvalues ---    0.44841   0.46616   0.47053   0.47188   0.47689
     Eigenvalues ---    0.49546   0.68158
 RFO step:  Lambda=-4.96339157D-03 EMin= 1.85425386D-02
 Quartic linear search produced a step of  0.11485.
 Iteration  1 RMS(Cart)=  0.01401164 RMS(Int)=  0.00016343
 Iteration  2 RMS(Cart)=  0.00020106 RMS(Int)=  0.00006765
 Iteration  3 RMS(Cart)=  0.00000002 RMS(Int)=  0.00006765
 Variable       Old X    -DE/DX   Delta X   Delta X   Delta X     New X
                                 (Linear)    (Quad)   (Total)
    R1        2.67540  -0.02122   0.00229  -0.04804  -0.04578   2.62962
    R2        2.66647   0.00277   0.00615   0.01605   0.02217   2.68864
    R3        2.05036  -0.00018   0.00071   0.00043   0.00113   2.05149
    R4        2.69531   0.01098   0.00916   0.03929   0.04845   2.74376
    R5        2.05216   0.00007   0.00092   0.00149   0.00242   2.05458
    R6        2.65498  -0.00716   0.00244  -0.01348  -0.01101   2.64397
    R7        2.05109  -0.00093   0.00066  -0.00193  -0.00127   2.04982
    R8        2.71778  -0.01654   0.00427  -0.03893  -0.03466   2.68312
    R9        2.63037   0.00819   0.00334   0.02149   0.02500   2.65537
   R10        2.70726   0.00242   0.00684   0.01591   0.02275   2.73001
   R11        2.66002  -0.00221  -0.00556  -0.01314  -0.01887   2.64114
   R12        2.05035  -0.00087   0.00058  -0.00184  -0.00126   2.04909
   R13        2.56794  -0.01517  -0.00434  -0.03990  -0.04410   2.52384
   R14        1.90780   0.00107   0.00142   0.00467   0.00609   1.91390
   R15        2.66399   0.01366   0.00980   0.04633   0.05605   2.72004
   R16        2.04272   0.00080   0.00098   0.00378   0.00476   2.04748
   R17        2.04339  -0.00061   0.00104  -0.00038   0.00067   2.04405
    A1        2.11431   0.00142   0.00001   0.00827   0.00821   2.12252
    A2        2.07590  -0.00107  -0.00045  -0.00691  -0.00733   2.06857
    A3        2.09297  -0.00035   0.00044  -0.00136  -0.00088   2.09209
    A4        2.14355  -0.00071   0.00325   0.00104   0.00426   2.14782
    A5        2.07004   0.00051  -0.00156   0.00058  -0.00097   2.06907
    A6        2.06959   0.00020  -0.00169  -0.00162  -0.00330   2.06629
    A7        2.02188  -0.00245  -0.00339  -0.01649  -0.01985   2.00204
    A8        2.13124   0.00032   0.00213   0.00249   0.00460   2.13584
    A9        2.13006   0.00213   0.00126   0.01400   0.01524   2.14530
   A10        2.13841   0.00434   0.00052   0.02081   0.02133   2.15974
   A11        2.25659  -0.00069  -0.00257  -0.00132  -0.00398   2.25261
   A12        1.88818  -0.00365   0.00205  -0.01949  -0.01735   1.87083
   A13        2.10101  -0.00132   0.00325  -0.00291   0.00046   2.10147
   A14        1.84181   0.00376  -0.00268   0.01187   0.00899   1.85079
   A15        2.34037  -0.00244  -0.00056  -0.00897  -0.00944   2.33093
   A16        2.04720  -0.00129  -0.00364  -0.01072  -0.01441   2.03278
   A17        2.12227   0.00147   0.00221   0.01123   0.01346   2.13574
   A18        2.11372  -0.00019   0.00143  -0.00051   0.00095   2.11467
   A19        1.90401   0.00848  -0.00039   0.03844   0.03832   1.94233
   A20        2.19515  -0.00499   0.00057  -0.02398  -0.02355   2.17160
   A21        2.18401  -0.00349  -0.00017  -0.01445  -0.01476   2.16925
   A22        1.89396   0.00014   0.00279   0.00904   0.01160   1.90556
   A23        2.20491   0.00178  -0.00141   0.00794   0.00665   2.21156
   A24        2.18431  -0.00192  -0.00138  -0.01698  -0.01825   2.16606
   A25        1.89682  -0.00872  -0.00176  -0.03986  -0.04155   1.85526
   A26        2.10683   0.00564   0.00050   0.02823   0.02870   2.13552
   A27        2.27954   0.00309   0.00126   0.01163   0.01286   2.29240
    D1       -0.00139   0.00003  -0.00016   0.00205   0.00190   0.00051
    D2        3.14091   0.00001  -0.00008   0.00090   0.00082  -3.14146
    D3        3.14066   0.00002  -0.00010   0.00157   0.00147  -3.14105
    D4       -0.00023   0.00001  -0.00002   0.00042   0.00040   0.00017
    D5        0.00186  -0.00001   0.00022  -0.00181  -0.00160   0.00026
    D6        3.14141   0.00000  -0.00001   0.00012   0.00010   3.14151
    D7       -3.14019  -0.00001   0.00016  -0.00133  -0.00117  -3.14136
    D8       -0.00064   0.00000  -0.00007   0.00060   0.00053  -0.00011
    D9       -0.00024  -0.00002  -0.00003  -0.00082  -0.00085  -0.00110
   D10       -3.14054   0.00000   0.00011  -0.00048  -0.00037  -3.14091
   D11        3.14064  -0.00000  -0.00011   0.00033   0.00022   3.14087
   D12        0.00035   0.00002   0.00004   0.00067   0.00071   0.00105
   D13        0.00133   0.00001   0.00015  -0.00050  -0.00036   0.00097
   D14        3.14033   0.00004  -0.00016   0.00263   0.00246  -3.14039
   D15       -3.14156  -0.00002   0.00001  -0.00085  -0.00086   3.14077
   D16       -0.00255   0.00001  -0.00031   0.00228   0.00197  -0.00059
   D17       -0.00084   0.00000  -0.00009   0.00065   0.00057  -0.00027
   D18        3.14128  -0.00001  -0.00005  -0.00044  -0.00049   3.14079
   D19       -3.14032  -0.00002   0.00017  -0.00191  -0.00173   3.14114
   D20        0.00179  -0.00004   0.00021  -0.00300  -0.00279  -0.00100
   D21       -3.13952  -0.00002   0.00020  -0.00188  -0.00167  -3.14118
   D22       -0.00150  -0.00000  -0.00004   0.00004   0.00001  -0.00149
   D23       -0.00022   0.00001  -0.00008   0.00094   0.00084   0.00061
   D24        3.13780   0.00003  -0.00032   0.00287   0.00251   3.14031
   D25       -0.00079   0.00000  -0.00010   0.00052   0.00041  -0.00039
   D26       -3.14036  -0.00002   0.00013  -0.00142  -0.00129   3.14154
   D27        3.14010   0.00002  -0.00016   0.00199   0.00182  -3.14126
   D28        0.00053   0.00001   0.00007   0.00006   0.00013   0.00066
   D29       -0.00267   0.00005  -0.00026   0.00391   0.00370   0.00103
   D30        3.14091   0.00001  -0.00005   0.00084   0.00079  -3.14148
   D31        3.13955   0.00003  -0.00020   0.00259   0.00243  -3.14120
   D32       -0.00005  -0.00001   0.00000  -0.00048  -0.00048  -0.00053
   D33       -0.00147   0.00003  -0.00008   0.00159   0.00149   0.00003
   D34        3.14100   0.00001  -0.00004   0.00041   0.00037   3.14137
   D35       -3.13951   0.00002   0.00016  -0.00029  -0.00016  -3.13967
   D36        0.00295  -0.00001   0.00020  -0.00147  -0.00128   0.00167
   D37        0.00263  -0.00006   0.00022  -0.00355  -0.00330  -0.00067
   D38       -3.13995  -0.00003   0.00017  -0.00220  -0.00203   3.14120
   D39       -3.14092  -0.00001   0.00002  -0.00049  -0.00045  -3.14137
   D40       -0.00032   0.00001  -0.00003   0.00086   0.00082   0.00050
         Item               Value     Threshold  Converged?
 Maximum Force            0.021224     0.000450     NO 
 RMS     Force            0.004510     0.000300     NO 
 Maximum Displacement     0.045935     0.001800     NO 
 RMS     Displacement     0.014014     0.001200     NO 
 Predicted change in Energy=-2.907369D-03
 GradGradGradGradGradGradGradGradGradGradGradGradGradGradGradGradGradGrad

                          Input orientation:                          
 ---------------------------------------------------------------------
 Center     Atomic      Atomic             Coordinates (Angstroms)
 Number     Number       Type             X           Y           Z
 ---------------------------------------------------------------------
      1          6           0       -2.189804    0.698707   -0.000151
      2          6           0       -2.145554   -0.692124   -0.000061
      3          6           0       -0.904128   -1.445103    0.000855
      4          6           0        0.255079   -0.661645    0.000251
      5          6           0        0.247424    0.758181    0.000002
      6          6           0       -1.002473    1.482613    0.000043
      7          7           0        1.599685   -1.069702   -0.000472
      8          6           0        1.588527    1.151654    0.000478
      9          6           0        2.425040   -0.019700   -0.000383
[...]
 ! D9    D(1,2,3,4)             -0.0262         -DE/DX =    0.0                 !
 ! D10   D(1,2,3,14)          -179.9801         -DE/DX =    0.0                 !
 ! D11   D(13,2,3,4)           179.9771         -DE/DX =    0.0                 !
 ! D12   D(13,2,3,14)            0.0232         -DE/DX =    0.0                 !
 ! D13   D(2,3,4,5)              0.0308         -DE/DX =    0.0                 !
 ! D14   D(2,3,4,7)           -179.9941         -DE/DX =    0.0                 !
 ! D15   D(14,3,4,5)           179.984          -DE/DX =    0.0                 !
 ! D16   D(14,3,4,7)            -0.0409         -DE/DX =    0.0                 !
 ! D17   D(3,4,5,6)             -0.0098         -DE/DX =    0.0                 !
 ! D18   D(3,4,5,8)            179.9773         -DE/DX =    0.0                 !
 ! D19   D(7,4,5,6)           -179.9896         -DE/DX =    0.0                 !
 ! D20   D(7,4,5,8)             -0.0026         -DE/DX =    0.0                 !
 ! D21   D(3,4,7,9)           -179.9923         -DE/DX =    0.0                 !
 ! D22   D(3,4,7,10)            -0.0121         -DE/DX =    0.0                 !
 ! D23   D(5,4,7,9)             -0.0137         -DE/DX =    0.0                 !
 ! D24   D(5,4,7,10)           179.9665         -DE/DX =    0.0                 !
 ! D25   D(4,5,6,1)             -0.017          -DE/DX =    0.0                 !
 ! D26   D(4,5,6,16)           179.9991         -DE/DX =    0.0                 !
 ! D27   D(8,5,6,1)            179.9999         -DE/DX =    0.0                 !
 ! D28   D(8,5,6,16)             0.016          -DE/DX =    0.0                 !
 ! D29   D(4,5,8,9)              0.0166         -DE/DX =    0.0                 !
 ! D30   D(4,5,8,11)           179.9935         -DE/DX =    0.0                 !
 ! D31   D(6,5,8,9)            180.0013         -DE/DX =    0.0                 !
 ! D32   D(6,5,8,11)            -0.0219         -DE/DX =    0.0                 !
 ! D33   D(4,7,9,8)              0.0237         -DE/DX =    0.0                 !
 ! D34   D(4,7,9,12)          -179.9835         -DE/DX =    0.0                 !
 ! D35   D(10,7,9,8)          -179.9563         -DE/DX =    0.0                 !
 ! D36   D(10,7,9,12)            0.0365         -DE/DX =    0.0                 !
 ! D37   D(5,8,9,7)             -0.0248         -DE/DX =    0.0                 !
 ! D38   D(5,8,9,12)           179.9832         -DE/DX =    0.0                 !
 ! D39   D(11,8,9,7)          -180.0026         -DE/DX =    0.0                 !
 ! D40   D(11,8,9,12)            0.0055         -DE/DX =    0.0                 !
 --------------------------------------------------------------------------------
 GradGradGradGradGradGradGradGradGradGradGradGradGradGradGradGradGradGrad

                          Input orientation:                          
 ---------------------------------------------------------------------
 Center     Atomic      Atomic             Coordinates (Angstroms)
 Number     Number       Type             X           Y           Z
 ---------------------------------------------------------------------
      1          6           0       -2.180353    0.685318   -0.000097
      2          6           0       -2.150448   -0.694929   -0.000012
      3          6           0       -0.905926   -1.441017    0.000340
      4          6           0        0.243464   -0.656228    0.000003
      5          6           0        0.245995    0.752102   -0.000006
      6          6           0       -0.992012    1.467804    0.000136
      7          7           0        1.589722   -1.062557    0.000090
      8          6           0        1.597119    1.160982    0.000137
      9          6           0        2.421416   -0.012609   -0.000162
     10          1           0        1.884747   -2.031001    0.000606
     11          1           0        1.976782    2.174205    0.000074
     12          1           0        3.495329   -0.121187   -0.000405
     13          1           0       -3.083411   -1.250210   -0.000157
     14          1           0       -0.886311   -2.524175    0.000087
     15          1           0       -3.141877    1.189981   -0.000243
     16          1           0       -1.017332    2.550966    0.000148
 ---------------------------------------------------------------------
                    Distance matrix (angstroms):
                    1          2          3          4          5
     1  C    0.000000
     2  C    1.380572   0.000000
     3  C    2.479005   1.451028   0.000000
     4  C    2.770313   2.394225   1.391758   0.000000
     5  C    2.427266   2.799435   2.477235   1.408333   0.000000
     6  C    1.422827   2.453444   2.910094   2.457217   1.429996
     7  N    4.155542   3.758193   2.524181   1.406240   2.258005
     8  C    3.807302   4.181945   3.610489   2.265974   1.411637
     9  C    4.654394   4.622500   3.620988   2.271062   2.305915
    10  H    4.889113   4.250633   2.852356   2.140983   3.229733
    11  H    4.415717   5.026526   4.623834   3.318998   2.240090
    12  H    5.732696   5.674854   4.594888   3.295587   3.364641
    13  H    2.135833   1.085706   2.185829   3.379484   3.885125
    14  H    3.460548   2.223552   1.083336   2.183029   3.466426
    15  H    1.085917   2.129747   3.452772   3.856038   3.416053
    16  H    2.198467   3.437992   3.993537   3.446114   2.198160
                    6          7          8          9         10
     6  C    0.000000
     7  N    3.614979   0.000000
     8  C    2.607247   2.223551   0.000000
     9  C    3.720633   1.339443   1.434148   0.000000
    10  H    4.529611   1.012386   3.204916   2.088522   0.000000
    11  H    3.051678   3.259823   1.082019   2.231559   4.206213
    12  H    4.760369   2.125444   2.290668   1.079387   2.498272
    13  H    3.429511   4.676899   5.265093   5.642232   5.029138
    14  H    3.993378   2.875250   4.443850   4.153194   2.814601
    15  H    2.167743   5.240416   4.739085   5.691789   5.970065
    16  H    1.083458   4.455813   2.960981   4.289161   5.423697
                   11         12         13         14         15
    11  H    0.000000
    12  H    2.752237   0.000000
    13  H    6.110006   6.674917   0.000000
    14  H    5.502007   4.997310   2.539732   0.000000
    15  H    5.212425   6.765476   2.440891   4.345404   0.000000
    16  H    3.017726   5.244474   4.326386   5.076832   2.523088
                   16
    16  H    0.000000
 Stoichiometry    C8H7N
 Framework group  C1[X(C8H7N)]
 Deg. of freedom    42
 Full point group                 C1      NOp   1
 Largest Abelian subgroup         C1      NOp   1
 Largest concise Abelian subgroup C1      NOp   1
                         Standard orientation:                         
 ---------------------------------------------------------------------
 Center     Atomic      Atomic             Coordinates (Angstroms)
 Number     Number       Type             X           Y           Z
 ---------------------------------------------------------------------
      1          6           0       -2.193097    0.643045   -0.000142
      2          6           0       -2.137734   -0.736416   -0.000056
      3          6           0       -0.879659   -1.459417    0.000295
      4          6           0        0.255057   -0.653557   -0.000042
      5          6           0        0.231605    0.754580   -0.000051
      6          6           0       -1.019395    1.447321    0.000091
      7          7           0        1.608581   -1.034979    0.000045
      8          6           0        1.574956    1.188317    0.000092
      9          6           0        2.420764    0.030134   -0.000207
     10          1           0        1.921423   -1.997816    0.000561
     11          1           0        1.935862    2.208372    0.000029
     12          1           0        3.496497   -0.058614   -0.000450
     13          1           0       -3.060294   -1.308814   -0.000202
     14          1           0       -0.840065   -2.542029    0.000042
     15          1           0       -3.163769    1.129883   -0.000288
     16          1           0       -1.064694    2.529831    0.000103
 ---------------------------------------------------------------------
 Rotational constants (GHZ):           3.8579653           1.6133448           1.1376120

 **********************************************************************

            Population analysis using the CI Density.

 **********************************************************************

 Orbital symmetries:
       Occupied  (A) (A) (A) (A) (A) (A) (A) (A) (A) (A) (A) (A)
                 (A) (A) (A) (A) (A) (A) (A) (A) (A) (A) (A) (A)
                 (A) (A) (A) (A) (A) (A) (A)
       Virtual   (A) (A) (A) (A) (A) (A) (A) (A) (A) (A) (A) (A)
                 (A) (A) (A) (A) (A) (A) (A) (A) (A) (A) (A) (A)
                 (A) (A) (A) (A) (A) (A) (A) (A) (A) (A) (A) (A)
                 (A) (A) (A) (A) (A) (A) (A) (A) (A) (A) (A) (A)
                 (A) (A) (A) (A) (A) (A) (A) (A) (A) (A) (A) (A)
                 (A) (A) (A) (A) (A) (A) (A) (A) (A) (A) (A) (A)
                 (A) (A) (A) (A) (A) (A) (A) (A) (A) (A) (A) (A)
                 (A) (A) (A) (A) (A) (A) (A) (A) (A) (A) (A) (A)
                 (A) (A) (A) (A) (A) (A) (A) (A) (A) (A) (A) (A)
                 (A) (A) (A) (A) (A) (A) (A) (A) (A) (A) (A) (A)
                 (A) (A) (A) (A) (A) (A) (A) (A) (A) (A) (A) (A)
                 (A) (A) (A) (A) (A) (A) (A) (A) (A) (A) (A) (A)
                 (A) (A) (A) (A) (A) (A) (A) (A) (A) (A)
 The electronic state is 1-A.
 Alpha  occ. eigenvalues --  -14.81475 -10.59296 -10.58630 -10.56213 -10.55544
 Alpha  occ. eigenvalues --  -10.55214 -10.55026 -10.54707 -10.53912  -1.09844
 Alpha  occ. eigenvalues --   -0.94063  -0.87488  -0.83721  -0.80014  -0.71372
 Alpha  occ. eigenvalues --   -0.67928  -0.65803  -0.61801  -0.55676  -0.54463
 Alpha  occ. eigenvalues --   -0.50592  -0.49973  -0.49941  -0.46842  -0.45540
 Alpha  occ. eigenvalues --   -0.40862  -0.40527  -0.40136  -0.33245  -0.28470
 Alpha  occ. eigenvalues --   -0.24142
 Alpha virt. eigenvalues --    0.00102   0.00593   0.02567   0.03096   0.04271
 Alpha virt. eigenvalues --    0.04564   0.05148   0.06595   0.06663   0.06960
 Alpha virt. eigenvalues --    0.07323   0.07597   0.09833   0.10221   0.10841
 Alpha virt. eigenvalues --    0.10929   0.12510   0.13853   0.14605   0.15055
 Alpha virt. eigenvalues --    0.16040   0.16079   0.17316   0.17887   0.18719
 Alpha virt. eigenvalues --    0.19511   0.19700   0.20400   0.21033   0.21360
 Alpha virt. eigenvalues --    0.22428   0.22950   0.23052   0.23748   0.24777
 Alpha virt. eigenvalues --    0.25045   0.25083   0.25945   0.26652   0.27529
 Alpha virt. eigenvalues --    0.28625   0.29023   0.30509   0.31428   0.32508
 Alpha virt. eigenvalues --    0.33735   0.34305   0.35895   0.37659   0.38926
 Alpha virt. eigenvalues --    0.40641   0.42447   0.46775   0.49028   0.55396
 Alpha virt. eigenvalues --    0.62308   0.65427   0.70942   0.71796   0.74414
 Alpha virt. eigenvalues --    0.75761   0.76927   0.77161   0.77959   0.78196
 Alpha virt. eigenvalues --    0.80235   0.80837   0.82015   0.83288   0.83860
 Alpha virt. eigenvalues --    0.85340   0.89862   0.93264   0.94719   0.95866
 Alpha virt. eigenvalues --    0.99173   0.99840   1.00623   1.01483   1.03397
 Alpha virt. eigenvalues --    1.04446   1.07397   1.09424   1.10996   1.12644
 Alpha virt. eigenvalues --    1.14977   1.16420   1.20852   1.21082   1.24211
 Alpha virt. eigenvalues --    1.25728   1.28009   1.29430   1.35322   1.37301
 Alpha virt. eigenvalues --    1.39143   1.40175   1.43484   1.46030   1.47150
 Alpha virt. eigenvalues --    1.52460   1.52799   1.54753   1.55450   1.57414
 Alpha virt. eigenvalues --    1.61510   1.66491   1.82227   1.85790   1.92411
 Alpha virt. eigenvalues --    1.93579   1.94330   1.98585   2.03714   2.04601
 Alpha virt. eigenvalues --    2.04746   2.07574   2.10432   2.16195   2.19260
 Alpha virt. eigenvalues --    2.20089   2.23673   2.25303   2.27833   2.31171
 Alpha virt. eigenvalues --    2.31539   2.34080   2.39957   2.43479   2.48979
 Alpha virt. eigenvalues --    2.55336   2.58226   2.63501   2.66687   2.67778
 Alpha virt. eigenvalues --    2.69032   2.74891   2.81713   2.85250   2.86299
 Alpha virt. eigenvalues --    2.95873   2.99155   3.10365   3.24033   3.40655
 Alpha virt. eigenvalues --    4.17733   4.26701   4.30591   4.33832   4.38191
 Alpha virt. eigenvalues --    4.42634   4.49820   4.53975   4.79460
          Condensed to atoms (all electrons):
               1          2          3          4          5          6
     1  C    5.533008   0.485624   0.285070  -0.349644  -0.172077  -0.105965
     2  C    0.485624   5.804640  -0.390097   0.215187  -0.338901   0.559808
     3  C    0.285070  -0.390097  13.039262  -0.937447  -4.465500  -2.810337
     4  C   -0.349644   0.215187  -0.937447  12.256408  -3.922781  -1.743134
     5  C   -0.172077  -0.338901  -4.465500  -3.922781  15.141704   0.686305
     6  C   -0.105965   0.559808  -2.810337  -1.743134   0.686305  12.439100
     7  N   -0.023588   0.019350  -0.544329  -0.263193   0.871578   0.097262
     8  C    0.152771  -0.351653   3.055474   2.538717  -5.012200  -3.660440
     9  C   -0.089497   0.043017  -1.033566  -0.874054   1.748377   0.976177
    10  H   -0.003760  -0.002663  -0.133218  -0.067543   0.173628   0.022775
    11  H    0.002855   0.000574   0.005964   0.032727  -0.026462  -0.006179
    12  H    0.001044  -0.000135   0.023286   0.075809  -0.074434  -0.012945
    13  H    0.009473   0.291958  -0.028059   0.018113   0.005736   0.012283
    14  H    0.011310   0.042429   0.209808   0.040908   0.005685  -0.005719
    15  H    0.298247   0.002827   0.025351  -0.021310   0.041318  -0.042302
    16  H    0.015850   0.007209  -0.024725   0.036800   0.103918   0.201957
               7          8          9         10         11         12
     1  C   -0.023588   0.152771  -0.089497  -0.003760   0.002855   0.001044
     2  C    0.019350  -0.351653   0.043017  -0.002663   0.000574  -0.000135
     3  C   -0.544329   3.055474  -1.033566  -0.133218   0.005964   0.023286
     4  C   -0.263193   2.538717  -0.874054  -0.067543   0.032727   0.075809
     5  C    0.871578  -5.012200   1.748377   0.173628  -0.026462  -0.074434
     6  C    0.097262  -3.660440   0.976177   0.022775  -0.006179  -0.012945
     7  N    7.176445  -0.688620   0.557700   0.275526   0.007085  -0.047985
     8  C   -0.688620  11.329018  -1.758275  -0.022408   0.332752   0.030433
     9  C    0.557700  -1.758275   6.418506  -0.006840  -0.043482   0.325528
    10  H    0.275526  -0.022408  -0.006840   0.303804  -0.000062  -0.002165
    11  H    0.007085   0.332752  -0.043482  -0.000062   0.450835  -0.000429
    12  H   -0.047985   0.030433   0.325528  -0.002165  -0.000429   0.437705
    13  H   -0.000382  -0.000412   0.001268  -0.000002   0.000000  -0.000000
    14  H   -0.000928  -0.014291   0.013050   0.001682   0.000002   0.000002
    15  H    0.000257   0.006226  -0.000184  -0.000000  -0.000002  -0.000000
    16  H   -0.000782  -0.044313   0.004870   0.000003   0.001277  -0.000001
              13         14         15         16
     1  C    0.009473   0.011310   0.298247   0.015850
     2  C    0.291958   0.042429   0.002827   0.007209
     3  C   -0.028059   0.209808   0.025351  -0.024725
     4  C    0.018113   0.040908  -0.021310   0.036800
     5  C    0.005736   0.005685   0.041318   0.103918
     6  C    0.012283  -0.005719  -0.042302   0.201957
     7  N   -0.000382  -0.000928   0.000257  -0.000782
     8  C   -0.000412  -0.014291   0.006226  -0.044313
     9  C    0.001268   0.013050  -0.000184   0.004870
    10  H   -0.000002   0.001682  -0.000000   0.000003
    11  H    0.000000   0.000002  -0.000002   0.001277
    12  H   -0.000000   0.000002  -0.000000  -0.000001
    13  H    0.501348  -0.002929  -0.004269  -0.000125
    14  H   -0.002929   0.500543  -0.000117   0.000012
    15  H   -0.004269  -0.000117   0.502737  -0.002985
    16  H   -0.000125   0.000012  -0.002985   0.500161
 Mulliken charges:
               1
     1  C   -0.050720
     2  C   -0.389174
     3  C   -0.276936
     4  C   -1.035563
     5  C    1.234106
     6  C   -0.608647
     7  N   -0.435396
     8  C    0.107218
     9  C   -0.282594
    10  H    0.461243
    11  H    0.242545
    12  H    0.244287
    13  H    0.195999
    14  H    0.198554
    15  H    0.194205
    16  H    0.200874
 Sum of Mulliken charges =  -0.00000
 Mulliken charges with hydrogens summed into heavy atoms:
               1
     1  C    0.143484
     2  C   -0.193176
     3  C   -0.078382
     4  C   -1.035563
     5  C    1.234106
     6  C   -0.407773
     7  N    0.025847
     8  C    0.349764
     9  C   -0.038307
 Electronic spatial extent (au):  <R**2>=           1022.8531
 Charge=             -0.0000 electrons
 Dipole moment (field-independent basis, Debye):
    X=              4.4277    Y=             -1.4098    Z=             -0.0016  Tot=              4.6468
 Quadrupole moment (field-independent basis, Debye-Ang):
   XX=            -44.5094   YY=            -46.7544   ZZ=            -61.3047
   XY=             -2.3270   XZ=             -0.0004   YZ=              0.0005
 Traceless Quadrupole moment (field-independent basis, Debye-Ang):
   XX=              6.3468   YY=              4.1018   ZZ=            -10.4486
   XY=             -2.3270   XZ=             -0.0004   YZ=              0.0005
 Octapole moment (field-independent basis, Debye-Ang**2):
  XXX=             29.3402  YYY=             -9.7677  ZZZ=             -0.0110  XYY=             15.5951
  XXY=             -7.3269  XXZ=             -0.0098  XZZ=              5.1147  YZZ=             -1.5532
  YYZ=             -0.0053  XYZ=             -0.0028
 Hexadecapole moment (field-independent basis, Debye-Ang**3):
 XXXX=           -843.5672 YYYY=           -401.3840 ZZZZ=            -89.6962 XXXY=            -18.1647
 XXXZ=             -0.0356 YYYX=            -14.8903 YYYZ=              0.0162 ZZZX=             -0.0074
 ZZZY=              0.0180 XXYY=           -198.8948 XXZZ=           -203.4881 YYZZ=           -107.1573
 XXYZ=             -0.0009 YYXZ=              0.0103 ZZXY=             -1.5796
 N-N= 3.981639408326D+02 E-N=-1.638114993265D+03  KE= 3.603454881972D+02
 Unable to Open any file for archive entry.
 1\1\GINC-EXP-1-04\FOpt\RM062X TD-FC\6-31+G(d)\C8H7N1\SCAPARAS\17-Jun-2
 021\0\\# td= (nstates=6, root=2) M062X/6-31+G* Opt density=current\\Fu
 ncsM062X-V-2nd\\0,1\C,-2.1803525819,0.6853184181,-0.0000970346\C,-2.15
 0447797,-0.6949294721,-0.0000116493\C,-0.9059259844,-1.4410169891,0.00
 033979\C,0.2434640201,-0.6562284556,0.0000027497\C,0.2459946261,0.7521
 021729,-0.0000058589\C,-0.9920117639,1.4678037935,0.0001358592\N,1.589
 7215547,-1.0625565516,0.0000898071\C,1.5971189033,1.1609821625,0.00013
 68823\C,2.4214163695,-0.0126086826,-0.0001621555\H,1.8847466,-2.031001
 1985,0.000605941\H,1.9767820947,2.1742052394,0.0000735322\H,3.49532854
 32,-0.1211873882,-0.0004054935\H,-3.0834114033,-1.2502095475,-0.000157
 3091\H,-0.8863106663,-2.5241749052,0.0000865747\H,-3.141877382,1.18998
 14515,-0.0002432271\H,-1.0173321326,2.5509659524,0.0001475917\\Version
 =AS64L-G16RevC.01\State=1-A\HF=-363.6598721\RMSD=6.570e-09\RMSF=6.379e
 -05\Dipole=1.7420095,-0.5546486,-0.0006222\Quadrupole=4.7187033,3.0495
 579,-7.7682612,-1.7300427,-0.0003205,0.0003527\PG=C01 [X(C8H7N1)]\\@
 The archive entry for this job was punched.


 BRING ME INTO THE COMPANY OF THOSE WHO SEEK TRUTH,
 AND DELIVER ME FROM THOSE WHO HAVE FOUND IT.
 Job cpu time:       0 days  4 hours 48 minutes  9.3 seconds.
 Elapsed time:       0 days  1 hours 18 minutes 50.0 seconds.
 File lengths (MBytes):  RWF=    239 Int=      0 D2E=      0 Chk=     11 Scr=      1
 Normal termination of Gaussian 16 at Thu Jun 17 14:13:15 2021.
