 Entering Gaussian System, Link 0=/cm/shared/apps/spack/cpu/opt/spack/linux-centos8-zen/gcc-8.3.1/gaussian-16.C.01-po5bqktfeugvmjyga3v7eigbecnokxng/g16/g16
 Initial command:
 /cm/shared/apps/spack/cpu/opt/spack/linux-centos8-zen/gcc-8.3.1/gaussian-16.C.01-po5bqktfeugvmjyga3v7eigbecnokxng/g16/l1.exe "/scratch/cwaldt/job_3575951/Gau-129064.inp" -scrdir="/scratch/cwaldt/job_3575951/"
 Entering Link 1 = /cm/shared/apps/spack/cpu/opt/spack/linux-centos8-zen/gcc-8.3.1/gaussian-16.C.01-po5bqktfeugvmjyga3v7eigbecnokxng/g16/l1.exe PID=    129065.
  
 Copyright (c) 1988-2019, Gaussian, Inc.  All Rights Reserved.
  
 This is part of the Gaussian(R) 16 program.  It is based on
 the Gaussian(R) 09 system (copyright 2009, Gaussian, Inc.),
 the Gaussian(R) 03 system (copyright 2003, Gaussian, Inc.),
 the Gaussian(R) 98 system (copyright 1998, Gaussian, Inc.),
 the Gaussian(R) 94 system (copyright 1995, Gaussian, Inc.),
 the Gaussian 92(TM) system (copyright 1992, Gaussian, Inc.),
 the Gaussian 90(TM) system (copyright 1990, Gaussian, Inc.),
 the Gaussian 88(TM) system (copyright 1988, Gaussian, Inc.),
 the Gaussian 86(TM) system (copyright 1986, Carnegie Mellon
 University), and the Gaussian 82(TM) system (copyright 1983,
 Carnegie Mellon University). Gaussian is a federally registered
 trademark of Gaussian, Inc.
  
 This software contains proprietary and confidential information,
 including trade secrets, belonging to Gaussian, Inc.
  
 This software is provided under written license and may be
 used, copied, transmitted, or stored only in accord with that
 written license.
  
 The following legend is applicable only to US Government
 contracts under FAR:
  
                    RESTRICTED RIGHTS LEGEND
  
 Use, reproduction and disclosure by the US Government is
 subject to restrictions as set forth in subparagraphs (a)
 and (c) of the Commercial Computer Software - Restricted
 Rights clause in FAR 52.227-19.
  
 Gaussian, Inc.
 340 Quinnipiac St., Bldg. 40, Wallingford CT 06492
  
  
 ---------------------------------------------------------------
 Warning -- This program may not be used in any manner that
 competes with the business of Gaussian, Inc. or will provide
 assistance to any competitor of Gaussian, Inc.  The licensee
 of this program is prohibited from giving any competitor of
 Gaussian, Inc. access to this program.  By using this program,
 the user acknowledges that Gaussian, Inc. is engaged in the
 business of creating and licensing software in the field of
 computational chemistry and represents and warrants to the
 licensee that it is not a competitor of Gaussian, Inc. and that
 it will not use this program in any manner prohibited above.
 ---------------------------------------------------------------
  

 Cite this work as:
 Gaussian 16, Revision C.01,
 M. J. Frisch, G. W. Trucks, H. B. Schlegel, G. E. Scuseria, 
 M. A. Robb, J. R. Cheeseman, G. Scalmani, V. Barone, 
 G. A. Petersson, H. Nakatsuji, X. Li, M. Caricato, A. V. Marenich, 
 J. Bloino, B. G. Janesko, R. Gomperts, B. Mennucci, H. P. Hratchian, 
 J. V. Ortiz, A. F. Izmaylov, J. L. Sonnenberg, D. Williams-Young, 
 F. Ding, F. Lipparini, F. Egidi, J. Goings, B. Peng, A. Petrone, 
 T. Henderson, D. Ranasinghe, V. G. Zakrzewski, J. Gao, N. Rega, 
 G. Zheng, W. Liang, M. Hada, M. Ehara, K. Toyota, R. Fukuda, 
 J. Hasegawa, M. Ishida, T. Nakajima, Y. Honda, O. Kitao, H. Nakai, 
 T. Vreven, K. Throssell, J. A. Montgomery, Jr., J. E. Peralta, 
 F. Ogliaro, M. J. Bearpark, J. J. Heyd, E. N. Brothers, K. N. Kudin, 
 V. N. Staroverov, T. A. Keith, R. Kobayashi, J. Normand, 
 K. Raghavachari, A. P. Rendell, J. C. Burant, S. S. Iyengar, 
 J. Tomasi, M. Cossi, J. M. Millam, M. Klene, C. Adamo, R. Cammi, 
 J. W. Ochterski, R. L. Martin, K. Morokuma, O. Farkas, 
 J. B. Foresman, and D. J. Fox, Gaussian, Inc., Wallingford CT, 2019.
 
 ******************************************
 Gaussian 16:  AS64L-G16RevC.01  3-Jul-2019
                23-Jun-2021 
 ******************************************
 %nprocshared=4
 Will use up to    4 processors via shared memory.
 %chk=FuncsCIS-V-1st.chk
 %Mem=3GB
 ---------------------------------------------------------
 # td= (nstates=6, root=1) CIS/6-31+G* Opt density=current
 ---------------------------------------------------------
 1/18=20,19=15,38=1/1,3;
 2/9=110,12=2,17=6,18=5,40=1/2;
 3/5=1,6=6,7=11,11=9,25=1,30=1,71=1/1,2,3,8;
 4//1;
 5/5=2,38=5/2;
 8/6=1,10=2,107=1,108=6/1;
 9/8=1,15=2,41=6,42=1/14;
 10/5=4,28=1/2;
 6/7=2,8=2,9=2,10=2,22=-1/1;
 7/12=6,13=5,14=1/1,2,3,16;
 1/18=20,19=15/3(2);
 2/9=110/2;
 99//99;
 2/9=110/2;
 3/5=1,6=6,7=11,11=9,25=1,30=1,71=1/1,2,3,8;
 4/5=5,16=3,69=1/1;
 5/5=2,38=5/2;
 8/6=1,10=2,107=1,108=6/1;
 9/8=1,15=2,41=6,42=1,49=4/14;
 10/5=4,28=1/2;
 7/12=6,13=5,14=1/1,2,3,16;
 1/18=20,19=15/3(-8);
 2/9=110/2;
 6/7=2,8=2,9=2,10=2,22=-1/1;
 99/9=10/99;
 --------------
 FuncsCIS-V-1st
 --------------
 Symbolic Z-matrix:
 Charge =  0 Multiplicity = 1
 C                    -2.15106   0.68921   0.00009 
 C                    -2.12793  -0.71582   0.00008 
 C                    -0.9323   -1.4131   -0.00001 
 C                     0.24691  -0.6702   -0.00004 
 C                     0.24819   0.7483    0. 
 C                    -0.97947   1.42353   0.00003 
 N                     1.56177  -1.07759  -0.00029 
 C                     1.62013   1.1629   -0.00016 
 C                     2.38201   0.03081   0.00025 
 H                     1.87632  -2.03001   0.00044 
 H                     1.99217   2.17301  -0.00035 
 H                     3.45255  -0.08243   0.00041 
 H                    -3.06159  -1.26202   0.00009 
 H                    -0.91725  -2.49534  -0.00007 
 H                    -3.1042    1.20079   0.00009 
 H                    -1.00935   2.50542  -0.00002 
 

 GradGradGradGradGradGradGradGradGradGradGradGradGradGradGradGradGradGrad
 Berny optimization.
 Initialization pass.
                           ----------------------------
                           !    Initial Parameters    !
                           ! (Angstroms and Degrees)  !
 --------------------------                            --------------------------
 ! Name  Definition              Value          Derivative Info.                !
 --------------------------------------------------------------------------------
 ! R1    R(1,2)                  1.4052         estimate D2E/DX2                !
 ! R2    R(1,6)                  1.3827         estimate D2E/DX2                !
 ! R3    R(1,15)                 1.0818         estimate D2E/DX2                !
 ! R4    R(2,3)                  1.3841         estimate D2E/DX2                !
 ! R5    R(2,13)                 1.0817         estimate D2E/DX2                !
 ! R6    R(3,4)                  1.3937         estimate D2E/DX2                !
 ! R7    R(3,14)                 1.0823         estimate D2E/DX2                !
 ! R8    R(4,5)                  1.4185         estimate D2E/DX2                !
 ! R9    R(4,7)                  1.3765         estimate D2E/DX2                !
 ! R10   R(5,6)                  1.4011         estimate D2E/DX2                !
 ! R11   R(5,8)                  1.4332         estimate D2E/DX2                !
 ! R12   R(6,16)                 1.0823         estimate D2E/DX2                !
 ! R13   R(7,9)                  1.3789         estimate D2E/DX2                !
 ! R14   R(7,10)                 1.003          estimate D2E/DX2                !
 ! R15   R(8,9)                  1.3646         estimate D2E/DX2                !
 ! R16   R(8,11)                 1.0764         estimate D2E/DX2                !
 ! R17   R(9,12)                 1.0765         estimate D2E/DX2                !
 ! A1    A(2,1,6)              121.1349         estimate D2E/DX2                !
 ! A2    A(2,1,15)             119.1671         estimate D2E/DX2                !
 ! A3    A(6,1,15)             119.698          estimate D2E/DX2                !
 ! A4    A(1,2,3)              121.1938         estimate D2E/DX2                !
 ! A5    A(1,2,13)             119.3846         estimate D2E/DX2                !
 ! A6    A(3,2,13)             119.4217         estimate D2E/DX2                !
 ! A7    A(2,3,4)              117.5387         estimate D2E/DX2                !
 ! A8    A(2,3,14)             121.0469         estimate D2E/DX2                !
 ! A9    A(4,3,14)             121.4144         estimate D2E/DX2                !
 ! A10   A(3,4,5)              122.2626         estimate D2E/DX2                !
 ! A11   A(3,4,7)              130.5743         estimate D2E/DX2                !
 ! A12   A(5,4,7)              107.163          estimate D2E/DX2                !
 ! A13   A(4,5,6)              118.7594         estimate D2E/DX2                !
 ! A14   A(4,5,8)              106.8666         estimate D2E/DX2                !
 ! A15   A(6,5,8)              134.374          estimate D2E/DX2                !
 ! A16   A(1,6,5)              119.1105         estimate D2E/DX2                !
 ! A17   A(1,6,16)             120.4966         estimate D2E/DX2                !
 ! A18   A(5,6,16)             120.3928         estimate D2E/DX2                !
 ! A19   A(4,7,9)              109.2874         estimate D2E/DX2                !
 ! A20   A(4,7,10)             125.4909         estimate D2E/DX2                !
 ! A21   A(9,7,10)             125.2217         estimate D2E/DX2                !
 ! A22   A(5,8,9)              107.125          estimate D2E/DX2                !
 ! A23   A(5,8,11)             127.0344         estimate D2E/DX2                !
 ! A24   A(9,8,11)             125.8405         estimate D2E/DX2                !
 ! A25   A(7,9,8)              109.5578         estimate D2E/DX2                !
 ! A26   A(7,9,12)             120.4645         estimate D2E/DX2                !
 ! A27   A(8,9,12)             129.9776         estimate D2E/DX2                !
 ! D1    D(6,1,2,3)             -0.0008         estimate D2E/DX2                !
 ! D2    D(6,1,2,13)          -179.9981         estimate D2E/DX2                !
 ! D3    D(15,1,2,3)           179.996          estimate D2E/DX2                !
 ! D4    D(15,1,2,13)           -0.0013         estimate D2E/DX2                !
 ! D5    D(2,1,6,5)             -0.0018         estimate D2E/DX2                !
 ! D6    D(2,1,6,16)           179.9965         estimate D2E/DX2                !
 ! D7    D(15,1,6,5)          -179.9986         estimate D2E/DX2                !
 ! D8    D(15,1,6,16)           -0.0003         estimate D2E/DX2                !
 ! D9    D(1,2,3,4)              0.002          estimate D2E/DX2                !
 ! D10   D(1,2,3,14)          -179.9968         estimate D2E/DX2                !
 ! D11   D(13,2,3,4)           179.9992         estimate D2E/DX2                !
 ! D12   D(13,2,3,14)            0.0005         estimate D2E/DX2                !
 ! D13   D(2,3,4,5)             -0.0005         estimate D2E/DX2                !
 ! D14   D(2,3,4,7)           -179.9911         estimate D2E/DX2                !
 ! D15   D(14,3,4,5)           179.9982         estimate D2E/DX2                !
 ! D16   D(14,3,4,7)             0.0076         estimate D2E/DX2                !
 ! D17   D(3,4,5,6)             -0.002          estimate D2E/DX2                !
 ! D18   D(3,4,5,8)           -179.9955         estimate D2E/DX2                !
 ! D19   D(7,4,5,6)            179.9905         estimate D2E/DX2                !
 ! D20   D(7,4,5,8)             -0.003          estimate D2E/DX2                !
 ! D21   D(3,4,7,9)           -179.98           estimate D2E/DX2                !
 ! D22   D(3,4,7,10)            -0.0649         estimate D2E/DX2                !
 ! D23   D(5,4,7,9)              0.0284         estimate D2E/DX2                !
 ! D24   D(5,4,7,10)           179.9434         estimate D2E/DX2                !
 ! D25   D(4,5,6,1)              0.0031         estimate D2E/DX2                !
 ! D26   D(4,5,6,16)          -179.9951         estimate D2E/DX2                !
 ! D27   D(8,5,6,1)            179.9944         estimate D2E/DX2                !
 ! D28   D(8,5,6,16)            -0.0038         estimate D2E/DX2                !
 ! D29   D(4,5,8,9)             -0.0234         estimate D2E/DX2                !
 ! D30   D(4,5,8,11)           179.9883         estimate D2E/DX2                !
 ! D31   D(6,5,8,9)            179.9846         estimate D2E/DX2                !
 ! D32   D(6,5,8,11)            -0.0037         estimate D2E/DX2                !
 ! D33   D(4,7,9,8)             -0.0444         estimate D2E/DX2                !
 ! D34   D(4,7,9,12)           179.9847         estimate D2E/DX2                !
 ! D35   D(10,7,9,8)          -179.9597         estimate D2E/DX2                !
 ! D36   D(10,7,9,12)            0.0693         estimate D2E/DX2                !
 ! D37   D(5,8,9,7)              0.0414         estimate D2E/DX2                !
 ! D38   D(5,8,9,12)          -179.9913         estimate D2E/DX2                !
 ! D39   D(11,8,9,7)          -179.9702         estimate D2E/DX2                !
 ! D40   D(11,8,9,12)           -0.0029         estimate D2E/DX2                !
 --------------------------------------------------------------------------------
 Trust Radius=3.00D-01 FncErr=1.00D-07 GrdErr=1.00D-07 EigMax=2.50D+02 EigMin=1.00D-04
 Number of steps in this run=     94 maximum allowed number of steps=    100.
 GradGradGradGradGradGradGradGradGradGradGradGradGradGradGradGradGradGrad

                          Input orientation:                          
 ---------------------------------------------------------------------
 Center     Atomic      Atomic             Coordinates (Angstroms)
 Number     Number       Type             X           Y           Z
 ---------------------------------------------------------------------
      1          6           0       -2.151063    0.689208    0.000088
      2          6           0       -2.127927   -0.715818    0.000075
      3          6           0       -0.932297   -1.413100   -0.000011
      4          6           0        0.246911   -0.670201   -0.000042
      5          6           0        0.248193    0.748299    0.000000
      6          6           0       -0.979474    1.423526    0.000032
      7          7           0        1.561774   -1.077592   -0.000285
      8          6           0        1.620133    1.162900   -0.000157
      9          6           0        2.382013    0.030806    0.000248
     10          1           0        1.876315   -2.030011    0.000438
     11          1           0        1.992173    2.173010   -0.000348
     12          1           0        3.452549   -0.082425    0.000408
     13          1           0       -3.061594   -1.262020    0.000088
     14          1           0       -0.917252   -2.495342   -0.000073
     15          1           0       -3.104203    1.200785    0.000090
     16          1           0       -1.009348    2.505421   -0.000015
 ---------------------------------------------------------------------
                    Distance matrix (angstroms):
                    1          2          3          4          5
     1  C    0.000000
     2  C    1.405216   0.000000
     3  C    2.430039   1.384100   0.000000
     4  C    2.756496   2.375276   1.393711   0.000000
     5  C    2.399984   2.790983   2.462763   1.418501   0.000000
     6  C    1.382694   2.428114   2.837018   2.426461   1.401106
     7  N    4.111781   3.707395   2.516536   1.376529   2.249305
     8  C    3.800829   4.192557   3.626386   2.290414   1.433218
     9  C    4.580641   4.571324   3.615178   2.247236   2.251218
    10  H    4.859416   4.214387   2.875566   2.122273   3.220216
    11  H    4.400917   5.031953   4.627387   3.336134   2.251948
    12  H    5.656491   5.616307   4.582311   3.259079   3.310287
    13  H    2.153220   1.081698   2.134650   3.361020   3.872476
    14  H    3.415208   2.152310   1.082347   2.164813   3.446661
    15  H    1.081752   2.150926   3.398466   3.838040   3.382795
    16  H    2.145261   3.409927   3.919278   3.415079   2.160761
                    6          7          8          9         10
     6  C    0.000000
     7  N    3.565604   0.000000
     8  C    2.612639   2.241252   0.000000
     9  C    3.638580   1.378890   1.364587   0.000000
    10  H    4.481345   1.003015   3.203172   2.121956   0.000000
    11  H    3.064704   3.278972   1.076446   2.177387   4.204618
    12  H    4.680888   2.136677   2.215532   1.076508   2.505515
    13  H    3.398144   4.627045   5.272457   5.595021   4.997275
    14  H    3.919362   2.855798   4.452085   4.155307   2.832058
    15  H    2.136372   5.192528   4.724488   5.609583   5.936632
    16  H    1.082307   4.410062   2.952378   4.198220   5.375611
                   11         12         13         14         15
    11  H    0.000000
    12  H    2.686947   0.000000
    13  H    6.110646   6.620083   0.000000
    14  H    5.500751   4.991726   2.473719   0.000000
    15  H    5.188282   6.681139   2.463174   4.294661   0.000000
    16  H    3.019872   5.158049   4.290143   5.001611   2.467892
                   16
    16  H    0.000000
 Stoichiometry    C8H7N
 Framework group  C1[X(C8H7N)]
 Deg. of freedom    42
 Full point group                 C1      NOp   1
 Largest Abelian subgroup         C1      NOp   1
 Largest concise Abelian subgroup C1      NOp   1
                         Standard orientation:                         
 ---------------------------------------------------------------------
 Center     Atomic      Atomic             Coordinates (Angstroms)
 Number     Number       Type             X           Y           Z
 ---------------------------------------------------------------------
      1          6           0       -2.151063    0.689208    0.000088
      2          6           0       -2.127927   -0.715818    0.000075
      3          6           0       -0.932297   -1.413100   -0.000011
      4          6           0        0.246911   -0.670201   -0.000042
      5          6           0        0.248193    0.748299    0.000000
      6          6           0       -0.979474    1.423526    0.000032
      7          7           0        1.561774   -1.077592   -0.000285
      8          6           0        1.620133    1.162900   -0.000157
      9          6           0        2.382013    0.030806    0.000248
     10          1           0        1.876315   -2.030011    0.000438
     11          1           0        1.992173    2.173010   -0.000348
     12          1           0        3.452549   -0.082425    0.000408
     13          1           0       -3.061594   -1.262020    0.000088
     14          1           0       -0.917252   -2.495342   -0.000073
     15          1           0       -3.104203    1.200785    0.000090
     16          1           0       -1.009348    2.505421   -0.000015
 ---------------------------------------------------------------------
 Rotational constants (GHZ):           3.9080822           1.6429452           1.1566805
 Standard basis: 6-31+G(d) (6D, 7F)
 There are   185 symmetry adapted cartesian basis functions of A   symmetry.
 There are   185 symmetry adapted basis functions of A   symmetry.
   185 basis functions,   316 primitive gaussians,   185 cartesian basis functions
    31 alpha electrons       31 beta electrons
       nuclear repulsion energy       401.3368668897 Hartrees.
 NAtoms=   16 NActive=   16 NUniq=   16 SFac= 1.00D+00 NAtFMM=   60 NAOKFM=F Big=F
 Integral buffers will be    131072 words long.
 Raffenetti 1 integral format.
 Two-electron integral symmetry is turned on.
 One-electron integrals computed using PRISM.
 NBasis=   185 RedAO= T EigKep=  1.26D-06  NBF=   185
 NBsUse=   185 1.00D-06 EigRej= -1.00D+00 NBFU=   185
 ExpMin= 4.38D-02 ExpMax= 4.17D+03 ExpMxC= 6.27D+02 IAcc=3 IRadAn=         5 AccDes= 0.00D+00
 Harris functional with IExCor=  205 and IRadAn=       5 diagonalized for initial guess.
 HarFok:  IExCor=  205 AccDes= 0.00D+00 IRadAn=         5 IDoV= 1 UseB2=F ITyADJ=14
 ICtDFT=  3500011 ScaDFX=  1.000000  1.000000  1.000000  1.000000
 FoFCou: FMM=F IPFlag=           0 FMFlag=      100000 FMFlg1=           0
         NFxFlg=           0 DoJE=T BraDBF=F KetDBF=T FulRan=T
         wScrn=  0.000000 ICntrl=       500 IOpCl=  0 I1Cent=   200000004 NGrid=           0
         NMat0=    1 NMatS0=      1 NMatT0=    0 NMatD0=    1 NMtDS0=    0 NMtDT0=    0
 Petite list used in FoFCou.
 Keep R1 ints in memory in canonical form, NReq=151233468.
 Requested convergence on RMS density matrix=1.00D-08 within 128 cycles.
 Requested convergence on MAX density matrix=1.00D-06.
 Requested convergence on             energy=1.00D-06.
 No special actions if energy rises.
 SCF Done:  E(RHF) =  -361.478205206     A.U. after   17 cycles
            NFock= 17  Conv=0.49D-08     -V/T= 2.0017
 ExpMin= 4.38D-02 ExpMax= 4.17D+03 ExpMxC= 6.27D+02 IAcc=3 IRadAn=         5 AccDes= 0.00D+00
 HarFok:  IExCor=  205 AccDes= 0.00D+00 IRadAn=         5 IDoV=-2 UseB2=F ITyADJ=14
 ICtDFT= 12500011 ScaDFX=  1.000000  1.000000  1.000000  1.000000
 Range of M.O.s used for correlation:    10   185
 NBasis=   185 NAE=    31 NBE=    31 NFC=     9 NFV=     0
 NROrb=    176 NOA=    22 NOB=    22 NVA=   154 NVB=   154

 **** Warning!!: The largest alpha MO coefficient is  0.23571795D+03

 Orbital symmetries:
       Occupied  (A) (A) (A) (A) (A) (A) (A) (A) (A) (A) (A) (A)
                 (A) (A) (A) (A) (A) (A) (A) (A) (A) (A) (A) (A)
                 (A) (A) (A) (A) (A) (A) (A)
       Virtual   (A) (A) (A) (A) (A) (A) (A) (A) (A) (A) (A) (A)
                 (A) (A) (A) (A) (A) (A) (A) (A) (A) (A) (A) (A)
                 (A) (A) (A) (A) (A) (A) (A) (A) (A) (A) (A) (A)
                 (A) (A) (A) (A) (A) (A) (A) (A) (A) (A) (A) (A)
                 (A) (A) (A) (A) (A) (A) (A) (A) (A) (A) (A) (A)
                 (A) (A) (A) (A) (A) (A) (A) (A) (A) (A) (A) (A)
                 (A) (A) (A) (A) (A) (A) (A) (A) (A) (A) (A) (A)
                 (A) (A) (A) (A) (A) (A) (A) (A) (A) (A) (A) (A)
                 (A) (A) (A) (A) (A) (A) (A) (A) (A) (A) (A) (A)
                 (A) (A) (A) (A) (A) (A) (A) (A) (A) (A) (A) (A)
                 (A) (A) (A) (A) (A) (A) (A) (A) (A) (A) (A) (A)
                 (A) (A) (A) (A) (A) (A) (A) (A) (A) (A) (A) (A)
                 (A) (A) (A) (A) (A) (A) (A) (A) (A) (A)
    24 initial guesses have been made.
 Convergence on wavefunction:    0.000001000000000
 Iteration     1 Dimension    24 NMult     0 NNew     24
 CISAX will form    24 AO SS matrices at one time.
 New state      1 was old state      4
 New state      3 was old state      1
 New state      4 was old state      6
 New state      5 was old state      8
 New state      6 was old state      7
 Iteration     2 Dimension    48 NMult    24 NNew     24
 New state      1 was old state      3
 New state      2 was old state      1
 New state      3 was old state      2
 Iteration     3 Dimension    54 NMult    48 NNew      6
 Iteration     4 Dimension    60 NMult    54 NNew      6
 Iteration     5 Dimension    66 NMult    60 NNew      6
 Iteration     6 Dimension    72 NMult    66 NNew      6
 Iteration     7 Dimension    78 NMult    72 NNew      6
 Iteration     8 Dimension    84 NMult    78 NNew      6
 Iteration     9 Dimension    90 NMult    84 NNew      6
 Iteration    10 Dimension    96 NMult    90 NNew      6
 Iteration    11 Dimension    99 NMult    96 NNew      3
 ***********************************************************************
 Excited states from <AA,BB:AA,BB> singles matrix:
 ***********************************************************************
 
 Ground to excited state transition densities written to RWF  633
 Ground to excited state transition electric dipole moments (Au):
       state          X           Y           Z        Dip. S.      Osc.
         1         1.0675     -0.5382      0.0012      1.4291      0.1959
         2         0.0041     -0.0018     -0.2758      0.0761      0.0106
         3         0.4077      0.4207      0.0002      0.3432      0.0480
         4        -0.0002      0.0000     -0.1565      0.0245      0.0037
         5         0.0001     -0.0000      0.0065      0.0000      0.0000
         6         0.0005      0.0001      0.1037      0.0108      0.0017
 Ground to excited state transition velocity dipole moments (Au):
       state          X           Y           Z        Dip. S.      Osc.
         1        -0.0603      0.0142     -0.0001      0.0038      0.0124
         2        -0.0002      0.0001      0.0294      0.0009      0.0028
         3        -0.0298      0.0002     -0.0000      0.0009      0.0028
         4         0.0000     -0.0000      0.0456      0.0021      0.0062
         5        -0.0000      0.0000     -0.0047      0.0000      0.0001
         6        -0.0000      0.0000     -0.0230      0.0005      0.0015
 Ground to excited state transition magnetic dipole moments (Au):
       state          X           Y           Z
         1        -0.0007      0.0007      0.0453
         2         0.1470     -0.1862      0.0003
         3         0.0000      0.0002      0.1931
         4         0.1194     -0.3938     -0.0001
         5         0.0481     -0.3228     -0.0001
         6         0.3871      0.0816      0.0005
 Ground to excited state transition velocity quadrupole moments (Au):
       state          XX          YY          ZZ          XY          XZ          YZ
         1        -0.1549      0.1480     -0.0484      0.0407     -0.0006     -0.0002
         2        -0.0008      0.0006     -0.0001      0.0002      0.1675      0.0662
         3        -0.1773     -0.0199     -0.0194      0.0243     -0.0001     -0.0000
         4        -0.0002      0.0000     -0.0000      0.0000      0.3458      0.1263
         5        -0.0002      0.0001     -0.0000     -0.0000      0.3804      0.1578
         6        -0.0000     -0.0001      0.0001      0.0002      0.0200      0.2802
 <0|del|b> * <b|rxdel|0> + <0|del|b> * <b|delr+rdel|0>
 Rotatory Strengths (R) in cgs (10**-40 erg-esu-cm/Gauss)
       state          XX          YY          ZZ    R(velocity)    E-M Angle
         1         0.0190      0.0945      0.0470      0.0535       90.00
         2        -0.0260     -0.0842     -0.0358     -0.0487       90.00
         3        -0.0006      0.0005     -0.0025     -0.0009       90.00
         4        -0.0060     -0.0051      0.0001     -0.0037       90.00
         5         0.0001     -0.0084      0.0048     -0.0012       90.00
         6        -0.0253     -0.0340     -0.0019     -0.0204       90.00
 1/2[<0|r|b>*<b|rxdel|0> + (<0|rxdel|b>*<b|r|0>)*]
 Rotatory Strengths (R) in cgs (10**-40 erg-esu-cm/Gauss)
       state          XX          YY          ZZ     R(length)
         1         0.5083      0.2735     -0.0380      0.2480
         2        -0.4240     -0.2351      0.0515     -0.2025
         3        -0.0044     -0.0670     -0.0270     -0.0328
         4         0.0162      0.0016     -0.0160      0.0006
         5        -0.0024     -0.0093      0.0004     -0.0038
         6        -0.1291     -0.0070     -0.0381     -0.0580
  1/2[<0|del|b>*<b|r|0> + (<0|r|b>*<b|del|0>)*] (Au)
       state          X           Y           Z        Dip. S.   Osc.(frdel)
         1        -0.0644     -0.0076     -0.0000      0.0720      0.0480
         2        -0.0000     -0.0000     -0.0081      0.0081      0.0054
         3        -0.0121      0.0001     -0.0000      0.0121      0.0080
         4        -0.0000     -0.0000     -0.0071      0.0071      0.0048
         5        -0.0000     -0.0000     -0.0000      0.0000      0.0000
         6        -0.0000      0.0000     -0.0024      0.0024      0.0016

 Excitation energies and oscillator strengths:
 
 Excited State   1:      Singlet-A      5.5963 eV  221.55 nm  f=0.1959  <S**2>=0.000
      30 -> 42        -0.17836
      30 -> 43         0.19306
      31 -> 36         0.56609
      31 -> 40        -0.11438
      31 -> 42         0.12290
 This state for optimization and/or second-order correction.
 Total Energy, E(CIS/TDA) =  -361.272543968    
 Copying the excited state density for this state as the 1-particle RhoCI density.
 
 Excited State   2:      Singlet-A      5.6673 eV  218.77 nm  f=0.0106  <S**2>=0.000
      29 -> 32         0.11323
      31 -> 32         0.64321
      31 -> 34        -0.10579
      31 -> 41        -0.10366
 
 Excited State   3:      Singlet-A      5.7123 eV  217.05 nm  f=0.0480  <S**2>=0.000
      30 -> 36         0.51211
      30 -> 40        -0.12747
      30 -> 42         0.18033
      30 -> 43         0.10510
      31 -> 42         0.21149
      31 -> 43        -0.22116
      31 -> 44         0.13112
      31 -> 54         0.10111
 
 Excited State   4:      Singlet-A      6.1216 eV  202.53 nm  f=0.0037  <S**2>=0.000
      30 -> 32         0.49361
      30 -> 33        -0.16848
      31 -> 33         0.37680
 
 Excited State   5:      Singlet-A      6.2611 eV  198.02 nm  f=0.0000  <S**2>=0.000
      30 -> 32        -0.33594
      30 -> 33         0.11994
      30 -> 34         0.12690
      31 -> 32        -0.12606
      31 -> 33         0.47120
      31 -> 34        -0.23826
 
 Excited State   6:      Singlet-A      6.3400 eV  195.56 nm  f=0.0017  <S**2>=0.000
      31 -> 32         0.10738
      31 -> 33         0.25990
      31 -> 34         0.55829
      31 -> 35         0.10337
      31 -> 41         0.16119
 SavETr:  write IOETrn=   770 NScale= 10 NData=  16 NLR=1 NState=    6 LETran=     118.
          IDoAtm=1111111111111111
          Differentiating once with respect to electric field.
                with respect to dipole field.
          Differentiating once with respect to nuclear coordinates.
 Keep R1 ints in memory in canonical form, NReq=151235562.
          There are     1 degrees of freedom in the 1st order CPHF.  IDoFFX=0 NUNeed=     1.
 LinEq1:  Iter=  0 NonCon=     1 RMS=2.31D-03 Max=3.08D-02 NDo=     1
 AX will form     1 AO Fock derivatives at one time.
 LinEq1:  Iter=  1 NonCon=     1 RMS=1.08D-03 Max=2.59D-02 NDo=     1
 LinEq1:  Iter=  2 NonCon=     1 RMS=3.37D-04 Max=5.48D-03 NDo=     1
 LinEq1:  Iter=  3 NonCon=     1 RMS=1.52D-04 Max=3.44D-03 NDo=     1
 LinEq1:  Iter=  4 NonCon=     1 RMS=4.90D-05 Max=1.01D-03 NDo=     1
 LinEq1:  Iter=  5 NonCon=     1 RMS=1.97D-05 Max=4.30D-04 NDo=     1
 LinEq1:  Iter=  6 NonCon=     1 RMS=6.28D-06 Max=1.15D-04 NDo=     1
 LinEq1:  Iter=  7 NonCon=     1 RMS=1.67D-06 Max=2.79D-05 NDo=     1
 LinEq1:  Iter=  8 NonCon=     1 RMS=7.21D-07 Max=1.73D-05 NDo=     1
 LinEq1:  Iter=  9 NonCon=     1 RMS=2.62D-07 Max=7.28D-06 NDo=     1
 LinEq1:  Iter= 10 NonCon=     1 RMS=8.53D-08 Max=1.25D-06 NDo=     1
 LinEq1:  Iter= 11 NonCon=     1 RMS=4.11D-08 Max=8.41D-07 NDo=     1
 LinEq1:  Iter= 12 NonCon=     1 RMS=1.13D-08 Max=2.06D-07 NDo=     1
 LinEq1:  Iter= 13 NonCon=     1 RMS=4.04D-09 Max=7.24D-08 NDo=     1
 LinEq1:  Iter= 14 NonCon=     1 RMS=1.21D-09 Max=1.78D-08 NDo=     1
 LinEq1:  Iter= 15 NonCon=     1 RMS=2.67D-10 Max=3.25D-09 NDo=     1
 LinEq1:  Iter= 16 NonCon=     1 RMS=8.71D-11 Max=1.06D-09 NDo=     1
 LinEq1:  Iter= 17 NonCon=     0 RMS=1.95D-11 Max=2.77D-10 NDo=     1
 Linear equations converged to 1.000D-10 1.000D-09 after    17 iterations.
 End of Minotr F.D. properties file   721 does not exist.
 End of Minotr F.D. properties file   722 does not exist.
 End of Minotr F.D. properties file   788 does not exist.

 **********************************************************************

            Population analysis using the CI Density.

 **********************************************************************

 Orbital symmetries:
       Occupied  (A) (A) (A) (A) (A) (A) (A) (A) (A) (A) (A) (A)
                 (A) (A) (A) (A) (A) (A) (A) (A) (A) (A) (A) (A)
                 (A) (A) (A) (A) (A) (A) (A)
       Virtual   (A) (A) (A) (A) (A) (A) (A) (A) (A) (A) (A) (A)
                 (A) (A) (A) (A) (A) (A) (A) (A) (A) (A) (A) (A)
                 (A) (A) (A) (A) (A) (A) (A) (A) (A) (A) (A) (A)
                 (A) (A) (A) (A) (A) (A) (A) (A) (A) (A) (A) (A)
                 (A) (A) (A) (A) (A) (A) (A) (A) (A) (A) (A) (A)
                 (A) (A) (A) (A) (A) (A) (A) (A) (A) (A) (A) (A)
                 (A) (A) (A) (A) (A) (A) (A) (A) (A) (A) (A) (A)
                 (A) (A) (A) (A) (A) (A) (A) (A) (A) (A) (A) (A)
                 (A) (A) (A) (A) (A) (A) (A) (A) (A) (A) (A) (A)
                 (A) (A) (A) (A) (A) (A) (A) (A) (A) (A) (A) (A)
                 (A) (A) (A) (A) (A) (A) (A) (A) (A) (A) (A) (A)
                 (A) (A) (A) (A) (A) (A) (A) (A) (A) (A) (A) (A)
                 (A) (A) (A) (A) (A) (A) (A) (A) (A) (A)
 The electronic state is 1-A.
 Alpha  occ. eigenvalues --  -15.61321 -11.27611 -11.27014 -11.23623 -11.23424
 Alpha  occ. eigenvalues --  -11.23328 -11.22993 -11.22515 -11.22134  -1.30107
 Alpha  occ. eigenvalues --   -1.13461  -1.06057  -1.00145  -0.97967  -0.84667
 Alpha  occ. eigenvalues --   -0.81037  -0.79254  -0.73244  -0.66474  -0.65191
 Alpha  occ. eigenvalues --   -0.60577  -0.59932  -0.58368  -0.57933  -0.55286
 Alpha  occ. eigenvalues --   -0.51092  -0.48471  -0.46558  -0.38573  -0.30154
 Alpha  occ. eigenvalues --   -0.28374
 Alpha virt. eigenvalues --    0.06043   0.07676   0.08122   0.09252   0.09650
 Alpha virt. eigenvalues --    0.09776   0.12084   0.12171   0.12844   0.13467
 Alpha virt. eigenvalues --    0.13521   0.14245   0.15653   0.16055   0.16315
 Alpha virt. eigenvalues --    0.17513   0.18608   0.20157   0.21313   0.21884
 Alpha virt. eigenvalues --    0.22291   0.23431   0.24192   0.25041   0.25565
 Alpha virt. eigenvalues --    0.26573   0.26993   0.27817   0.28238   0.29142
 Alpha virt. eigenvalues --    0.29617   0.30228   0.31272   0.31373   0.32533
 Alpha virt. eigenvalues --    0.33547   0.34617   0.35000   0.35866   0.37920
 Alpha virt. eigenvalues --    0.40149   0.40528   0.41722   0.42800   0.44859
 Alpha virt. eigenvalues --    0.46136   0.46794   0.47989   0.50112   0.53486
 Alpha virt. eigenvalues --    0.53930   0.58571   0.63141   0.65615   0.70996
 Alpha virt. eigenvalues --    0.79713   0.85181   0.88146   0.90334   0.92964
 Alpha virt. eigenvalues --    0.94405   0.95220   0.96046   0.97158   0.98568
 Alpha virt. eigenvalues --    0.98926   1.00346   1.01815   1.03444   1.03470
 Alpha virt. eigenvalues --    1.05365   1.09759   1.14310   1.14887   1.15909
 Alpha virt. eigenvalues --    1.18601   1.19729   1.20187   1.22379   1.22759
 Alpha virt. eigenvalues --    1.25831   1.28013   1.28420   1.31550   1.32379
 Alpha virt. eigenvalues --    1.34309   1.35646   1.40239   1.41289   1.43535
 Alpha virt. eigenvalues --    1.46408   1.49448   1.49968   1.57480   1.58925
 Alpha virt. eigenvalues --    1.60869   1.61601   1.66640   1.69282   1.71262
 Alpha virt. eigenvalues --    1.74349   1.74739   1.78281   1.79026   1.79852
 Alpha virt. eigenvalues --    1.85801   1.92279   2.08180   2.15070   2.19793
 Alpha virt. eigenvalues --    2.19805   2.20794   2.25822   2.31733   2.32127
 Alpha virt. eigenvalues --    2.32378   2.39218   2.43143   2.46693   2.49820
 Alpha virt. eigenvalues --    2.50521   2.52924   2.58035   2.59052   2.59697
 Alpha virt. eigenvalues --    2.60755   2.64599   2.71894   2.74868   2.78069
 Alpha virt. eigenvalues --    2.89010   2.90906   2.97945   3.00546   3.02201
 Alpha virt. eigenvalues --    3.05891   3.09575   3.16926   3.19852   3.22604
 Alpha virt. eigenvalues --    3.31648   3.33882   3.49471   3.62781   3.83621
 Alpha virt. eigenvalues --    4.58384   4.68434   4.71337   4.74886   4.78522
 Alpha virt. eigenvalues --    4.82387   4.90587   4.94542   5.22040
          Condensed to atoms (all electrons):
               1          2          3          4          5          6
     1  C    6.462497  -0.212697   0.692546  -0.805890   0.412988  -0.819661
     2  C   -0.212697   6.764134  -0.813041   0.550470  -0.948159   0.989746
     3  C    0.692546  -0.813041  11.292460  -0.818086  -2.348461  -2.789410
     4  C   -0.805890   0.550470  -0.818086  10.793933  -3.501009  -0.891624
     5  C    0.412988  -0.948159  -2.348461  -3.501009  12.858716  -0.397095
     6  C   -0.819661   0.989746  -2.789410  -0.891624  -0.397095  13.092882
     7  N   -0.029071   0.028039  -0.590836  -0.179942   0.867603   0.060731
     8  C    0.115814  -0.242221   2.299706   2.461042  -3.657172  -3.719357
     9  C   -0.118690   0.013384  -0.969333  -0.950469   1.386573   1.149546
    10  H   -0.002060  -0.005375  -0.103858  -0.049314   0.136382   0.023877
    11  H    0.003643   0.000961   0.002604  -0.021607   0.057925   0.032592
    12  H    0.001841  -0.000641   0.037572   0.091774  -0.125834  -0.012649
    13  H    0.056673   0.243074   0.048141  -0.018572   0.038086  -0.038613
    14  H   -0.003791   0.091781   0.218090   0.061168  -0.035450  -0.012008
    15  H    0.256220   0.050454   0.003839  -0.012910   0.028194  -0.003730
    16  H    0.056557  -0.011157  -0.002879   0.015218   0.101663   0.152088
               7          8          9         10         11         12
     1  C   -0.029071   0.115814  -0.118690  -0.002060   0.003643   0.001841
     2  C    0.028039  -0.242221   0.013384  -0.005375   0.000961  -0.000641
     3  C   -0.590836   2.299706  -0.969333  -0.103858   0.002604   0.037572
     4  C   -0.179942   2.461042  -0.950469  -0.049314  -0.021607   0.091774
     5  C    0.867603  -3.657172   1.386573   0.136382   0.057925  -0.125834
     6  C    0.060731  -3.719357   1.149546   0.023877   0.032592  -0.012649
     7  N    7.364568  -0.719967   0.515147   0.294456   0.003857  -0.049243
     8  C   -0.719967  10.617258  -1.489814  -0.042322   0.237460   0.133791
     9  C    0.515147  -1.489814   6.409927   0.016254   0.014676   0.260984
    10  H    0.294456  -0.042322   0.016254   0.244687  -0.000042  -0.000800
    11  H    0.003857   0.237460   0.014676  -0.000042   0.403180   0.000384
    12  H   -0.049243   0.133791   0.260984  -0.000800   0.000384   0.400352
    13  H   -0.000302   0.004868   0.000161  -0.000001  -0.000000  -0.000000
    14  H   -0.000973   0.006690   0.001809   0.000987   0.000001   0.000001
    15  H    0.000238   0.012282  -0.000032  -0.000000  -0.000001  -0.000000
    16  H   -0.000857   0.014421   0.001144   0.000002   0.000677  -0.000001
              13         14         15         16
     1  C    0.056673  -0.003791   0.256220   0.056557
     2  C    0.243074   0.091781   0.050454  -0.011157
     3  C    0.048141   0.218090   0.003839  -0.002879
     4  C   -0.018572   0.061168  -0.012910   0.015218
     5  C    0.038086  -0.035450   0.028194   0.101663
     6  C   -0.038613  -0.012008  -0.003730   0.152088
     7  N   -0.000302  -0.000973   0.000238  -0.000857
     8  C    0.004868   0.006690   0.012282   0.014421
     9  C    0.000161   0.001809  -0.000032   0.001144
    10  H   -0.000001   0.000987  -0.000000   0.000002
    11  H   -0.000000   0.000001  -0.000001   0.000677
    12  H   -0.000000   0.000001  -0.000000  -0.000001
    13  H    0.428483  -0.001042  -0.001009  -0.000089
    14  H   -0.001042   0.428667  -0.000091   0.000010
    15  H   -0.001009  -0.000091   0.433521  -0.000962
    16  H   -0.000089   0.000010  -0.000962   0.427370
 Mulliken charges:
               1
     1  C   -0.066920
     2  C   -0.498750
     3  C   -0.159055
     4  C   -0.724181
     5  C    1.125052
     6  C   -0.817314
     7  N   -0.563449
     8  C   -0.032480
     9  C   -0.241265
    10  H    0.487126
    11  H    0.263689
    12  H    0.262468
    13  H    0.240143
    14  H    0.244150
    15  H    0.233989
    16  H    0.246795
 Sum of Mulliken charges =  -0.00000
 Mulliken charges with hydrogens summed into heavy atoms:
               1
     1  C    0.167069
     2  C   -0.258607
     3  C    0.085095
     4  C   -0.724181
     5  C    1.125052
     6  C   -0.570519
     7  N   -0.076323
     8  C    0.231210
     9  C    0.021203
 Electronic spatial extent (au):  <R**2>=           1011.6695
 Charge=             -0.0000 electrons
 Dipole moment (field-independent basis, Debye):
    X=              2.5184    Y=             -1.3794    Z=             -0.0136  Tot=              2.8715
 Quadrupole moment (field-independent basis, Debye-Ang):
   XX=            -47.4744   YY=            -46.7193   ZZ=            -63.1489
   XY=             -2.1295   XZ=             -0.0307   YZ=              0.0104
 Traceless Quadrupole moment (field-independent basis, Debye-Ang):
   XX=              4.9731   YY=              5.7283   ZZ=            -10.7014
   XY=             -2.1295   XZ=             -0.0307   YZ=              0.0104
 Octapole moment (field-independent basis, Debye-Ang**2):
  XXX=             17.6583  YYY=            -10.6368  ZZZ=             -0.1093  XYY=             11.6824
  XXY=             -6.9665  XXZ=             -0.1027  XZZ=              1.4483  YZZ=             -1.4231
  YYZ=             -0.0683  XYZ=              0.0171
 Hexadecapole moment (field-independent basis, Debye-Ang**3):
 XXXX=           -869.9441 YYYY=           -389.5861 ZZZZ=           -103.0282 XXXY=            -19.2077
 XXXZ=             -0.4694 YYYX=            -14.8863 YYYZ=              0.0972 ZZZX=             -0.2113
 ZZZY=              0.0911 XXYY=           -200.8909 XXZZ=           -217.1125 YYZZ=           -108.6079
 XXYZ=              0.0492 YYXZ=             -0.0580 ZZXY=             -1.8935
 N-N= 4.013368668897D+02 E-N=-1.643941764790D+03  KE= 3.610043163746D+02
 Calling FoFJK, ICntrl=  10005127 FMM=F ISym2X=0 I1Cent= 0 IOpClX= 0 NMat=1 NMatS=1 NMatT=0.
 ***** Axes restored to original set *****
 -------------------------------------------------------------------
 Center     Atomic                   Forces (Hartrees/Bohr)
 Number     Number              X              Y              Z
 -------------------------------------------------------------------
      1        6          -0.018449710   -0.009488481   -0.000010358
      2        6          -0.040912625    0.023579257   -0.000014996
      3        6           0.046497990   -0.024875211    0.000038927
      4        6          -0.007736687   -0.013991573   -0.000014330
      5        6           0.042525493    0.003907989   -0.000051290
      6        6          -0.010524074    0.032851040    0.000048207
      7        7           0.014179878    0.008253332   -0.000003312
      8        6          -0.044361691    0.017629109    0.000004675
      9        6           0.017196600   -0.043147365    0.000001980
     10        1          -0.002059963    0.008810257    0.000013955
     11        1          -0.001046217   -0.004493254    0.000011139
     12        1          -0.004982790    0.000869722   -0.000006688
     13        1           0.004373421    0.002807879    0.000000649
     14        1           0.000342465    0.005372133   -0.000013893
     15        1           0.004858983   -0.002826576    0.000000724
     16        1           0.000098927   -0.005258258   -0.000005389
 -------------------------------------------------------------------
 Cartesian Forces:  Max     0.046497990 RMS     0.016869400

 GradGradGradGradGradGradGradGradGradGradGradGradGradGradGradGradGradGrad
 Berny optimization.
 FormGI is forming the generalized inverse of G from B-inverse, IUseBI=4.
 Internal  Forces:  Max     0.044917158 RMS     0.008281173
 Search for a local minimum.
 Step number   1 out of a maximum of   94
 All quantities printed in internal units (Hartrees-Bohrs-Radians)
 Mixed Optimization -- RFO/linear search
 Second derivative matrix not updated -- first step.
 ITU=  0
     Eigenvalues ---    0.01853   0.01931   0.01986   0.02012   0.02070
     Eigenvalues ---    0.02113   0.02148   0.02153   0.02172   0.02209
     Eigenvalues ---    0.02233   0.02248   0.02338   0.16000   0.16000
     Eigenvalues ---    0.16000   0.16000   0.16000   0.16000   0.16000
     Eigenvalues ---    0.22000   0.22188   0.22662   0.24011   0.24651
     Eigenvalues ---    0.35712   0.35717   0.35783   0.35790   0.36420
     Eigenvalues ---    0.36427   0.37009   0.38432   0.42633   0.43465
     Eigenvalues ---    0.45769   0.46692   0.47162   0.47468   0.47567
     Eigenvalues ---    0.48125   0.50955
 RFO step:  Lambda=-1.22452369D-02 EMin= 1.85287394D-02
 Linear search not attempted -- first point.
 Iteration  1 RMS(Cart)=  0.02099699 RMS(Int)=  0.00010121
 Iteration  2 RMS(Cart)=  0.00011037 RMS(Int)=  0.00003269
 Iteration  3 RMS(Cart)=  0.00000002 RMS(Int)=  0.00003269
 Variable       Old X    -DE/DX   Delta X   Delta X   Delta X     New X
                                 (Linear)    (Quad)   (Total)
    R1        2.65547  -0.00246   0.00000  -0.00451  -0.00449   2.65099
    R2        2.61291   0.01545   0.00000   0.03188   0.03191   2.64482
    R3        2.04421  -0.00562   0.00000  -0.01518  -0.01518   2.02903
    R4        2.61557   0.04492   0.00000   0.09051   0.09050   2.70607
    R5        2.04411  -0.00519   0.00000  -0.01403  -0.01403   2.03008
    R6        2.63373  -0.00978   0.00000  -0.02132  -0.02135   2.61238
    R7        2.04534  -0.00537   0.00000  -0.01453  -0.01453   2.03081
    R8        2.68058   0.01163   0.00000   0.02461   0.02450   2.70508
    R9        2.60126   0.00324   0.00000   0.00544   0.00544   2.60670
   R10        2.64771   0.02827   0.00000   0.06069   0.06070   2.70841
   R11        2.70839  -0.02572   0.00000  -0.06107  -0.06112   2.64727
   R12        2.04526  -0.00526   0.00000  -0.01424  -0.01424   2.03103
   R13        2.60573  -0.02092   0.00000  -0.04114  -0.04106   2.56466
   R14        1.89542  -0.00901   0.00000  -0.01862  -0.01862   1.87680
   R15        2.57870   0.03127   0.00000   0.05977   0.05982   2.63851
   R16        2.03419  -0.00458   0.00000  -0.01216  -0.01216   2.02203
   R17        2.03430  -0.00505   0.00000  -0.01341  -0.01341   2.02090
    A1        2.11420  -0.00097   0.00000  -0.00082  -0.00079   2.11341
    A2        2.07986   0.00029   0.00000  -0.00073  -0.00075   2.07911
    A3        2.08912   0.00068   0.00000   0.00155   0.00154   2.09066
    A4        2.11523   0.00177   0.00000   0.00888   0.00888   2.12411
    A5        2.08365  -0.00111   0.00000  -0.00572  -0.00572   2.07794
    A6        2.08430  -0.00067   0.00000  -0.00316  -0.00316   2.08114
    A7        2.05144  -0.00066   0.00000  -0.00517  -0.00522   2.04622
    A8        2.11267   0.00076   0.00000   0.00506   0.00509   2.11775
    A9        2.11908  -0.00010   0.00000   0.00011   0.00013   2.11922
   A10        2.13389  -0.00016   0.00000  -0.00201  -0.00203   2.13185
   A11        2.27895  -0.00212   0.00000  -0.00453  -0.00445   2.27450
   A12        1.87035   0.00229   0.00000   0.00653   0.00648   1.87683
   A13        2.07274   0.00451   0.00000   0.01643   0.01646   2.08920
   A14        1.86517  -0.00328   0.00000  -0.01315  -0.01327   1.85190
   A15        2.34527  -0.00123   0.00000  -0.00328  -0.00319   2.34208
   A16        2.07887  -0.00448   0.00000  -0.01732  -0.01730   2.06157
   A17        2.10306   0.00219   0.00000   0.00838   0.00837   2.11144
   A18        2.10125   0.00229   0.00000   0.00893   0.00892   2.11017
   A19        1.90743   0.00149   0.00000   0.00436   0.00443   1.91185
   A20        2.19023   0.00002   0.00000   0.00226   0.00223   2.19245
   A21        2.18553  -0.00151   0.00000  -0.00662  -0.00665   2.17888
   A22        1.86968   0.00393   0.00000   0.01935   0.01934   1.88903
   A23        2.21717  -0.00138   0.00000  -0.00630  -0.00630   2.21087
   A24        2.19633  -0.00255   0.00000  -0.01305  -0.01305   2.18329
   A25        1.91215  -0.00443   0.00000  -0.01710  -0.01699   1.89516
   A26        2.10250   0.00256   0.00000   0.01056   0.01051   2.11301
   A27        2.26854   0.00187   0.00000   0.00654   0.00648   2.27502
    D1       -0.00001   0.00000   0.00000   0.00005   0.00005   0.00003
    D2       -3.14156  -0.00000   0.00000  -0.00008  -0.00009   3.14154
    D3        3.14152   0.00000   0.00000   0.00013   0.00013  -3.14153
    D4       -0.00002  -0.00000   0.00000  -0.00000  -0.00000  -0.00003
    D5       -0.00003   0.00001   0.00000   0.00030   0.00030   0.00027
    D6        3.14153  -0.00000   0.00000  -0.00002  -0.00002   3.14151
    D7       -3.14157   0.00001   0.00000   0.00022   0.00022  -3.14135
    D8       -0.00001  -0.00000   0.00000  -0.00010  -0.00010  -0.00011
    D9        0.00003  -0.00001   0.00000  -0.00032  -0.00032  -0.00028
   D10       -3.14154   0.00000   0.00000   0.00005   0.00005  -3.14149
   D11        3.14158  -0.00001   0.00000  -0.00018  -0.00018   3.14139
   D12        0.00001   0.00001   0.00000   0.00018   0.00018   0.00019
   D13       -0.00001   0.00001   0.00000   0.00024   0.00024   0.00023
   D14       -3.14144   0.00000   0.00000   0.00009   0.00009  -3.14134
   D15        3.14156  -0.00000   0.00000  -0.00013  -0.00013   3.14143
   D16        0.00013  -0.00001   0.00000  -0.00027  -0.00027  -0.00014
   D17       -0.00004   0.00000   0.00000   0.00010   0.00010   0.00007
   D18       -3.14151  -0.00000   0.00000  -0.00017  -0.00017   3.14150
   D19        3.14143   0.00001   0.00000   0.00022   0.00022  -3.14154
   D20       -0.00005  -0.00000   0.00000  -0.00006  -0.00006  -0.00011
   D21       -3.14124   0.00001   0.00000   0.00008   0.00008  -3.14116
   D22       -0.00113  -0.00000   0.00000  -0.00015  -0.00015  -0.00128
   D23        0.00049   0.00000   0.00000  -0.00004  -0.00005   0.00045
   D24        3.14060  -0.00001   0.00000  -0.00027  -0.00028   3.14033
   D25        0.00005  -0.00001   0.00000  -0.00037  -0.00037  -0.00032
   D26       -3.14151  -0.00000   0.00000  -0.00005  -0.00005  -3.14156
   D27        3.14150  -0.00000   0.00000  -0.00000  -0.00000   3.14149
   D28       -0.00007   0.00001   0.00000   0.00032   0.00032   0.00025
   D29       -0.00041   0.00001   0.00000   0.00015   0.00015  -0.00026
   D30        3.14139   0.00001   0.00000   0.00021   0.00021  -3.14159
   D31        3.14132  -0.00000   0.00000  -0.00018  -0.00018   3.14114
   D32       -0.00006  -0.00000   0.00000  -0.00013  -0.00012  -0.00019
   D33       -0.00077   0.00001   0.00000   0.00016   0.00016  -0.00061
   D34        3.14133   0.00000   0.00000   0.00001   0.00001   3.14134
   D35       -3.14089   0.00001   0.00000   0.00038   0.00038  -3.14051
   D36        0.00121   0.00001   0.00000   0.00023   0.00023   0.00144
   D37        0.00072  -0.00000   0.00000  -0.00018  -0.00018   0.00054
   D38       -3.14144   0.00000   0.00000  -0.00001  -0.00001  -3.14146
   D39       -3.14107  -0.00001   0.00000  -0.00024  -0.00024  -3.14131
   D40       -0.00005  -0.00000   0.00000  -0.00007  -0.00007  -0.00012
         Item               Value     Threshold  Converged?
 Maximum Force            0.044917     0.000450     NO 
 RMS     Force            0.008281     0.000300     NO 
 Maximum Displacement     0.066235     0.001800     NO 
 RMS     Displacement     0.020999     0.001200     NO 
 Predicted change in Energy=-6.286045D-03
 GradGradGradGradGradGradGradGradGradGradGradGradGradGradGradGradGradGrad

                          Input orientation:                          
 ---------------------------------------------------------------------
 Center     Atomic      Atomic             Coordinates (Angstroms)
 Number     Number       Type             X           Y           Z
 ---------------------------------------------------------------------
      1          6           0       -2.175124    0.702211    0.000052
      2          6           0       -2.139590   -0.700182    0.000007
      3          6           0       -0.902596   -1.421604    0.000115
      4          6           0        0.263196   -0.678641   -0.000084
      5          6           0        0.254120    0.752798   -0.000107
      6          6           0       -0.995272    1.455052    0.000164
      7          7           0        1.581118   -1.085882   -0.000308
      8          6           0        1.597516    1.149953   -0.000200
      9          6           0        2.392427    0.002082    0.000106
     10          1           0        1.895382   -2.028008    0.000674
     11          1           0        1.967058    2.154126   -0.000236
     12          1           0        3.456652   -0.103128    0.000254
     13          1           0       -3.065135   -1.245555   -0.000030
     14          1           0       -0.882202   -2.496068   -0.000017
     15          1           0       -3.126025    1.200868    0.000023
     16          1           0       -1.024621    2.529425    0.000122
 ---------------------------------------------------------------------
                    Distance matrix (angstroms):
                    1          2          3          4          5
     1  C    0.000000
     2  C    1.402843   0.000000
     3  C    2.475867   1.431993   0.000000
     4  C    2.802170   2.402883   1.382413   0.000000
     5  C    2.429771   2.800179   2.462928   1.431467   0.000000
     6  C    1.399579   2.440184   2.878149   2.477174   1.433228
     7  N    4.160123   3.740646   2.506300   1.379407   2.267524
     8  C    3.799116   4.170008   3.586567   2.263662   1.400873
     9  C    4.620898   4.586104   3.589437   2.235399   2.266259
    10  H    4.901338   4.247838   2.862937   2.117740   3.229028
    11  H    4.389275   5.001164   4.584840   3.305710   2.213115
    12  H    5.689066   5.628002   4.554275   3.244900   3.314939
    13  H    2.141474   1.074274   2.169694   3.376267   3.874387
    14  H    3.449730   2.192312   1.074658   2.148250   3.441854
    15  H    1.073719   2.141739   3.438167   3.875483   3.409714
    16  H    2.159252   3.416654   3.952913   3.456901   2.188969
                    6          7          8          9         10
     6  C    0.000000
     7  N    3.618581   0.000000
     8  C    2.610677   2.235895   0.000000
     9  C    3.686140   1.357162   1.396242   0.000000
    10  H    4.526322   0.993159   3.191890   2.090053   0.000000
    11  H    3.043699   3.262914   1.070012   2.193680   4.182749
    12  H    4.716731   2.117413   2.242008   1.069413   2.478453
    13  H    3.402589   4.648996   5.242020   5.598355   5.021849
    14  H    3.952738   2.838409   4.409361   4.118731   2.816745
    15  H    2.145861   5.233203   4.723815   5.647158   5.969939
    16  H    1.074774   4.456492   2.962861   4.250139   5.412635
                   11         12         13         14         15
    11  H    0.000000
    12  H    2.704457   0.000000
    13  H    6.072957   6.621091   0.000000
    14  H    5.453677   4.954979   2.515747   0.000000
    15  H    5.181525   6.710592   2.447180   4.324590   0.000000
    16  H    3.015128   5.197321   4.291174   5.027511   2.486154
                   16
    16  H    0.000000
 Stoichiometry    C8H7N
 Framework group  C1[X(C8H7N)]
 Deg. of freedom    42
 Full point group                 C1      NOp   1
 Largest Abelian subgroup         C1      NOp   1
 Largest concise Abelian subgroup C1      NOp   1
                         Standard orientation:                         
 ---------------------------------------------------------------------
 Center     Atomic      Atomic             Coordinates (Angstroms)
 Number     Number       Type             X           Y           Z
 ---------------------------------------------------------------------
      1          6           0       -2.192282    0.650080    0.000069
      2          6           0       -2.123090   -0.751055    0.000024
      3          6           0       -0.869132   -1.442571    0.000132
      4          6           0        0.278486   -0.671834   -0.000067
      5          6           0        0.235047    0.758974   -0.000090
      6          6           0       -1.030845    1.431031    0.000181
      7          7           0        1.605805   -1.047317   -0.000291
      8          6           0        1.568521    1.188267   -0.000184
      9          6           0        2.390761    0.059811    0.000123
     10          1           0        1.942597   -1.981627    0.000691
     11          1           0        1.913849    2.201023   -0.000219
     12          1           0        3.457205   -0.019819    0.000271
     13          1           0       -3.035275   -1.318491   -0.000013
     14          1           0       -0.822949   -2.516236    0.000000
     15          1           0       -3.154881    1.125765    0.000040
     16          1           0       -1.085979    2.504390    0.000139
 ---------------------------------------------------------------------
 Rotational constants (GHZ):           3.8686831           1.6296434           1.1466351
 Standard basis: 6-31+G(d) (6D, 7F)
 There are   185 symmetry adapted cartesian basis functions of A   symmetry.
 There are   185 symmetry adapted basis functions of A   symmetry.
   185 basis functions,   316 primitive gaussians,   185 cartesian basis functions
    31 alpha electrons       31 beta electrons
       nuclear repulsion energy       399.8140258377 Hartrees.
 NAtoms=   16 NActive=   16 NUniq=   16 SFac= 1.00D+00 NAtFMM=   60 NAOKFM=F Big=F
 Integral buffers will be    131072 words long.
 Raffenetti 1 integral format.
 Two-electron integral symmetry is turned on.
 One-electron integrals computed using PRISM.
 NBasis=   185 RedAO= T EigKep=  1.27D-06  NBF=   185
 NBsUse=   185 1.00D-06 EigRej= -1.00D+00 NBFU=   185
 Initial guess from the checkpoint file:  "FuncsCIS-V-1st.chk"
 B after Tr=     0.000000   -0.000000   -0.000000
         Rot=    0.999935    0.000002   -0.000007   -0.011409 Ang=   1.31 deg.
 ExpMin= 4.38D-02 ExpMax= 4.17D+03 ExpMxC= 6.27D+02 IAcc=3 IRadAn=         5 AccDes= 0.00D+00
 Harris functional with IExCor=  205 and IRadAn=       5 diagonalized for initial guess.
 HarFok:  IExCor=  205 AccDes= 0.00D+00 IRadAn=         5 IDoV= 1 UseB2=F ITyADJ=14
 ICtDFT=  3500011 ScaDFX=  1.000000  1.000000  1.000000  1.000000
 FoFCou: FMM=F IPFlag=           0 FMFlag=      100000 FMFlg1=           0
         NFxFlg=           0 DoJE=T BraDBF=F KetDBF=T FulRan=T
         wScrn=  0.000000 ICntrl=       500 IOpCl=  0 I1Cent=   200000004 NGrid=           0
         NMat0=    1 NMatS0=      1 NMatT0=    0 NMatD0=    1 NMtDS0=    0 NMtDT0=    0
 Petite list used in FoFCou.
 Keep R1 ints in memory in canonical form, NReq=151233468.
 Requested convergence on RMS density matrix=1.00D-08 within 128 cycles.
 Requested convergence on MAX density matrix=1.00D-06.
 Requested convergence on             energy=1.00D-06.
 No special actions if energy rises.
 SCF Done:  E(RHF) =  -361.471091712     A.U. after   15 cycles
            NFock= 15  Conv=0.80D-08     -V/T= 2.0020
 ExpMin= 4.38D-02 ExpMax= 4.17D+03 ExpMxC= 6.27D+02 IAcc=3 IRadAn=         5 AccDes= 0.00D+00
 HarFok:  IExCor=  205 AccDes= 0.00D+00 IRadAn=         5 IDoV=-2 UseB2=F ITyADJ=14
 ICtDFT= 12500011 ScaDFX=  1.000000  1.000000  1.000000  1.000000
 Range of M.O.s used for correlation:    10   185
 NBasis=   185 NAE=    31 NBE=    31 NFC=     9 NFV=     0
 NROrb=    176 NOA=    22 NOB=    22 NVA=   154 NVB=   154

 **** Warning!!: The largest alpha MO coefficient is  0.24307007D+03

 Orbital symmetries:
       Occupied  (A) (A) (A) (A) (A) (A) (A) (A) (A) (A) (A) (A)
                 (A) (A) (A) (A) (A) (A) (A) (A) (A) (A) (A) (A)
                 (A) (A) (A) (A) (A) (A) (A)
       Virtual   (A) (A) (A) (A) (A) (A) (A) (A) (A) (A) (A) (A)
                 (A) (A) (A) (A) (A) (A) (A) (A) (A) (A) (A) (A)
                 (A) (A) (A) (A) (A) (A) (A) (A) (A) (A) (A) (A)
                 (A) (A) (A) (A) (A) (A) (A) (A) (A) (A) (A) (A)
                 (A) (A) (A) (A) (A) (A) (A) (A) (A) (A) (A) (A)
                 (A) (A) (A) (A) (A) (A) (A) (A) (A) (A) (A) (A)
                 (A) (A) (A) (A) (A) (A) (A) (A) (A) (A) (A) (A)
                 (A) (A) (A) (A) (A) (A) (A) (A) (A) (A) (A) (A)
                 (A) (A) (A) (A) (A) (A) (A) (A) (A) (A) (A) (A)
                 (A) (A) (A) (A) (A) (A) (A) (A) (A) (A) (A) (A)
                 (A) (A) (A) (A) (A) (A) (A) (A) (A) (A) (A) (A)
                 (A) (A) (A) (A) (A) (A) (A) (A) (A) (A) (A) (A)
                 (A) (A) (A) (A) (A) (A) (A) (A) (A) (A)
 Generating guess from densities on rwf.
 Convergence on wavefunction:    0.000001000000000
 Iteration     1 Dimension     6 NMult     0 NNew      6
 CISAX will form     6 AO SS matrices at one time.
 New state      4 was old state      6
 New state      6 was old state      4
 Iteration     2 Dimension    12 NMult     6 NNew      6
 New state      4 was old state      5
 New state      5 was old state      4
 Iteration     3 Dimension    18 NMult    12 NNew      6
 Iteration     4 Dimension    24 NMult    18 NNew      6
 Iteration     5 Dimension    30 NMult    24 NNew      6
 Iteration     6 Dimension    36 NMult    30 NNew      6
 Iteration     7 Dimension    42 NMult    36 NNew      6
 Iteration     8 Dimension    48 NMult    42 NNew      6
 Iteration     9 Dimension    54 NMult    48 NNew      6
 Iteration    10 Dimension    60 NMult    54 NNew      6
 Iteration    11 Dimension    66 NMult    60 NNew      6
 Iteration    12 Dimension    72 NMult    66 NNew      6
 Iteration    13 Dimension    77 NMult    72 NNew      5
 Iteration    14 Dimension    80 NMult    77 NNew      3
 Iteration    15 Dimension    83 NMult    80 NNew      3
 Iteration    16 Dimension    85 NMult    83 NNew      2
 Iteration    17 Dimension    87 NMult    85 NNew      2
 ***********************************************************************
 Excited states from <AA,BB:AA,BB> singles matrix:
 ***********************************************************************
 
 Ground to excited state transition densities written to RWF  633
 Ground to excited state transition electric dipole moments (Au):
       state          X           Y           Z        Dip. S.      Osc.
         1         1.4052     -0.6565      0.0009      2.4057      0.3070
         2         0.0037     -0.0017     -0.2874      0.0826      0.0108
         3         0.1879      0.3185      0.0000      0.1368      0.0187
         4        -0.0003     -0.0001     -0.1014      0.0103      0.0015
         5        -0.0000      0.0001      0.0973      0.0095      0.0014
         6         0.0009      0.0006      0.1500      0.0225      0.0035
 Ground to excited state transition velocity dipole moments (Au):
       state          X           Y           Z        Dip. S.      Osc.
         1        -0.0592     -0.0011     -0.0001      0.0035      0.0122
         2        -0.0002      0.0000      0.0292      0.0009      0.0029
         3        -0.0119      0.0059      0.0000      0.0002      0.0006
         4         0.0000      0.0000      0.0257      0.0007      0.0020
         5         0.0000      0.0000     -0.0167      0.0003      0.0008
         6        -0.0001     -0.0000     -0.0433      0.0019      0.0054
 Ground to excited state transition magnetic dipole moments (Au):
       state          X           Y           Z
         1        -0.0003      0.0005      0.0152
         2         0.1345     -0.1894      0.0001
         3        -0.0000     -0.0001      0.0070
         4         0.1528     -0.4619     -0.0002
         5         0.3508      0.0714      0.0002
         6         0.0332      0.0792      0.0006
 Ground to excited state transition velocity quadrupole moments (Au):
       state          XX          YY          ZZ          XY          XZ          YZ
         1        -0.1456      0.1300     -0.0448     -0.0027     -0.0004     -0.0000
         2        -0.0005      0.0004      0.0000     -0.0000      0.1618      0.0459
         3        -0.1620     -0.0199     -0.0273      0.0002      0.0002     -0.0001
         4        -0.0002     -0.0000     -0.0000     -0.0001      0.4698      0.2295
         5         0.0000     -0.0001      0.0001      0.0001      0.0128      0.2214
         6        -0.0003      0.0002      0.0001      0.0002      0.0222      0.0745
 <0|del|b> * <b|rxdel|0> + <0|del|b> * <b|delr+rdel|0>
 Rotatory Strengths (R) in cgs (10**-40 erg-esu-cm/Gauss)
       state          XX          YY          ZZ    R(velocity)    E-M Angle
         1        -0.0037      0.0329      0.0348      0.0213       90.00
         2        -0.0014     -0.0482     -0.0275     -0.0257       90.00
         3        -0.0029      0.0022     -0.0005     -0.0004       90.00
         4        -0.0486      0.0079     -0.0019     -0.0142       90.00
         5        -0.0059      0.0211      0.0074      0.0075       90.00
         6        -0.0567     -0.0399     -0.0028     -0.0331       90.00
 1/2[<0|r|b>*<b|rxdel|0> + (<0|rxdel|b>*<b|r|0>)*]
 Rotatory Strengths (R) in cgs (10**-40 erg-esu-cm/Gauss)
       state          XX          YY          ZZ     R(length)
         1         0.3204      0.2347     -0.0095      0.1818
         2        -0.3549     -0.2307      0.0213     -0.1881
         3         0.0024      0.0251     -0.0000      0.0092
         4         0.0350     -0.0344     -0.0137     -0.0044
         5         0.0040     -0.0073     -0.0139     -0.0057
         6        -0.0201     -0.0317     -0.0656     -0.0392
  1/2[<0|del|b>*<b|r|0> + (<0|r|b>*<b|del|0>)*] (Au)
       state          X           Y           Z        Dip. S.   Osc.(frdel)
         1        -0.0832      0.0007     -0.0000      0.0825      0.0550
         2        -0.0000     -0.0000     -0.0084      0.0084      0.0056
         3        -0.0022      0.0019      0.0000      0.0003      0.0002
         4        -0.0000     -0.0000     -0.0026      0.0026      0.0017
         5        -0.0000      0.0000     -0.0016      0.0016      0.0011
         6        -0.0000     -0.0000     -0.0065      0.0065      0.0043

 Excitation energies and oscillator strengths:
 
 Excited State   1:      Singlet-A      5.2088 eV  238.03 nm  f=0.3070  <S**2>=0.000
      30 -> 41        -0.13404
      30 -> 43         0.15400
      31 -> 35         0.61458
      31 -> 41         0.11406
 This state for optimization and/or second-order correction.
 Total Energy, E(CIS/TDA) =  -361.279673600    
 Copying the excited state density for this state as the 1-particle RhoCI density.
 
 Excited State   2:      Singlet-A      5.3493 eV  231.78 nm  f=0.0108  <S**2>=0.000
      29 -> 32         0.10189
      31 -> 32         0.65254
      31 -> 34        -0.10408
      31 -> 42         0.10920
 
 Excited State   3:      Singlet-A      5.5811 eV  222.15 nm  f=0.0187  <S**2>=0.000
      30 -> 35         0.49763
      30 -> 40        -0.10806
      30 -> 41         0.15002
      31 -> 41         0.24263
      31 -> 43        -0.26421
      31 -> 44         0.12524
      31 -> 54         0.11513
 
 Excited State   4:      Singlet-A      5.9048 eV  209.97 nm  f=0.0015  <S**2>=0.000
      31 -> 33         0.62242
      31 -> 34        -0.21195
 
 Excited State   5:      Singlet-A      6.0108 eV  206.27 nm  f=0.0014  <S**2>=0.000
      31 -> 32         0.13707
      31 -> 33         0.20914
      31 -> 34         0.58938
      31 -> 36         0.11866
      31 -> 42        -0.15293
 
 Excited State   6:      Singlet-A      6.3098 eV  196.50 nm  f=0.0035  <S**2>=0.000
      30 -> 32        -0.58183
      30 -> 33         0.21074
      30 -> 39         0.11520
      30 -> 42        -0.10430
      31 -> 37         0.11111
 SavETr:  write IOETrn=   770 NScale= 10 NData=  16 NLR=1 NState=    6 LETran=     118.
          IDoAtm=1111111111111111
          Differentiating once with respect to electric field.
                with respect to dipole field.
          Differentiating once with respect to nuclear coordinates.
 Keep R1 ints in memory in canonical form, NReq=151235562.
          There are     1 degrees of freedom in the 1st order CPHF.  IDoFFX=0 NUNeed=     1.
 LinEq1:  Iter=  0 NonCon=     1 RMS=2.53D-03 Max=3.47D-02 NDo=     1
 AX will form     1 AO Fock derivatives at one time.
 LinEq1:  Iter=  1 NonCon=     1 RMS=1.15D-03 Max=2.43D-02 NDo=     1
 LinEq1:  Iter=  2 NonCon=     1 RMS=3.42D-04 Max=6.93D-03 NDo=     1
 LinEq1:  Iter=  3 NonCon=     1 RMS=1.62D-04 Max=4.32D-03 NDo=     1
 LinEq1:  Iter=  4 NonCon=     1 RMS=5.05D-05 Max=9.65D-04 NDo=     1
 LinEq1:  Iter=  5 NonCon=     1 RMS=2.12D-05 Max=4.43D-04 NDo=     1
 LinEq1:  Iter=  6 NonCon=     1 RMS=7.41D-06 Max=1.47D-04 NDo=     1
 LinEq1:  Iter=  7 NonCon=     1 RMS=1.82D-06 Max=3.28D-05 NDo=     1
 LinEq1:  Iter=  8 NonCon=     1 RMS=7.35D-07 Max=1.73D-05 NDo=     1
 LinEq1:  Iter=  9 NonCon=     1 RMS=2.66D-07 Max=7.37D-06 NDo=     1
 LinEq1:  Iter= 10 NonCon=     1 RMS=7.95D-08 Max=1.40D-06 NDo=     1
 LinEq1:  Iter= 11 NonCon=     1 RMS=4.02D-08 Max=1.09D-06 NDo=     1
 LinEq1:  Iter= 12 NonCon=     1 RMS=1.37D-08 Max=2.47D-07 NDo=     1
 LinEq1:  Iter= 13 NonCon=     1 RMS=5.52D-09 Max=9.80D-08 NDo=     1
 LinEq1:  Iter= 14 NonCon=     1 RMS=1.54D-09 Max=1.60D-08 NDo=     1
 LinEq1:  Iter= 15 NonCon=     1 RMS=4.96D-10 Max=7.00D-09 NDo=     1
 LinEq1:  Iter= 16 NonCon=     1 RMS=1.65D-10 Max=2.52D-09 NDo=     1
 LinEq1:  Iter= 17 NonCon=     0 RMS=3.61D-11 Max=5.24D-10 NDo=     1
 Linear equations converged to 1.000D-10 1.000D-09 after    17 iterations.
 End of Minotr F.D. properties file   721 does not exist.
 End of Minotr F.D. properties file   722 does not exist.
 End of Minotr F.D. properties file   788 does not exist.
 Calling FoFJK, ICntrl=  10005127 FMM=F ISym2X=0 I1Cent= 0 IOpClX= 0 NMat=1 NMatS=1 NMatT=0.
 ***** Axes restored to original set *****
 -------------------------------------------------------------------
 Center     Atomic                   Forces (Hartrees/Bohr)
 Number     Number              X              Y              Z
 -------------------------------------------------------------------
      1        6           0.004982174   -0.010664225   -0.000000828
      2        6          -0.007290645    0.015039053   -0.000006814
      3        6           0.014066948   -0.003650615    0.000024613
      4        6          -0.015030350   -0.001412314   -0.000006130
      5        6           0.016788750   -0.006470979   -0.000030005
      6        6          -0.007139064    0.003366744    0.000007672
      7        7           0.004177922    0.012406890   -0.000003257
      8        6          -0.014626878    0.007740089    0.000011253
      9        6           0.002992393   -0.015165166    0.000003769
     10        1          -0.000266753   -0.001500883    0.000005592
     11        1           0.001814302    0.000373727    0.000003026
     12        1           0.000387458    0.001288011   -0.000004505
     13        1           0.000411588   -0.001164017   -0.000001533
     14        1          -0.001868628   -0.000092796   -0.000004031
     15        1          -0.000294098    0.000265531    0.000001202
     16        1           0.000894881   -0.000359049   -0.000000023
 -------------------------------------------------------------------
 Cartesian Forces:  Max     0.016788750 RMS     0.006358849

 GradGradGradGradGradGradGradGradGradGradGradGradGradGradGradGradGradGrad
 Berny optimization.
 Using GEDIIS/GDIIS optimizer.
 FormGI is forming the generalized inverse of G from B-inverse, IUseBI=4.
 Internal  Forces:  Max     0.009544410 RMS     0.002426192
 Search for a local minimum.
 Step number   2 out of a maximum of   94
 All quantities printed in internal units (Hartrees-Bohrs-Radians)
 Mixed Optimization -- RFO/linear search
 Update second derivatives using D2CorX and points    1    2
 DE= -7.13D-03 DEPred=-6.29D-03 R= 1.13D+00
 TightC=F SS=  1.41D+00  RLast= 1.64D-01 DXNew= 5.0454D-01 4.9077D-01
 Trust test= 1.13D+00 RLast= 1.64D-01 DXMaxT set to 4.91D-01
 ITU=  1  0
 Use linear search instead of GDIIS.
     Eigenvalues ---    0.01854   0.01932   0.01986   0.02011   0.02069
     Eigenvalues ---    0.02113   0.02148   0.02155   0.02172   0.02210
     Eigenvalues ---    0.02233   0.02248   0.02338   0.15805   0.16000
     Eigenvalues ---    0.16000   0.16000   0.16000   0.16000   0.16029
     Eigenvalues ---    0.21081   0.22015   0.22605   0.24346   0.24696
     Eigenvalues ---    0.34252   0.35718   0.35762   0.35787   0.35965
     Eigenvalues ---    0.36430   0.36607   0.37435   0.39988   0.43308
     Eigenvalues ---    0.44758   0.46610   0.46788   0.47324   0.47625
     Eigenvalues ---    0.50161   0.53728
 RFO step:  Lambda=-1.47079602D-03 EMin= 1.85397640D-02
 Quartic linear search produced a step of  0.19305.
 Iteration  1 RMS(Cart)=  0.00625810 RMS(Int)=  0.00004713
 Iteration  2 RMS(Cart)=  0.00007269 RMS(Int)=  0.00001821
 Iteration  3 RMS(Cart)=  0.00000000 RMS(Int)=  0.00001821
 Variable       Old X    -DE/DX   Delta X   Delta X   Delta X     New X
                                 (Linear)    (Quad)   (Total)
    R1        2.65099  -0.00954  -0.00087  -0.02526  -0.02615   2.62484
    R2        2.64482  -0.00194   0.00616  -0.00737  -0.00122   2.64360
    R3        2.02903   0.00038  -0.00293   0.00249  -0.00044   2.02860
    R4        2.70607   0.00658   0.01747   0.00896   0.02642   2.73249
    R5        2.03008   0.00024  -0.00271   0.00191  -0.00080   2.02929
    R6        2.61238  -0.00635  -0.00412  -0.01438  -0.01849   2.59389
    R7        2.03081   0.00006  -0.00280   0.00136  -0.00145   2.02936
    R8        2.70508  -0.00250   0.00473  -0.00931  -0.00452   2.70056
    R9        2.60670   0.00158   0.00105   0.00266   0.00375   2.61045
   R10        2.70841   0.00397   0.01172   0.00576   0.01749   2.72590
   R11        2.64727  -0.00731  -0.01180  -0.01614  -0.02796   2.61931
   R12        2.03103  -0.00038  -0.00275  -0.00013  -0.00288   2.02815
   R13        2.56466  -0.00688  -0.00793  -0.01325  -0.02118   2.54348
   R14        1.87680   0.00134  -0.00360   0.00484   0.00124   1.87804
   R15        2.63851   0.00775   0.01155   0.01383   0.02533   2.66384
   R16        2.02203   0.00098  -0.00235   0.00416   0.00181   2.02384
   R17        2.02090   0.00026  -0.00259   0.00192  -0.00067   2.02023
    A1        2.11341   0.00225  -0.00015   0.01128   0.01111   2.12452
    A2        2.07911  -0.00103  -0.00014  -0.00480  -0.00493   2.07417
    A3        2.09066  -0.00123   0.00030  -0.00648  -0.00618   2.08449
    A4        2.12411   0.00023   0.00171  -0.00045   0.00124   2.12534
    A5        2.07794   0.00112  -0.00110   0.00942   0.00833   2.08627
    A6        2.08114  -0.00134  -0.00061  -0.00898  -0.00957   2.07157
    A7        2.04622  -0.00243  -0.00101  -0.01269  -0.01370   2.03252
    A8        2.11775  -0.00068   0.00098  -0.00790  -0.00692   2.11083
    A9        2.11922   0.00311   0.00003   0.02059   0.02062   2.13983
   A10        2.13185   0.00346  -0.00039   0.01840   0.01801   2.14986
   A11        2.27450   0.00038  -0.00086   0.00296   0.00205   2.27655
   A12        1.87683  -0.00385   0.00125  -0.02137  -0.02006   1.85678
   A13        2.08920  -0.00237   0.00318  -0.01179  -0.00858   2.08063
   A14        1.85190   0.00444  -0.00256   0.02156   0.01899   1.87089
   A15        2.34208  -0.00207  -0.00062  -0.00976  -0.01041   2.33167
   A16        2.06157  -0.00114  -0.00334  -0.00475  -0.00808   2.05350
   A17        2.11144   0.00147   0.00162   0.00904   0.01065   2.12208
   A18        2.11017  -0.00033   0.00172  -0.00428  -0.00257   2.10761
   A19        1.91185   0.00349   0.00085   0.01739   0.01828   1.93014
   A20        2.19245  -0.00243   0.00043  -0.01414  -0.01373   2.17873
   A21        2.17888  -0.00106  -0.00128  -0.00325  -0.00456   2.17432
   A22        1.88903  -0.00189   0.00373  -0.00929  -0.00561   1.88342
   A23        2.21087   0.00254  -0.00122   0.01609   0.01490   2.22577
   A24        2.18329  -0.00064  -0.00252  -0.00680  -0.00930   2.17399
   A25        1.89516  -0.00219  -0.00328  -0.00829  -0.01161   1.88355
   A26        2.11301   0.00243   0.00203   0.01382   0.01586   2.12887
   A27        2.27502  -0.00024   0.00125  -0.00552  -0.00425   2.27076
    D1        0.00003   0.00000   0.00001   0.00008   0.00009   0.00012
    D2        3.14154   0.00000  -0.00002   0.00003   0.00001   3.14155
    D3       -3.14153   0.00000   0.00002   0.00013   0.00016  -3.14138
    D4       -0.00003   0.00000  -0.00000   0.00008   0.00008   0.00005
    D5        0.00027   0.00000   0.00006   0.00006   0.00012   0.00038
    D6        3.14151   0.00000  -0.00000   0.00011   0.00010  -3.14157
    D7       -3.14135   0.00000   0.00004   0.00000   0.00005  -3.14130
    D8       -0.00011   0.00000  -0.00002   0.00005   0.00003  -0.00007
    D9       -0.00028  -0.00000  -0.00006  -0.00019  -0.00025  -0.00054
   D10       -3.14149  -0.00000   0.00001   0.00003   0.00003  -3.14146
   D11        3.14139  -0.00000  -0.00004  -0.00014  -0.00017   3.14122
   D12        0.00019   0.00000   0.00004   0.00008   0.00011   0.00030
   D13        0.00023   0.00000   0.00005   0.00017   0.00022   0.00045
   D14       -3.14134   0.00000   0.00002   0.00010   0.00011  -3.14123
   D15        3.14143  -0.00000  -0.00002  -0.00005  -0.00008   3.14135
   D16       -0.00014  -0.00000  -0.00005  -0.00013  -0.00018  -0.00033
   D17        0.00007   0.00000   0.00002  -0.00004  -0.00002   0.00004
   D18        3.14150  -0.00001  -0.00003  -0.00029  -0.00032   3.14117
   D19       -3.14154   0.00000   0.00004   0.00002   0.00006  -3.14148
   D20       -0.00011  -0.00000  -0.00001  -0.00023  -0.00024  -0.00035
   D21       -3.14116   0.00000   0.00002   0.00019   0.00021  -3.14095
   D22       -0.00128   0.00000  -0.00003   0.00012   0.00009  -0.00119
   D23        0.00045   0.00000  -0.00001   0.00013   0.00012   0.00057
   D24        3.14033   0.00000  -0.00005   0.00006   0.00000   3.14033
   D25       -0.00032  -0.00000  -0.00007  -0.00008  -0.00015  -0.00047
   D26       -3.14156  -0.00000  -0.00001  -0.00013  -0.00014   3.14149
   D27        3.14149   0.00000  -0.00000   0.00025   0.00024  -3.14145
   D28        0.00025   0.00000   0.00006   0.00020   0.00025   0.00050
   D29       -0.00026   0.00001   0.00003   0.00025   0.00028   0.00002
   D30       -3.14159   0.00000   0.00004   0.00016   0.00020  -3.14139
   D31        3.14114  -0.00000  -0.00004  -0.00005  -0.00008   3.14106
   D32       -0.00019  -0.00000  -0.00002  -0.00014  -0.00016  -0.00035
   D33       -0.00061   0.00000   0.00003   0.00003   0.00006  -0.00056
   D34        3.14134   0.00000   0.00000   0.00001   0.00001   3.14134
   D35       -3.14051   0.00000   0.00007   0.00011   0.00018  -3.14033
   D36        0.00144   0.00000   0.00004   0.00009   0.00013   0.00157
   D37        0.00054  -0.00000  -0.00004  -0.00018  -0.00022   0.00032
   D38       -3.14146  -0.00000  -0.00000  -0.00015  -0.00016   3.14157
   D39       -3.14131  -0.00000  -0.00005  -0.00009  -0.00014  -3.14145
   D40       -0.00012  -0.00000  -0.00001  -0.00006  -0.00008  -0.00020
         Item               Value     Threshold  Converged?
 Maximum Force            0.009544     0.000450     NO 
 RMS     Force            0.002426     0.000300     NO 
 Maximum Displacement     0.019406     0.001800     NO 
 RMS     Displacement     0.006256     0.001200     NO 
 Predicted change in Energy=-9.349141D-04
 GradGradGradGradGradGradGradGradGradGradGradGradGradGradGradGradGradGrad

                          Input orientation:                          
 ---------------------------------------------------------------------
 Center     Atomic      Atomic             Coordinates (Angstroms)
 Number     Number       Type             X           Y           Z
 ---------------------------------------------------------------------
      1          6           0       -2.169213    0.696583   -0.000006
      2          6           0       -2.140541   -0.692127   -0.000004
      3          6           0       -0.895809   -1.427979    0.000270
      4          6           0        0.255963   -0.681301   -0.000131
      5          6           0        0.261530    0.747764   -0.000252
      6          6           0       -0.994760    1.456636    0.000112
[...]
 ! D9    D(1,2,3,4)             -0.0541         -DE/DX =    0.0                 !
 ! D10   D(1,2,3,14)           180.0024         -DE/DX =    0.0                 !
 ! D11   D(13,2,3,4)           179.963          -DE/DX =    0.0                 !
 ! D12   D(13,2,3,14)            0.0194         -DE/DX =    0.0                 !
 ! D13   D(2,3,4,5)              0.042          -DE/DX =    0.0                 !
 ! D14   D(2,3,4,7)           -179.9766         -DE/DX =    0.0                 !
 ! D15   D(14,3,4,5)           179.9843         -DE/DX =    0.0                 !
 ! D16   D(14,3,4,7)            -0.0343         -DE/DX =    0.0                 !
 ! D17   D(3,4,5,6)              0.0088         -DE/DX =    0.0                 !
 ! D18   D(3,4,5,8)            179.959          -DE/DX =    0.0                 !
 ! D19   D(7,4,5,6)           -179.9765         -DE/DX =    0.0                 !
 ! D20   D(7,4,5,8)             -0.0263         -DE/DX =    0.0                 !
 ! D21   D(3,4,7,9)           -179.9389         -DE/DX =    0.0                 !
 ! D22   D(3,4,7,10)            -0.0641         -DE/DX =    0.0                 !
 ! D23   D(5,4,7,9)              0.0449         -DE/DX =    0.0                 !
 ! D24   D(5,4,7,10)           179.9197         -DE/DX =    0.0                 !
 ! D25   D(4,5,6,1)             -0.0495         -DE/DX =    0.0                 !
 ! D26   D(4,5,6,16)           179.9891         -DE/DX =    0.0                 !
 ! D27   D(8,5,6,1)           -179.9838         -DE/DX =    0.0                 !
 ! D28   D(8,5,6,16)             0.0547         -DE/DX =    0.0                 !
 ! D29   D(4,5,8,9)             -0.0003         -DE/DX =    0.0                 !
 ! D30   D(4,5,8,11)          -179.9805         -DE/DX =    0.0                 !
 ! D31   D(6,5,8,9)            179.9397         -DE/DX =    0.0                 !
 ! D32   D(6,5,8,11)            -0.0405         -DE/DX =    0.0                 !
 ! D33   D(4,7,9,8)             -0.0456         -DE/DX =    0.0                 !
 ! D34   D(4,7,9,12)           179.9872         -DE/DX =    0.0                 !
 ! D35   D(10,7,9,8)          -179.9205         -DE/DX =    0.0                 !
 ! D36   D(10,7,9,12)            0.1123         -DE/DX =    0.0                 !
 ! D37   D(5,8,9,7)              0.0278         -DE/DX =    0.0                 !
 ! D38   D(5,8,9,12)           179.9916         -DE/DX =    0.0                 !
 ! D39   D(11,8,9,7)          -179.9912         -DE/DX =    0.0                 !
 ! D40   D(11,8,9,12)           -0.0274         -DE/DX =    0.0                 !
 --------------------------------------------------------------------------------
 GradGradGradGradGradGradGradGradGradGradGradGradGradGradGradGradGradGrad

                          Input orientation:                          
 ---------------------------------------------------------------------
 Center     Atomic      Atomic             Coordinates (Angstroms)
 Number     Number       Type             X           Y           Z
 ---------------------------------------------------------------------
      1          6           0       -2.169812    0.695153    0.000009
      2          6           0       -2.141879   -0.691731   -0.000059
      3          6           0       -0.895922   -1.426987    0.000389
      4          6           0        0.254723   -0.678540   -0.000276
      5          6           0        0.259992    0.747805   -0.000480
      6          6           0       -0.995544    1.454932    0.000222
      7          7           0        1.581703   -1.076208   -0.000522
      8          6           0        1.588209    1.154666   -0.000233
      9          6           0        2.394092   -0.005051    0.000127
     10          1           0        1.890575   -2.022091    0.000687
     11          1           0        1.967550    2.156218   -0.000001
     12          1           0        3.459421   -0.100602    0.000269
     13          1           0       -3.063460   -1.244480   -0.000173
     14          1           0       -0.892091   -2.501195    0.000290
     15          1           0       -3.120469    1.196828    0.000023
     16          1           0       -1.020184    2.528728    0.000263
 ---------------------------------------------------------------------
                    Distance matrix (angstroms):
                    1          2          3          4          5
     1  C    0.000000
     2  C    1.387165   0.000000
     3  C    2.475131   1.446724   0.000000
     4  C    2.786647   2.396638   1.372646   0.000000
     5  C    2.430375   2.800223   2.462896   1.426354   0.000000
     6  C    1.398632   2.433567   2.883640   2.472826   1.440972
     7  N    4.148685   3.743379   2.502334   1.385286   2.252541
     8  C    3.786011   4.162060   3.582714   2.266899   1.389135
     9  C    4.617305   4.587653   3.584145   2.242875   2.263001
    10  H    4.885709   4.246239   2.849336   2.116871   3.214206
    11  H    4.387764   4.999822   4.586811   3.312043   2.213455
    12  H    5.685199   5.632406   4.552836   3.256394   3.310006
    13  H    2.135598   1.074636   2.175207   3.366099   3.874859
    14  H    3.442269   2.199121   1.074215   2.153429   3.447216
    15  H    1.074908   2.127039   3.439915   3.861208   3.410153
    16  H    2.164172   3.410213   3.957666   3.451370   2.193294
                    6          7          8          9         10
     6  C    0.000000
     7  N    3.612322   0.000000
     8  C    2.601142   2.230883   0.000000
     9  C    3.690688   1.344378   1.412229   0.000000
    10  H    4.518780   0.995037   3.191115   2.078938   0.000000
    11  H    3.044951   3.255373   1.070983   2.202957   4.179018
    12  H    4.718729   2.116042   2.253249   1.069606   2.480605
    13  H    3.400456   4.648209   5.233920   5.596521   5.014692
    14  H    3.957480   2.854864   4.417829   4.126710   2.823609
    15  H    2.140543   5.222750   4.708867   5.644014   5.955838
    16  H    1.074078   4.445827   2.948179   4.251742   5.402080
                   11         12         13         14         15
    11  H    0.000000
    12  H    2.705350   0.000000
    13  H    6.072545   6.622418   0.000000
    14  H    5.465258   4.969759   2.508819   0.000000
    15  H    5.177680   6.706585   2.441973   4.317528   0.000000
    16  H    3.010867   5.194250   4.290928   5.031554   2.486997
                   16
    16  H    0.000000
 Stoichiometry    C8H7N
 Framework group  C1[X(C8H7N)]
 Deg. of freedom    42
 Full point group                 C1      NOp   1
 Largest Abelian subgroup         C1      NOp   1
 Largest concise Abelian subgroup C1      NOp   1
                         Standard orientation:                         
 ---------------------------------------------------------------------
 Center     Atomic      Atomic             Coordinates (Angstroms)
 Number     Number       Type             X           Y           Z
 ---------------------------------------------------------------------
      1          6           0       -2.186091    0.645518    0.000076
      2          6           0       -2.126379   -0.740361    0.000007
      3          6           0       -0.863898   -1.446867    0.000455
      4          6           0        0.269291   -0.672245   -0.000210
      5          6           0        0.241868    0.753846   -0.000414
      6          6           0       -1.029545    1.432011    0.000288
      7          7           0        1.605037   -1.039395   -0.000456
      8          6           0        1.560411    1.191042   -0.000167
      9          6           0        2.392662    0.050100    0.000194
     10          1           0        1.935506   -1.977951    0.000753
     11          1           0        1.916698    2.201025    0.000065
     12          1           0        3.459902   -0.021010    0.000335
     13          1           0       -3.035049   -1.314086   -0.000106
     14          1           0       -0.835448   -2.520706    0.000357
     15          1           0       -3.147997    1.125273    0.000090
     16          1           0       -1.078789    2.504960    0.000329
 ---------------------------------------------------------------------
 Rotational constants (GHZ):           3.8785748           1.6327369           1.1490354

 **********************************************************************

            Population analysis using the CI Density.

 **********************************************************************

 Orbital symmetries:
       Occupied  (A) (A) (A) (A) (A) (A) (A) (A) (A) (A) (A) (A)
                 (A) (A) (A) (A) (A) (A) (A) (A) (A) (A) (A) (A)
                 (A) (A) (A) (A) (A) (A) (A)
       Virtual   (A) (A) (A) (A) (A) (A) (A) (A) (A) (A) (A) (A)
                 (A) (A) (A) (A) (A) (A) (A) (A) (A) (A) (A) (A)
                 (A) (A) (A) (A) (A) (A) (A) (A) (A) (A) (A) (A)
                 (A) (A) (A) (A) (A) (A) (A) (A) (A) (A) (A) (A)
                 (A) (A) (A) (A) (A) (A) (A) (A) (A) (A) (A) (A)
                 (A) (A) (A) (A) (A) (A) (A) (A) (A) (A) (A) (A)
                 (A) (A) (A) (A) (A) (A) (A) (A) (A) (A) (A) (A)
                 (A) (A) (A) (A) (A) (A) (A) (A) (A) (A) (A) (A)
                 (A) (A) (A) (A) (A) (A) (A) (A) (A) (A) (A) (A)
                 (A) (A) (A) (A) (A) (A) (A) (A) (A) (A) (A) (A)
                 (A) (A) (A) (A) (A) (A) (A) (A) (A) (A) (A) (A)
                 (A) (A) (A) (A) (A) (A) (A) (A) (A) (A) (A) (A)
                 (A) (A) (A) (A) (A) (A) (A) (A) (A) (A)
 The electronic state is 1-A.
 Alpha  occ. eigenvalues --  -15.61793 -11.28151 -11.26940 -11.24210 -11.23764
 Alpha  occ. eigenvalues --  -11.23521 -11.23364 -11.22753 -11.21810  -1.31124
 Alpha  occ. eigenvalues --   -1.12905  -1.05852  -1.00958  -0.96594  -0.85213
 Alpha  occ. eigenvalues --   -0.81513  -0.79123  -0.73468  -0.67067  -0.65193
 Alpha  occ. eigenvalues --   -0.61033  -0.60182  -0.58777  -0.56990  -0.55450
 Alpha  occ. eigenvalues --   -0.50559  -0.49217  -0.46245  -0.38213  -0.31192
 Alpha  occ. eigenvalues --   -0.26527
 Alpha virt. eigenvalues --    0.05885   0.07640   0.08185   0.08818   0.09228
 Alpha virt. eigenvalues --    0.09793   0.12072   0.12109   0.12933   0.13378
 Alpha virt. eigenvalues --    0.13443   0.14169   0.15850   0.16060   0.16300
 Alpha virt. eigenvalues --    0.17415   0.18602   0.20153   0.21237   0.21771
 Alpha virt. eigenvalues --    0.22255   0.23372   0.24308   0.24990   0.25469
 Alpha virt. eigenvalues --    0.26514   0.27034   0.27745   0.28250   0.29224
 Alpha virt. eigenvalues --    0.29675   0.30267   0.31131   0.31400   0.32547
 Alpha virt. eigenvalues --    0.33468   0.34599   0.34925   0.35862   0.37959
 Alpha virt. eigenvalues --    0.39825   0.39987   0.41705   0.43016   0.44508
 Alpha virt. eigenvalues --    0.46357   0.47063   0.47762   0.49955   0.52532
 Alpha virt. eigenvalues --    0.54153   0.57584   0.62081   0.65673   0.71627
 Alpha virt. eigenvalues --    0.79054   0.83735   0.87562   0.90460   0.92930
 Alpha virt. eigenvalues --    0.94010   0.95435   0.96027   0.96803   0.98277
 Alpha virt. eigenvalues --    0.99309   1.01450   1.01610   1.03119   1.03541
 Alpha virt. eigenvalues --    1.04403   1.09600   1.13915   1.14083   1.15770
 Alpha virt. eigenvalues --    1.19056   1.20451   1.20708   1.22133   1.23877
 Alpha virt. eigenvalues --    1.25543   1.27237   1.28922   1.30604   1.32535
 Alpha virt. eigenvalues --    1.34138   1.35722   1.40242   1.40670   1.43613
 Alpha virt. eigenvalues --    1.46503   1.49162   1.49476   1.57706   1.58553
 Alpha virt. eigenvalues --    1.60866   1.61208   1.66348   1.68281   1.70505
 Alpha virt. eigenvalues --    1.74533   1.74973   1.78134   1.78213   1.80096
 Alpha virt. eigenvalues --    1.85256   1.91727   2.07437   2.12057   2.19163
 Alpha virt. eigenvalues --    2.20218   2.21920   2.26825   2.31921   2.32691
 Alpha virt. eigenvalues --    2.32961   2.36600   2.40436   2.46207   2.47624
 Alpha virt. eigenvalues --    2.49183   2.53147   2.56146   2.57228   2.60002
 Alpha virt. eigenvalues --    2.60806   2.64565   2.70596   2.75355   2.79537
 Alpha virt. eigenvalues --    2.88046   2.91064   2.96583   2.99477   2.99819
 Alpha virt. eigenvalues --    3.03341   3.08147   3.15733   3.19309   3.21377
 Alpha virt. eigenvalues --    3.31434   3.33274   3.49609   3.62945   3.80256
 Alpha virt. eigenvalues --    4.59172   4.67275   4.70516   4.73545   4.78432
 Alpha virt. eigenvalues --    4.83527   4.90653   4.94063   5.21009
          Condensed to atoms (all electrons):
               1          2          3          4          5          6
     1  C    6.197114  -0.071760   0.712235  -0.720035   0.293611  -0.707877
     2  C   -0.071760   6.489250  -0.820680   0.478955  -0.624077   0.895735
     3  C    0.712235  -0.820680  11.423567  -0.508195  -3.042473  -2.674317
     4  C   -0.720035   0.478955  -0.508195  10.330150  -3.388777  -0.942745
     5  C    0.293611  -0.624077  -3.042473  -3.388777  13.065581   0.243667
     6  C   -0.707877   0.895735  -2.674317  -0.942745   0.243667  12.302439
     7  N   -0.020498   0.029974  -0.645780  -0.111046   0.900536   0.053376
     8  C    0.141025  -0.334014   2.410235   2.400988  -4.051185  -3.489879
     9  C   -0.119089   0.028311  -0.871577  -0.834759   1.300541   0.976023
    10  H   -0.002254  -0.002778  -0.106571  -0.041307   0.134650   0.018859
    11  H    0.002789   0.001325   0.003154  -0.020735   0.051342   0.034892
    12  H    0.001640  -0.000713   0.035832   0.082262  -0.119123  -0.009966
    13  H    0.057760   0.255110   0.037064  -0.022148   0.034327  -0.034075
    14  H   -0.002413   0.071681   0.252120   0.047768  -0.036477  -0.010692
    15  H    0.248258   0.057515   0.001821  -0.010469   0.022411   0.000916
    16  H    0.049323  -0.010838  -0.001933   0.015328   0.079911   0.178595
               7          8          9         10         11         12
     1  C   -0.020498   0.141025  -0.119089  -0.002254   0.002789   0.001640
     2  C    0.029974  -0.334014   0.028311  -0.002778   0.001325  -0.000713
     3  C   -0.645780   2.410235  -0.871577  -0.106571   0.003154   0.035832
     4  C   -0.111046   2.400988  -0.834759  -0.041307  -0.020735   0.082262
     5  C    0.900536  -4.051185   1.300541   0.134650   0.051342  -0.119123
     6  C    0.053376  -3.489879   0.976023   0.018859   0.034892  -0.009966
     7  N    7.319046  -0.708260   0.460058   0.293645   0.004473  -0.049403
     8  C   -0.708260  10.553119  -1.278398  -0.045138   0.251811   0.121238
     9  C    0.460058  -1.278398   6.313730   0.016928   0.004538   0.277976
    10  H    0.293645  -0.045138   0.016928   0.245286  -0.000043  -0.000812
    11  H    0.004473   0.251811   0.004538  -0.000043   0.402697   0.000372
    12  H   -0.049403   0.121238   0.277976  -0.000812   0.000372   0.394333
    13  H   -0.000270   0.005828   0.000092  -0.000000   0.000000  -0.000000
    14  H   -0.001155   0.008655   0.000816   0.001028   0.000001   0.000001
    15  H    0.000228   0.013096  -0.000037  -0.000000  -0.000001  -0.000000
    16  H   -0.000759   0.016444   0.000949   0.000002   0.000692  -0.000000
              13         14         15         16
     1  C    0.057760  -0.002413   0.248258   0.049323
     2  C    0.255110   0.071681   0.057515  -0.010838
     3  C    0.037064   0.252120   0.001821  -0.001933
     4  C   -0.022148   0.047768  -0.010469   0.015328
     5  C    0.034327  -0.036477   0.022411   0.079911
     6  C   -0.034075  -0.010692   0.000916   0.178595
     7  N   -0.000270  -0.001155   0.000228  -0.000759
     8  C    0.005828   0.008655   0.013096   0.016444
     9  C    0.000092   0.000816  -0.000037   0.000949
    10  H   -0.000000   0.001028  -0.000000   0.000002
    11  H    0.000000   0.000001  -0.000001   0.000692
    12  H   -0.000000   0.000001  -0.000000  -0.000000
    13  H    0.431750  -0.000762  -0.001095  -0.000089
    14  H   -0.000762   0.426900  -0.000083   0.000009
    15  H   -0.001095  -0.000083   0.437241  -0.000765
    16  H   -0.000089   0.000009  -0.000765   0.422959
 Mulliken charges:
               1
     1  C   -0.059829
     2  C   -0.442996
     3  C   -0.204501
     4  C   -0.755234
     5  C    1.135536
     6  C   -0.834951
     7  N   -0.524165
     8  C   -0.015566
     9  C   -0.276103
    10  H    0.488505
    11  H    0.262693
    12  H    0.266364
    13  H    0.236509
    14  H    0.242603
    15  H    0.230963
    16  H    0.250173
 Sum of Mulliken charges =   0.00000
 Mulliken charges with hydrogens summed into heavy atoms:
               1
     1  C    0.171133
     2  C   -0.206487
     3  C    0.038102
     4  C   -0.755234
     5  C    1.135536
     6  C   -0.584778
     7  N   -0.035660
     8  C    0.247127
     9  C   -0.009739
 Electronic spatial extent (au):  <R**2>=           1017.2761
 Charge=              0.0000 electrons
 Dipole moment (field-independent basis, Debye):
    X=              2.6382    Y=             -1.5257    Z=             -0.0195  Tot=              3.0476
 Quadrupole moment (field-independent basis, Debye-Ang):
   XX=            -46.9154   YY=            -47.0954   ZZ=            -63.6863
   XY=             -2.4463   XZ=             -0.0372   YZ=              0.0076
 Traceless Quadrupole moment (field-independent basis, Debye-Ang):
   XX=              5.6503   YY=              5.4703   ZZ=            -11.1206
   XY=             -2.4463   XZ=             -0.0372   YZ=              0.0076
 Octapole moment (field-independent basis, Debye-Ang**2):
  XXX=             16.7467  YYY=            -11.3290  ZZZ=             -0.1639  XYY=             11.5543
  XXY=             -8.2858  XXZ=             -0.1221  XZZ=              0.8938  YZZ=             -2.4066
  YYZ=             -0.0902  XYZ=              0.0183
 Hexadecapole moment (field-independent basis, Debye-Ang**3):
 XXXX=           -868.9647 YYYY=           -397.6965 ZZZZ=           -107.5863 XXXY=            -22.2932
 XXXZ=             -0.5643 YYYX=            -14.5976 YYYZ=              0.0799 ZZZX=             -0.2587
 ZZZY=              0.0843 XXYY=           -202.2993 XXZZ=           -219.4416 YYZZ=           -111.6673
 XXYZ=              0.0282 YYXZ=             -0.0523 ZZXY=             -2.4223
 N-N= 4.002079213698D+02 E-N=-1.641515886156D+03  KE= 3.608989302312D+02
 Unable to Open any file for archive entry.
 1\1\GINC-EXP-2-22\FOpt\RCIS(D,FC)\6-31+G(d)\C8H7N1\CWALDT\23-Jun-2021\
 0\\# td= (nstates=6, root=1) CIS/6-31+G* Opt density=current\\FuncsCIS
 -V-1st\\0,1\C,-2.1698120493,0.6951530535,0.0000094226\C,-2.1418792386,
 -0.691730685,-0.0000591218\C,-0.8959224024,-1.4269868683,0.0003885752\
 C,0.2547227774,-0.678539737,-0.0002762073\C,0.2599924673,0.7478047093,
 -0.0004801363\C,-0.9955438541,1.4549322098,0.0002223143\N,1.5817029618
 ,-1.0762077781,-0.0005221403\C,1.5882091756,1.1546662031,-0.000232637\
 C,2.3940917933,-0.0050509154,0.0001274114\H,1.8905745511,-2.0220912158
 ,0.0006869228\H,1.9675500575,2.1562180422,-0.0000013921\H,3.459421026,
 -0.1006022659,0.0002688631\H,-3.0634595597,-1.244479507,-0.000172512\H
 ,-0.8920913147,-2.5011951915,0.0002904446\H,-3.1204693238,1.1968283339
 ,0.0000234519\H,-1.0201840674,2.5287276124,0.0002627408\\Version=AS64L
 -G16RevC.01\State=1-A\HF=-361.4669999\RMSD=5.128e-09\RMSF=7.074e-05\Di
 pole=1.0379283,-0.6002746,-0.007661\Quadrupole=4.2008602,4.0670328,-8.
 267893,-1.8188006,-0.0276689,0.0056436\PG=C01 [X(C8H7N1)]\\@
 The archive entry for this job was punched.


 IT'S WHAT A FELLER THINKS HE KNOWS THAT HURTS HIM...
                    ------
           KIN HUBBARD
 Job cpu time:       0 days  0 hours 14 minutes 11.5 seconds.
 Elapsed time:       0 days  0 hours  4 minutes 36.5 seconds.
 File lengths (MBytes):  RWF=    192 Int=      0 D2E=      0 Chk=     11 Scr=      1
 Normal termination of Gaussian 16 at Wed Jun 23 07:33:08 2021.
