 Entering Gaussian System, Link 0=/cm/shared/apps/spack/cpu/opt/spack/linux-centos8-zen/gcc-8.3.1/gaussian-16.C.01-po5bqktfeugvmjyga3v7eigbecnokxng/g16/g16
 Initial command:
 /cm/shared/apps/spack/cpu/opt/spack/linux-centos8-zen/gcc-8.3.1/gaussian-16.C.01-po5bqktfeugvmjyga3v7eigbecnokxng/g16/l1.exe "/scratch/scaparas/job_3404232/Gau-62704.inp" -scrdir="/scratch/scaparas/job_3404232/"
 Entering Link 1 = /cm/shared/apps/spack/cpu/opt/spack/linux-centos8-zen/gcc-8.3.1/gaussian-16.C.01-po5bqktfeugvmjyga3v7eigbecnokxng/g16/l1.exe PID=     62705.
  
 Copyright (c) 1988-2019, Gaussian, Inc.  All Rights Reserved.
  
 This is part of the Gaussian(R) 16 program.  It is based on
 the Gaussian(R) 09 system (copyright 2009, Gaussian, Inc.),
 the Gaussian(R) 03 system (copyright 2003, Gaussian, Inc.),
 the Gaussian(R) 98 system (copyright 1998, Gaussian, Inc.),
 the Gaussian(R) 94 system (copyright 1995, Gaussian, Inc.),
 the Gaussian 92(TM) system (copyright 1992, Gaussian, Inc.),
 the Gaussian 90(TM) system (copyright 1990, Gaussian, Inc.),
 the Gaussian 88(TM) system (copyright 1988, Gaussian, Inc.),
 the Gaussian 86(TM) system (copyright 1986, Carnegie Mellon
 University), and the Gaussian 82(TM) system (copyright 1983,
 Carnegie Mellon University). Gaussian is a federally registered
 trademark of Gaussian, Inc.
  
 This software contains proprietary and confidential information,
 including trade secrets, belonging to Gaussian, Inc.
  
 This software is provided under written license and may be
 used, copied, transmitted, or stored only in accord with that
 written license.
  
 The following legend is applicable only to US Government
 contracts under FAR:
  
                    RESTRICTED RIGHTS LEGEND
  
 Use, reproduction and disclosure by the US Government is
 subject to restrictions as set forth in subparagraphs (a)
 and (c) of the Commercial Computer Software - Restricted
 Rights clause in FAR 52.227-19.
  
 Gaussian, Inc.
 340 Quinnipiac St., Bldg. 40, Wallingford CT 06492
  
  
 ---------------------------------------------------------------
 Warning -- This program may not be used in any manner that
 competes with the business of Gaussian, Inc. or will provide
 assistance to any competitor of Gaussian, Inc.  The licensee
 of this program is prohibited from giving any competitor of
 Gaussian, Inc. access to this program.  By using this program,
 the user acknowledges that Gaussian, Inc. is engaged in the
 business of creating and licensing software in the field of
 computational chemistry and represents and warrants to the
 licensee that it is not a competitor of Gaussian, Inc. and that
 it will not use this program in any manner prohibited above.
 ---------------------------------------------------------------
  

 Cite this work as:
 Gaussian 16, Revision C.01,
 M. J. Frisch, G. W. Trucks, H. B. Schlegel, G. E. Scuseria, 
 M. A. Robb, J. R. Cheeseman, G. Scalmani, V. Barone, 
 G. A. Petersson, H. Nakatsuji, X. Li, M. Caricato, A. V. Marenich, 
 J. Bloino, B. G. Janesko, R. Gomperts, B. Mennucci, H. P. Hratchian, 
 J. V. Ortiz, A. F. Izmaylov, J. L. Sonnenberg, D. Williams-Young, 
 F. Ding, F. Lipparini, F. Egidi, J. Goings, B. Peng, A. Petrone, 
 T. Henderson, D. Ranasinghe, V. G. Zakrzewski, J. Gao, N. Rega, 
 G. Zheng, W. Liang, M. Hada, M. Ehara, K. Toyota, R. Fukuda, 
 J. Hasegawa, M. Ishida, T. Nakajima, Y. Honda, O. Kitao, H. Nakai, 
 T. Vreven, K. Throssell, J. A. Montgomery, Jr., J. E. Peralta, 
 F. Ogliaro, M. J. Bearpark, J. J. Heyd, E. N. Brothers, K. N. Kudin, 
 V. N. Staroverov, T. A. Keith, R. Kobayashi, J. Normand, 
 K. Raghavachari, A. P. Rendell, J. C. Burant, S. S. Iyengar, 
 J. Tomasi, M. Cossi, J. M. Millam, M. Klene, C. Adamo, R. Cammi, 
 J. W. Ochterski, R. L. Martin, K. Morokuma, O. Farkas, 
 J. B. Foresman, and D. J. Fox, Gaussian, Inc., Wallingford CT, 2019.
 
 ******************************************
 Gaussian 16:  AS64L-G16RevC.01  3-Jul-2019
                14-Jun-2021 
 ******************************************
 %nprocshared=4
 Will use up to    4 processors via shared memory.
 %chk=FuncsB3PW91-V-3rd.chk
 %Mem=3GB
 ------------------------------------------------------------
 # td= (nstates=6, root=3) B3PW91/6-31+G* Opt density=current
 ------------------------------------------------------------
 1/18=20,19=15,26=3,38=1/1,3;
 2/9=110,12=2,17=6,18=5,40=1/2;
 3/5=1,6=6,7=11,11=9,25=1,30=1,71=1,74=-6/1,2,3,8;
 4//1;
 5/5=2,38=5/2;
 8/6=1,10=2,107=3,108=6/1;
 9/8=3,15=2,41=6,42=1,70=2/14;
 10/5=4,28=3/2;
 6/7=2,8=2,9=2,10=2,22=-1/1;
 7/12=6,13=5,14=3/1,2,3,16;
 1/18=20,19=15,26=3/3(2);
 2/9=110/2;
 99//99;
 2/9=110/2;
 3/5=1,6=6,7=11,11=9,25=1,30=1,71=1,74=-6/1,2,3,8;
 4/5=5,16=3,69=1/1;
 5/5=2,38=5/2;
 8/6=1,10=2,107=3,108=6/1;
 9/8=3,15=2,41=6,42=1,49=4,70=2/14;
 10/5=4,28=3/2;
 7/12=6,13=5,14=3/1,2,3,16;
 1/18=20,19=15,26=3/3(-8);
 2/9=110/2;
 6/7=2,8=2,9=2,10=2,22=-1/1;
 99/9=10/99;
 -----------------
 FuncsB3PW91-V-3rd
 -----------------
 Symbolic Z-matrix:
 Charge =  0 Multiplicity = 1
 C                    -2.15106   0.68921   0.00009 
 C                    -2.12793  -0.71582   0.00008 
 C                    -0.9323   -1.4131   -0.00001 
 C                     0.24691  -0.6702   -0.00004 
 C                     0.24819   0.7483    0. 
 C                    -0.97947   1.42353   0.00003 
 N                     1.56177  -1.07759  -0.00029 
 C                     1.62013   1.1629   -0.00016 
 C                     2.38201   0.03081   0.00025 
 H                     1.87632  -2.03001   0.00044 
 H                     1.99217   2.17301  -0.00035 
 H                     3.45255  -0.08243   0.00041 
 H                    -3.06159  -1.26202   0.00009 
 H                    -0.91725  -2.49534  -0.00007 
 H                    -3.1042    1.20079   0.00009 
 H                    -1.00935   2.50542  -0.00002 
 

 GradGradGradGradGradGradGradGradGradGradGradGradGradGradGradGradGradGrad
 Berny optimization.
 Initialization pass.
                           ----------------------------
                           !    Initial Parameters    !
                           ! (Angstroms and Degrees)  !
 --------------------------                            --------------------------
 ! Name  Definition              Value          Derivative Info.                !
 --------------------------------------------------------------------------------
 ! R1    R(1,2)                  1.4052         estimate D2E/DX2                !
 ! R2    R(1,6)                  1.3827         estimate D2E/DX2                !
 ! R3    R(1,15)                 1.0818         estimate D2E/DX2                !
 ! R4    R(2,3)                  1.3841         estimate D2E/DX2                !
 ! R5    R(2,13)                 1.0817         estimate D2E/DX2                !
 ! R6    R(3,4)                  1.3937         estimate D2E/DX2                !
 ! R7    R(3,14)                 1.0823         estimate D2E/DX2                !
 ! R8    R(4,5)                  1.4185         estimate D2E/DX2                !
 ! R9    R(4,7)                  1.3765         estimate D2E/DX2                !
 ! R10   R(5,6)                  1.4011         estimate D2E/DX2                !
 ! R11   R(5,8)                  1.4332         estimate D2E/DX2                !
 ! R12   R(6,16)                 1.0823         estimate D2E/DX2                !
 ! R13   R(7,9)                  1.3789         estimate D2E/DX2                !
 ! R14   R(7,10)                 1.003          estimate D2E/DX2                !
 ! R15   R(8,9)                  1.3646         estimate D2E/DX2                !
 ! R16   R(8,11)                 1.0764         estimate D2E/DX2                !
 ! R17   R(9,12)                 1.0765         estimate D2E/DX2                !
 ! A1    A(2,1,6)              121.1349         estimate D2E/DX2                !
 ! A2    A(2,1,15)             119.1671         estimate D2E/DX2                !
 ! A3    A(6,1,15)             119.698          estimate D2E/DX2                !
 ! A4    A(1,2,3)              121.1938         estimate D2E/DX2                !
 ! A5    A(1,2,13)             119.3846         estimate D2E/DX2                !
 ! A6    A(3,2,13)             119.4217         estimate D2E/DX2                !
 ! A7    A(2,3,4)              117.5387         estimate D2E/DX2                !
 ! A8    A(2,3,14)             121.0469         estimate D2E/DX2                !
 ! A9    A(4,3,14)             121.4144         estimate D2E/DX2                !
 ! A10   A(3,4,5)              122.2626         estimate D2E/DX2                !
 ! A11   A(3,4,7)              130.5743         estimate D2E/DX2                !
 ! A12   A(5,4,7)              107.163          estimate D2E/DX2                !
 ! A13   A(4,5,6)              118.7594         estimate D2E/DX2                !
 ! A14   A(4,5,8)              106.8666         estimate D2E/DX2                !
 ! A15   A(6,5,8)              134.374          estimate D2E/DX2                !
 ! A16   A(1,6,5)              119.1105         estimate D2E/DX2                !
 ! A17   A(1,6,16)             120.4966         estimate D2E/DX2                !
 ! A18   A(5,6,16)             120.3928         estimate D2E/DX2                !
 ! A19   A(4,7,9)              109.2874         estimate D2E/DX2                !
 ! A20   A(4,7,10)             125.4909         estimate D2E/DX2                !
 ! A21   A(9,7,10)             125.2217         estimate D2E/DX2                !
 ! A22   A(5,8,9)              107.125          estimate D2E/DX2                !
 ! A23   A(5,8,11)             127.0344         estimate D2E/DX2                !
 ! A24   A(9,8,11)             125.8405         estimate D2E/DX2                !
 ! A25   A(7,9,8)              109.5578         estimate D2E/DX2                !
 ! A26   A(7,9,12)             120.4645         estimate D2E/DX2                !
 ! A27   A(8,9,12)             129.9776         estimate D2E/DX2                !
 ! D1    D(6,1,2,3)             -0.0008         estimate D2E/DX2                !
 ! D2    D(6,1,2,13)          -179.9981         estimate D2E/DX2                !
 ! D3    D(15,1,2,3)           179.996          estimate D2E/DX2                !
 ! D4    D(15,1,2,13)           -0.0013         estimate D2E/DX2                !
 ! D5    D(2,1,6,5)             -0.0018         estimate D2E/DX2                !
 ! D6    D(2,1,6,16)           179.9965         estimate D2E/DX2                !
 ! D7    D(15,1,6,5)          -179.9986         estimate D2E/DX2                !
 ! D8    D(15,1,6,16)           -0.0003         estimate D2E/DX2                !
 ! D9    D(1,2,3,4)              0.002          estimate D2E/DX2                !
 ! D10   D(1,2,3,14)          -179.9968         estimate D2E/DX2                !
 ! D11   D(13,2,3,4)           179.9992         estimate D2E/DX2                !
 ! D12   D(13,2,3,14)            0.0005         estimate D2E/DX2                !
 ! D13   D(2,3,4,5)             -0.0005         estimate D2E/DX2                !
 ! D14   D(2,3,4,7)           -179.9911         estimate D2E/DX2                !
 ! D15   D(14,3,4,5)           179.9982         estimate D2E/DX2                !
 ! D16   D(14,3,4,7)             0.0076         estimate D2E/DX2                !
 ! D17   D(3,4,5,6)             -0.002          estimate D2E/DX2                !
 ! D18   D(3,4,5,8)           -179.9955         estimate D2E/DX2                !
 ! D19   D(7,4,5,6)            179.9905         estimate D2E/DX2                !
 ! D20   D(7,4,5,8)             -0.003          estimate D2E/DX2                !
 ! D21   D(3,4,7,9)           -179.98           estimate D2E/DX2                !
 ! D22   D(3,4,7,10)            -0.0649         estimate D2E/DX2                !
 ! D23   D(5,4,7,9)              0.0284         estimate D2E/DX2                !
 ! D24   D(5,4,7,10)           179.9434         estimate D2E/DX2                !
 ! D25   D(4,5,6,1)              0.0031         estimate D2E/DX2                !
 ! D26   D(4,5,6,16)          -179.9951         estimate D2E/DX2                !
 ! D27   D(8,5,6,1)            179.9944         estimate D2E/DX2                !
 ! D28   D(8,5,6,16)            -0.0038         estimate D2E/DX2                !
 ! D29   D(4,5,8,9)             -0.0234         estimate D2E/DX2                !
 ! D30   D(4,5,8,11)           179.9883         estimate D2E/DX2                !
 ! D31   D(6,5,8,9)            179.9846         estimate D2E/DX2                !
 ! D32   D(6,5,8,11)            -0.0037         estimate D2E/DX2                !
 ! D33   D(4,7,9,8)             -0.0444         estimate D2E/DX2                !
 ! D34   D(4,7,9,12)           179.9847         estimate D2E/DX2                !
 ! D35   D(10,7,9,8)          -179.9597         estimate D2E/DX2                !
 ! D36   D(10,7,9,12)            0.0693         estimate D2E/DX2                !
 ! D37   D(5,8,9,7)              0.0414         estimate D2E/DX2                !
 ! D38   D(5,8,9,12)          -179.9913         estimate D2E/DX2                !
 ! D39   D(11,8,9,7)          -179.9702         estimate D2E/DX2                !
 ! D40   D(11,8,9,12)           -0.0029         estimate D2E/DX2                !
 --------------------------------------------------------------------------------
 Trust Radius=3.00D-01 FncErr=1.00D-07 GrdErr=1.00D-06 EigMax=2.50D+02 EigMin=1.00D-04
 Number of steps in this run=     94 maximum allowed number of steps=    100.
 GradGradGradGradGradGradGradGradGradGradGradGradGradGradGradGradGradGrad

                          Input orientation:                          
 ---------------------------------------------------------------------
 Center     Atomic      Atomic             Coordinates (Angstroms)
 Number     Number       Type             X           Y           Z
 ---------------------------------------------------------------------
      1          6           0       -2.151063    0.689208    0.000088
      2          6           0       -2.127927   -0.715818    0.000075
      3          6           0       -0.932297   -1.413100   -0.000011
      4          6           0        0.246911   -0.670201   -0.000042
      5          6           0        0.248193    0.748299    0.000000
      6          6           0       -0.979474    1.423526    0.000032
      7          7           0        1.561774   -1.077592   -0.000285
      8          6           0        1.620133    1.162900   -0.000157
      9          6           0        2.382013    0.030806    0.000248
     10          1           0        1.876315   -2.030011    0.000438
     11          1           0        1.992173    2.173010   -0.000348
     12          1           0        3.452549   -0.082425    0.000408
     13          1           0       -3.061594   -1.262020    0.000088
     14          1           0       -0.917252   -2.495342   -0.000073
     15          1           0       -3.104203    1.200785    0.000090
     16          1           0       -1.009348    2.505421   -0.000015
 ---------------------------------------------------------------------
                    Distance matrix (angstroms):
                    1          2          3          4          5
     1  C    0.000000
     2  C    1.405216   0.000000
     3  C    2.430039   1.384100   0.000000
     4  C    2.756496   2.375276   1.393711   0.000000
     5  C    2.399984   2.790983   2.462763   1.418501   0.000000
     6  C    1.382694   2.428114   2.837018   2.426461   1.401106
     7  N    4.111781   3.707395   2.516536   1.376529   2.249305
     8  C    3.800829   4.192557   3.626386   2.290414   1.433218
     9  C    4.580641   4.571324   3.615178   2.247236   2.251218
    10  H    4.859416   4.214387   2.875566   2.122273   3.220216
    11  H    4.400917   5.031953   4.627387   3.336134   2.251948
    12  H    5.656491   5.616307   4.582311   3.259079   3.310287
    13  H    2.153220   1.081698   2.134650   3.361020   3.872476
    14  H    3.415208   2.152310   1.082347   2.164813   3.446661
    15  H    1.081752   2.150926   3.398466   3.838040   3.382795
    16  H    2.145261   3.409927   3.919278   3.415079   2.160761
                    6          7          8          9         10
     6  C    0.000000
     7  N    3.565604   0.000000
     8  C    2.612639   2.241252   0.000000
     9  C    3.638580   1.378890   1.364587   0.000000
    10  H    4.481345   1.003015   3.203172   2.121956   0.000000
    11  H    3.064704   3.278972   1.076446   2.177387   4.204618
    12  H    4.680888   2.136677   2.215532   1.076508   2.505515
    13  H    3.398144   4.627045   5.272457   5.595021   4.997275
    14  H    3.919362   2.855798   4.452085   4.155307   2.832058
    15  H    2.136372   5.192528   4.724488   5.609583   5.936632
    16  H    1.082307   4.410062   2.952378   4.198220   5.375611
                   11         12         13         14         15
    11  H    0.000000
    12  H    2.686947   0.000000
    13  H    6.110646   6.620083   0.000000
    14  H    5.500751   4.991726   2.473719   0.000000
    15  H    5.188282   6.681139   2.463174   4.294661   0.000000
    16  H    3.019872   5.158049   4.290143   5.001611   2.467892
                   16
    16  H    0.000000
 Stoichiometry    C8H7N
 Framework group  C1[X(C8H7N)]
 Deg. of freedom    42
 Full point group                 C1      NOp   1
 Largest Abelian subgroup         C1      NOp   1
 Largest concise Abelian subgroup C1      NOp   1
                         Standard orientation:                         
 ---------------------------------------------------------------------
 Center     Atomic      Atomic             Coordinates (Angstroms)
 Number     Number       Type             X           Y           Z
 ---------------------------------------------------------------------
      1          6           0       -2.151063    0.689208    0.000088
      2          6           0       -2.127927   -0.715818    0.000075
      3          6           0       -0.932297   -1.413100   -0.000011
      4          6           0        0.246911   -0.670201   -0.000042
      5          6           0        0.248193    0.748299    0.000000
      6          6           0       -0.979474    1.423526    0.000032
      7          7           0        1.561774   -1.077592   -0.000285
      8          6           0        1.620133    1.162900   -0.000157
      9          6           0        2.382013    0.030806    0.000248
     10          1           0        1.876315   -2.030011    0.000438
     11          1           0        1.992173    2.173010   -0.000348
     12          1           0        3.452549   -0.082425    0.000408
     13          1           0       -3.061594   -1.262020    0.000088
     14          1           0       -0.917252   -2.495342   -0.000073
     15          1           0       -3.104203    1.200785    0.000090
     16          1           0       -1.009348    2.505421   -0.000015
 ---------------------------------------------------------------------
 Rotational constants (GHZ):           3.9080822           1.6429452           1.1566805
 Standard basis: 6-31+G(d) (6D, 7F)
 There are   185 symmetry adapted cartesian basis functions of A   symmetry.
 There are   185 symmetry adapted basis functions of A   symmetry.
   185 basis functions,   316 primitive gaussians,   185 cartesian basis functions
    31 alpha electrons       31 beta electrons
       nuclear repulsion energy       401.3368668897 Hartrees.
 NAtoms=   16 NActive=   16 NUniq=   16 SFac= 1.00D+00 NAtFMM=   60 NAOKFM=F Big=F
 Integral buffers will be    131072 words long.
 Regular integral format.
 Two-electron integral symmetry is turned on.
 One-electron integrals computed using PRISM.
 NBasis=   185 RedAO= T EigKep=  1.26D-06  NBF=   185
 NBsUse=   185 1.00D-06 EigRej= -1.00D+00 NBFU=   185
 ExpMin= 4.38D-02 ExpMax= 4.17D+03 ExpMxC= 6.27D+02 IAcc=3 IRadAn=         5 AccDes= 0.00D+00
 Harris functional with IExCor=  408 and IRadAn=       5 diagonalized for initial guess.
 HarFok:  IExCor=  408 AccDes= 0.00D+00 IRadAn=         5 IDoV= 1 UseB2=F ITyADJ=14
 ICtDFT=  3500011 ScaDFX=  1.000000  1.000000  1.000000  1.000000
 FoFCou: FMM=F IPFlag=           0 FMFlag=      100000 FMFlg1=           0
         NFxFlg=           0 DoJE=T BraDBF=F KetDBF=T FulRan=T
         wScrn=  0.000000 ICntrl=       500 IOpCl=  0 I1Cent=   200000004 NGrid=           0
         NMat0=    1 NMatS0=      1 NMatT0=    0 NMatD0=    1 NMtDS0=    0 NMtDT0=    0
 Petite list used in FoFCou.
 Keep R1 ints in memory in canonical form, NReq=152071459.
 Requested convergence on RMS density matrix=1.00D-08 within 128 cycles.
 Requested convergence on MAX density matrix=1.00D-06.
 Requested convergence on             energy=1.00D-06.
 No special actions if energy rises.
 SCF Done:  E(RB3PW91) =  -363.692543051     A.U. after   14 cycles
            NFock= 14  Conv=0.94D-08     -V/T= 2.0093
 DoSCS=F DFT=T ScalE2(SS,OS)=  1.000000  1.000000
 ExpMin= 4.38D-02 ExpMax= 4.17D+03 ExpMxC= 6.27D+02 IAcc=3 IRadAn=         5 AccDes= 0.00D+00
 HarFok:  IExCor=  205 AccDes= 0.00D+00 IRadAn=         5 IDoV=-2 UseB2=F ITyADJ=14
 ICtDFT= 12500011 ScaDFX=  1.000000  1.000000  1.000000  1.000000
 Range of M.O.s used for correlation:    10   185
 NBasis=   185 NAE=    31 NBE=    31 NFC=     9 NFV=     0
 NROrb=    176 NOA=    22 NOB=    22 NVA=   154 NVB=   154

 **** Warning!!: The largest alpha MO coefficient is  0.17659313D+03

 Orbital symmetries:
       Occupied  (A) (A) (A) (A) (A) (A) (A) (A) (A) (A) (A) (A)
                 (A) (A) (A) (A) (A) (A) (A) (A) (A) (A) (A) (A)
                 (A) (A) (A) (A) (A) (A) (A)
       Virtual   (A) (A) (A) (A) (A) (A) (A) (A) (A) (A) (A) (A)
                 (A) (A) (A) (A) (A) (A) (A) (A) (A) (A) (A) (A)
                 (A) (A) (A) (A) (A) (A) (A) (A) (A) (A) (A) (A)
                 (A) (A) (A) (A) (A) (A) (A) (A) (A) (A) (A) (A)
                 (A) (A) (A) (A) (A) (A) (A) (A) (A) (A) (A) (A)
                 (A) (A) (A) (A) (A) (A) (A) (A) (A) (A) (A) (A)
                 (A) (A) (A) (A) (A) (A) (A) (A) (A) (A) (A) (A)
                 (A) (A) (A) (A) (A) (A) (A) (A) (A) (A) (A) (A)
                 (A) (A) (A) (A) (A) (A) (A) (A) (A) (A) (A) (A)
                 (A) (A) (A) (A) (A) (A) (A) (A) (A) (A) (A) (A)
                 (A) (A) (A) (A) (A) (A) (A) (A) (A) (A) (A) (A)
                 (A) (A) (A) (A) (A) (A) (A) (A) (A) (A) (A) (A)
                 (A) (A) (A) (A) (A) (A) (A) (A) (A) (A)
    24 initial guesses have been made.
 Convergence on wavefunction:    0.000001000000000
 Iteration     1 Dimension    24 NMult     0 NNew     24
 CISAX will form    24 AO SS matrices at one time.
 New state      1 was old state      2
 New state      2 was old state      3
 New state      3 was old state      1
 New state      4 was old state      5
 New state      5 was old state      6
 New state      6 was old state      7
 Iteration     2 Dimension    36 NMult    24 NNew     12
 New state      1 was old state      3
 New state      2 was old state      1
 New state      3 was old state      2
 Iteration     3 Dimension    48 NMult    36 NNew     12
 Iteration     4 Dimension    60 NMult    48 NNew     12
 Iteration     5 Dimension    72 NMult    60 NNew     12
 Iteration     6 Dimension    84 NMult    72 NNew     12
 Iteration     7 Dimension    96 NMult    84 NNew     12
 Iteration     8 Dimension   108 NMult    96 NNew     12
 Iteration     9 Dimension   120 NMult   108 NNew     12
 Iteration    10 Dimension   126 NMult   120 NNew      6
 Iteration    11 Dimension   130 NMult   126 NNew      4
 ***********************************************************************
 Excited states from <AA,BB:AA,BB> singles matrix:
 ***********************************************************************
 
 Ground to excited state transition densities written to RWF  633
 Ground to excited state transition electric dipole moments (Au):
       state          X           Y           Z        Dip. S.      Osc.
         1        -0.5247      0.6187     -0.0001      0.6581      0.0776
         2        -0.5374     -0.0954     -0.0001      0.2979      0.0362
         3         0.0007     -0.0003     -0.1233      0.0152      0.0019
         4        -0.0005      0.0001     -0.1386      0.0192      0.0027
         5         0.0006      0.0000      0.0195      0.0004      0.0001
         6         0.0010      0.0003      0.1010      0.0102      0.0015
 Ground to excited state transition velocity dipole moments (Au):
       state          X           Y           Z        Dip. S.      Osc.
         1         0.0840     -0.1185      0.0000      0.0211      0.0796
         2         0.0924      0.0179      0.0000      0.0089      0.0324
         3        -0.0001      0.0001      0.0151      0.0002      0.0008
         4         0.0001     -0.0000      0.0301      0.0009      0.0029
         5        -0.0001     -0.0000     -0.0029      0.0000      0.0000
         6        -0.0002     -0.0001     -0.0217      0.0005      0.0014
 Ground to excited state transition magnetic dipole moments (Au):
       state          X           Y           Z
         1         0.0003     -0.0000      0.1750
         2        -0.0000     -0.0002     -0.0213
         3         0.1233     -0.0694      0.0001
         4         0.0496     -0.2293     -0.0000
         5         0.3029     -0.1260      0.0003
         6         0.0975      0.3526      0.0007
 Ground to excited state transition velocity quadrupole moments (Au):
       state          XX          YY          ZZ          XY          XZ          YZ
         1         0.1858     -0.1062      0.0084      0.0436      0.0001      0.0001
         2         0.0747     -0.1125      0.0241      0.0033      0.0001     -0.0000
         3        -0.0002      0.0001      0.0001      0.0001      0.0607      0.0550
         4        -0.0001      0.0000     -0.0000     -0.0000      0.1621     -0.0080
         5        -0.0002     -0.0000      0.0000      0.0002      0.1587      0.2559
         6         0.0000     -0.0001      0.0001      0.0003     -0.3152      0.0071
 <0|del|b> * <b|rxdel|0> + <0|del|b> * <b|delr+rdel|0>
 Rotatory Strengths (R) in cgs (10**-40 erg-esu-cm/Gauss)
       state          XX          YY          ZZ    R(velocity)    E-M Angle
         1         0.0360      0.0602      0.0189      0.0384       90.00
         2        -0.0116     -0.0099     -0.0039     -0.0085       90.00
         3        -0.0126     -0.0347     -0.0153     -0.0209       90.00
         4         0.0129      0.0080      0.0128      0.0112       90.00
         5        -0.0021     -0.1200     -0.0101     -0.0441       90.00
         6        -0.0975     -0.0459     -0.0329     -0.0588       90.00
 1/2[<0|r|b>*<b|rxdel|0> + (<0|rxdel|b>*<b|r|0>)*]
 Rotatory Strengths (R) in cgs (10**-40 erg-esu-cm/Gauss)
       state          XX          YY          ZZ     R(length)
         1         0.0977      0.0144      0.0158      0.0426
         2        -0.0103     -0.0135     -0.0020     -0.0086
         3        -0.0586     -0.0166      0.0112     -0.0213
         4         0.0170      0.0146     -0.0003      0.0104
         5        -0.1340      0.0001     -0.0037     -0.0459
         6        -0.0664     -0.0791     -0.0482     -0.0646
  1/2[<0|del|b>*<b|r|0> + (<0|r|b>*<b|del|0>)*] (Au)
       state          X           Y           Z        Dip. S.   Osc.(frdel)
         1        -0.0441     -0.0733     -0.0000      0.1174      0.0783
         2        -0.0497     -0.0017     -0.0000      0.0514      0.0342
         3        -0.0000     -0.0000     -0.0019      0.0019      0.0012
         4        -0.0000     -0.0000     -0.0042      0.0042      0.0028
         5        -0.0000     -0.0000     -0.0001      0.0001      0.0000
         6        -0.0000     -0.0000     -0.0022      0.0022      0.0015

 Excitation energies and oscillator strengths:
 
 Excited State   1:      Singlet-A      4.8116 eV  257.68 nm  f=0.0776  <S**2>=0.000
      30 -> 32        -0.14142
      30 -> 34         0.15211
      31 -> 32         0.66091
 
 Excited State   2:      Singlet-A      4.9584 eV  250.05 nm  f=0.0362  <S**2>=0.000
      30 -> 32         0.56072
      31 -> 32         0.11871
      31 -> 34        -0.40488
 
 Excited State   3:      Singlet-A      5.1866 eV  239.05 nm  f=0.0019  <S**2>=0.000
      31 -> 33         0.70372
 This state for optimization and/or second-order correction.
 Total Energy, E(TD-HF/TD-DFT) =  -363.501937738    
 Copying the excited state density for this state as the 1-particle RhoCI density.
 
 Excited State   4:      Singlet-A      5.6583 eV  219.12 nm  f=0.0027  <S**2>=0.000
      30 -> 33         0.68991
      31 -> 35         0.12744
 
 Excited State   5:      Singlet-A      5.7518 eV  215.56 nm  f=0.0001  <S**2>=0.000
      30 -> 33        -0.12943
      31 -> 35         0.68992
 
 Excited State   6:      Singlet-A      5.8819 eV  210.79 nm  f=0.0015  <S**2>=0.000
      31 -> 36         0.69803
 SavETr:  write IOETrn=   770 NScale= 10 NData=  16 NLR=1 NState=    6 LETran=     118.
          IDoAtm=1111111111111111
          Differentiating once with respect to electric field.
                with respect to dipole field.
          Differentiating once with respect to nuclear coordinates.
 Keep R1 ints in memory in canonical form, NReq=152083851.
          There are     1 degrees of freedom in the 1st order CPHF.  IDoFFX=0 NUNeed=     1.
 LinEq1:  Iter=  0 NonCon=     1 RMS=1.23D-02 Max=3.14D-01 NDo=     1
 AX will form     1 AO Fock derivatives at one time.
 LinEq1:  Iter=  1 NonCon=     1 RMS=6.44D-03 Max=1.36D-01 NDo=     1
 LinEq1:  Iter=  2 NonCon=     1 RMS=4.47D-03 Max=1.02D-01 NDo=     1
 LinEq1:  Iter=  3 NonCon=     1 RMS=2.07D-03 Max=6.20D-02 NDo=     1
 LinEq1:  Iter=  4 NonCon=     1 RMS=1.30D-03 Max=2.44D-02 NDo=     1
 LinEq1:  Iter=  5 NonCon=     1 RMS=5.49D-04 Max=1.54D-02 NDo=     1
 LinEq1:  Iter=  6 NonCon=     1 RMS=4.10D-04 Max=9.88D-03 NDo=     1
 LinEq1:  Iter=  7 NonCon=     1 RMS=1.43D-04 Max=3.85D-03 NDo=     1
 LinEq1:  Iter=  8 NonCon=     1 RMS=1.17D-04 Max=3.20D-03 NDo=     1
 LinEq1:  Iter=  9 NonCon=     1 RMS=3.44D-05 Max=7.12D-04 NDo=     1
 LinEq1:  Iter= 10 NonCon=     1 RMS=2.39D-05 Max=7.30D-04 NDo=     1
 LinEq1:  Iter= 11 NonCon=     1 RMS=9.99D-06 Max=3.08D-04 NDo=     1
 LinEq1:  Iter= 12 NonCon=     1 RMS=5.27D-06 Max=1.44D-04 NDo=     1
 LinEq1:  Iter= 13 NonCon=     1 RMS=2.10D-06 Max=2.73D-05 NDo=     1
 LinEq1:  Iter= 14 NonCon=     1 RMS=6.18D-07 Max=1.13D-05 NDo=     1
 LinEq1:  Iter= 15 NonCon=     1 RMS=3.56D-07 Max=7.45D-06 NDo=     1
 LinEq1:  Iter= 16 NonCon=     1 RMS=1.04D-07 Max=1.72D-06 NDo=     1
 LinEq1:  Iter= 17 NonCon=     1 RMS=2.10D-08 Max=1.89D-07 NDo=     1
 LinEq1:  Iter= 18 NonCon=     1 RMS=7.65D-09 Max=1.34D-07 NDo=     1
 LinEq1:  Iter= 19 NonCon=     1 RMS=4.26D-09 Max=6.63D-08 NDo=     1
 LinEq1:  Iter= 20 NonCon=     1 RMS=8.72D-10 Max=1.20D-08 NDo=     1
 LinEq1:  Iter= 21 NonCon=     1 RMS=1.59D-10 Max=1.77D-09 NDo=     1
 LinEq1:  Iter= 22 NonCon=     0 RMS=5.45D-11 Max=6.29D-10 NDo=     1
 Linear equations converged to 1.000D-10 1.000D-09 after    22 iterations.
 End of Minotr F.D. properties file   721 does not exist.
 End of Minotr F.D. properties file   722 does not exist.
 End of Minotr F.D. properties file   788 does not exist.

 **********************************************************************

            Population analysis using the CI Density.

 **********************************************************************

 Orbital symmetries:
       Occupied  (A) (A) (A) (A) (A) (A) (A) (A) (A) (A) (A) (A)
                 (A) (A) (A) (A) (A) (A) (A) (A) (A) (A) (A) (A)
                 (A) (A) (A) (A) (A) (A) (A)
       Virtual   (A) (A) (A) (A) (A) (A) (A) (A) (A) (A) (A) (A)
                 (A) (A) (A) (A) (A) (A) (A) (A) (A) (A) (A) (A)
                 (A) (A) (A) (A) (A) (A) (A) (A) (A) (A) (A) (A)
                 (A) (A) (A) (A) (A) (A) (A) (A) (A) (A) (A) (A)
                 (A) (A) (A) (A) (A) (A) (A) (A) (A) (A) (A) (A)
                 (A) (A) (A) (A) (A) (A) (A) (A) (A) (A) (A) (A)
                 (A) (A) (A) (A) (A) (A) (A) (A) (A) (A) (A) (A)
                 (A) (A) (A) (A) (A) (A) (A) (A) (A) (A) (A) (A)
                 (A) (A) (A) (A) (A) (A) (A) (A) (A) (A) (A) (A)
                 (A) (A) (A) (A) (A) (A) (A) (A) (A) (A) (A) (A)
                 (A) (A) (A) (A) (A) (A) (A) (A) (A) (A) (A) (A)
                 (A) (A) (A) (A) (A) (A) (A) (A) (A) (A) (A) (A)
                 (A) (A) (A) (A) (A) (A) (A) (A) (A) (A)
 The electronic state is 1-A.
 Alpha  occ. eigenvalues --  -14.37762 -10.21161 -10.20963 -10.17953 -10.17551
 Alpha  occ. eigenvalues --  -10.17404 -10.17401 -10.16907 -10.16686  -0.99217
 Alpha  occ. eigenvalues --   -0.84791  -0.79100  -0.74317  -0.72482  -0.63164
 Alpha  occ. eigenvalues --   -0.60220  -0.58850  -0.54678  -0.48893  -0.47661
 Alpha  occ. eigenvalues --   -0.44294  -0.43433  -0.42839  -0.41606  -0.39662
 Alpha  occ. eigenvalues --   -0.35944  -0.34042  -0.33904  -0.28480  -0.22900
 Alpha  occ. eigenvalues --   -0.21211
 Alpha virt. eigenvalues --   -0.01825   0.00754   0.01808   0.02593   0.03209
 Alpha virt. eigenvalues --    0.04706   0.04800   0.04835   0.06876   0.07074
 Alpha virt. eigenvalues --    0.07561   0.07635   0.09600   0.09867   0.11638
 Alpha virt. eigenvalues --    0.11686   0.12093   0.13561   0.14500   0.14809
 Alpha virt. eigenvalues --    0.16241   0.16755   0.17417   0.17453   0.17822
 Alpha virt. eigenvalues --    0.18538   0.19441   0.19761   0.20421   0.20559
 Alpha virt. eigenvalues --    0.20787   0.20922   0.22551   0.23140   0.23797
 Alpha virt. eigenvalues --    0.24462   0.24473   0.25198   0.26252   0.26706
 Alpha virt. eigenvalues --    0.27791   0.27976   0.28422   0.30215   0.30646
 Alpha virt. eigenvalues --    0.31426   0.32299   0.33803   0.35661   0.37067
 Alpha virt. eigenvalues --    0.38241   0.40315   0.43623   0.45338   0.51708
 Alpha virt. eigenvalues --    0.58319   0.62785   0.67718   0.67928   0.70225
 Alpha virt. eigenvalues --    0.71994   0.72403   0.73388   0.73964   0.74521
 Alpha virt. eigenvalues --    0.75583   0.76039   0.78059   0.79497   0.80333
 Alpha virt. eigenvalues --    0.81819   0.85614   0.89680   0.90396   0.91564
 Alpha virt. eigenvalues --    0.93899   0.94590   0.95544   0.96182   0.98656
 Alpha virt. eigenvalues --    1.00499   1.03336   1.05052   1.06752   1.09692
 Alpha virt. eigenvalues --    1.11536   1.11833   1.17272   1.18091   1.20654
 Alpha virt. eigenvalues --    1.22690   1.23277   1.25350   1.31841   1.31885
 Alpha virt. eigenvalues --    1.33877   1.36953   1.41226   1.41834   1.45233
 Alpha virt. eigenvalues --    1.45793   1.46501   1.49577   1.50141   1.53980
 Alpha virt. eigenvalues --    1.58980   1.65057   1.78718   1.84466   1.88363
 Alpha virt. eigenvalues --    1.89128   1.92200   1.94310   1.99482   1.99785
 Alpha virt. eigenvalues --    2.00482   2.06359   2.10007   2.14251   2.17288
 Alpha virt. eigenvalues --    2.17368   2.19889   2.24876   2.26067   2.26581
 Alpha virt. eigenvalues --    2.28695   2.31553   2.38141   2.40930   2.44761
 Alpha virt. eigenvalues --    2.54970   2.55930   2.63875   2.66040   2.67114
 Alpha virt. eigenvalues --    2.70138   2.73788   2.81163   2.84910   2.85974
 Alpha virt. eigenvalues --    2.95748   2.98228   3.11507   3.24507   3.45107
 Alpha virt. eigenvalues --    4.15466   4.26570   4.29551   4.33040   4.36610
 Alpha virt. eigenvalues --    4.40164   4.48511   4.52432   4.79446
          Condensed to atoms (all electrons):
               1          2          3          4          5          6
     1  C   28.681645   8.219158  -2.188528 -22.498721  -9.529922 -17.926439
     2  C    8.219158  27.337738   7.857057 -30.375951  12.373881 -31.859072
     3  C   -2.188528   7.857057  25.788368 -13.619878   5.353147 -19.861215
     4  C  -22.498721 -30.375951 -13.619878 121.148951 -33.919778  48.643184
     5  C   -9.529922  12.373881   5.353147 -33.919778 102.531888 -36.929031
     6  C  -17.926439 -31.859072 -19.861215  48.643184 -36.929031  79.412471
     7  N   -0.310323  -0.219255   0.884764   5.882424  -5.281580   1.355163
     8  C   33.579424  20.606448   0.001933-124.861416 -52.057684 -22.495494
     9  C  -12.280075  -7.566007   1.849269  56.373684  21.467044   5.661814
    10  H   -0.000669  -0.076281  -0.606864  -0.195194   1.109755   0.024391
    11  H    0.007866   0.002423   0.000979  -0.015034   0.003707   0.010275
    12  H    0.007206   0.002292   0.025760   0.080626  -0.232614   0.013422
    13  H    0.091635   0.154943  -0.020215   0.086353  -0.073083   0.075819
    14  H   -0.016726   0.042041   0.014971   0.150366   0.120701   0.001122
    15  H    0.290127   0.157554   0.042208  -0.099851   0.081220  -0.194109
    16  H    0.015821  -0.035199  -0.029309   0.038486   0.135287   0.262049
               7          8          9         10         11         12
     1  C   -0.310323  33.579424 -12.280075  -0.000669   0.007866   0.007206
     2  C   -0.219255  20.606448  -7.566007  -0.076281   0.002423   0.002292
     3  C    0.884764   0.001933   1.849269  -0.606864   0.000979   0.025760
     4  C    5.882424-124.861416  56.373684  -0.195194  -0.015034   0.080626
     5  C   -5.281580 -52.057684  21.467044   1.109755   0.003707  -0.232614
     6  C    1.355163 -22.495494   5.661814   0.024391   0.010275   0.013422
     7  N   12.974657 -22.105569  13.990671  -0.826058   0.003916  -0.077299
     8  C  -22.105569 346.781454-171.369067   2.275249   0.321210   0.657374
     9  C   13.990671-171.369067  96.526431  -1.550743  -0.029421  -0.149793
    10  H   -0.826058   2.275249  -1.550743   0.486356  -0.000022   0.002633
    11  H    0.003916   0.321210  -0.029421  -0.000022   0.436443  -0.000813
    12  H   -0.077299   0.657374  -0.149793   0.002633  -0.000813   0.386461
    13  H    0.001795  -0.020820   0.009713  -0.000017   0.000000  -0.000000
    14  H   -0.013309   0.000383   0.006663   0.001328   0.000001   0.000002
    15  H   -0.000281   0.043207  -0.009438   0.000001  -0.000001  -0.000000
    16  H   -0.000085  -0.137527   0.041074  -0.000000   0.001190  -0.000002
              13         14         15         16
     1  C    0.091635  -0.016726   0.290127   0.015821
     2  C    0.154943   0.042041   0.157554  -0.035199
     3  C   -0.020215   0.014971   0.042208  -0.029309
     4  C    0.086353   0.150366  -0.099851   0.038486
     5  C   -0.073083   0.120701   0.081220   0.135287
     6  C    0.075819   0.001122  -0.194109   0.262049
     7  N    0.001795  -0.013309  -0.000281  -0.000085
     8  C   -0.020820   0.000383   0.043207  -0.137527
     9  C    0.009713   0.006663  -0.009438   0.041074
    10  H   -0.000017   0.001328   0.000001  -0.000000
    11  H    0.000000   0.000001  -0.000001   0.001190
    12  H   -0.000000   0.000002  -0.000000  -0.000002
    13  H    0.463189  -0.003434  -0.003876  -0.000120
    14  H   -0.003434   0.424265  -0.000110   0.000014
    15  H   -0.003876  -0.000110   0.472165  -0.003709
    16  H   -0.000120   0.000014  -0.003709   0.473139
 Mulliken charges:
               1
     1  C   -0.141478
     2  C   -0.621770
     3  C    0.507553
     4  C   -0.818250
     5  C    0.847065
     6  C   -0.194350
     7  N    0.740369
     8  C   -5.219104
     9  C    3.028181
    10  H    0.356135
    11  H    0.257281
    12  H    0.284744
    13  H    0.238119
    14  H    0.271722
    15  H    0.224893
    16  H    0.238890
 Sum of Mulliken charges =  -0.00000
 Mulliken charges with hydrogens summed into heavy atoms:
               1
     1  C    0.083416
     2  C   -0.383651
     3  C    0.779275
     4  C   -0.818250
     5  C    0.847065
     6  C    0.044540
     7  N    1.096504
     8  C   -4.961823
     9  C    3.312925
 Electronic spatial extent (au):  <R**2>=           1039.4387
 Charge=             -0.0000 electrons
 Dipole moment (field-independent basis, Debye):
    X=             -6.2056    Y=              6.5542    Z=             -0.0009  Tot=              9.0259
 Quadrupole moment (field-independent basis, Debye-Ang):
   XX=            -64.7181   YY=            -65.2896   ZZ=            -64.6853
   XY=             16.1015   XZ=             -0.0045   YZ=              0.0018
 Traceless Quadrupole moment (field-independent basis, Debye-Ang):
   XX=              0.1796   YY=             -0.3919   ZZ=              0.2124
   XY=             16.1015   XZ=             -0.0045   YZ=              0.0018
 Octapole moment (field-independent basis, Debye-Ang**2):
  XXX=           -120.1441  YYY=             80.4530  ZZZ=             -0.0094  XYY=            -47.8824
  XXY=             52.5291  XXZ=             -0.0181  XZZ=            -18.4547  YZZ=             18.5501
  YYZ=             -0.0051  XYZ=              0.0084
 Hexadecapole moment (field-independent basis, Debye-Ang**3):
 XXXX=          -1364.3872 YYYY=           -714.2064 ZZZZ=           -131.2915 XXXY=            214.1020
 XXXZ=             -0.0764 YYYX=            143.2103 YYYZ=              0.0158 ZZZX=             -0.0270
 ZZZY=              0.0168 XXYY=           -355.6621 XXZZ=           -248.2130 YYZZ=           -150.4729
 XXYZ=              0.0301 YYXZ=             -0.0317 ZZXY=             36.6331
 N-N= 4.013368668897D+02 E-N=-1.641489599247D+03  KE= 3.603084595666D+02
 Calling FoFJK, ICntrl=  10005127 FMM=F ISym2X=0 I1Cent= 0 IOpClX= 0 NMat=1 NMatS=1 NMatT=0.
 ***** Axes restored to original set *****
 -------------------------------------------------------------------
 Center     Atomic                   Forces (Hartrees/Bohr)
 Number     Number              X              Y              Z
 -------------------------------------------------------------------
      1        6          -0.012677761   -0.013772376    0.000000771
      2        6          -0.015546805    0.023968085    0.000000875
      3        6           0.028803665   -0.007046705   -0.000010677
      4        6          -0.008579468   -0.000546502   -0.000000887
      5        6           0.006557352   -0.001556049   -0.000036311
      6        6           0.007301779    0.009460057   -0.000010613
      7        7           0.020062287    0.067155877    0.000081544
      8        6          -0.038602478    0.023067636    0.000042721
      9        6          -0.007739397   -0.068715242   -0.000093760
     10        1           0.015437111   -0.034687749    0.000004409
     11        1           0.002163150    0.005266454    0.000004790
     12        1           0.006683779   -0.004144606    0.000007154
     13        1          -0.002680481   -0.001566936    0.000001106
     14        1           0.001969048   -0.001675967    0.000001433
     15        1          -0.002797662    0.001690981    0.000003202
     16        1          -0.000354118    0.003103043    0.000004245
 -------------------------------------------------------------------
 Cartesian Forces:  Max     0.068715242 RMS     0.018026006

 GradGradGradGradGradGradGradGradGradGradGradGradGradGradGradGradGradGrad
 Berny optimization.
 FormGI is forming the generalized inverse of G from B-inverse, IUseBI=4.
 Internal  Forces:  Max     0.046363281 RMS     0.009244447
 Search for a local minimum.
 Step number   1 out of a maximum of   94
 All quantities printed in internal units (Hartrees-Bohrs-Radians)
 Mixed Optimization -- RFO/linear search
 Second derivative matrix not updated -- first step.
 ITU=  0
     Eigenvalues ---    0.01853   0.01931   0.01986   0.02012   0.02070
     Eigenvalues ---    0.02113   0.02148   0.02153   0.02172   0.02209
     Eigenvalues ---    0.02233   0.02248   0.02338   0.16000   0.16000
     Eigenvalues ---    0.16000   0.16000   0.16000   0.16000   0.16000
     Eigenvalues ---    0.22000   0.22188   0.22662   0.24011   0.24651
     Eigenvalues ---    0.35712   0.35717   0.35783   0.35790   0.36420
     Eigenvalues ---    0.36427   0.37009   0.38432   0.42633   0.43465
     Eigenvalues ---    0.45769   0.46692   0.47162   0.47468   0.47567
     Eigenvalues ---    0.48125   0.50955
 RFO step:  Lambda=-1.48887719D-02 EMin= 1.85287394D-02
 Linear search not attempted -- first point.
 Iteration  1 RMS(Cart)=  0.02762443 RMS(Int)=  0.00015683
 Iteration  2 RMS(Cart)=  0.00020033 RMS(Int)=  0.00002210
 Iteration  3 RMS(Cart)=  0.00000005 RMS(Int)=  0.00002210
 Variable       Old X    -DE/DX   Delta X   Delta X   Delta X     New X
                                 (Linear)    (Quad)   (Total)
    R1        2.65547  -0.00687   0.00000  -0.01367  -0.01367   2.64181
    R2        2.61291   0.01220   0.00000   0.02540   0.02540   2.63832
    R3        2.04421   0.00326   0.00000   0.00876   0.00876   2.05297
    R4        2.61557   0.02725   0.00000   0.05474   0.05474   2.67031
    R5        2.04411   0.00310   0.00000   0.00833   0.00833   2.05244
    R6        2.63373  -0.01057   0.00000  -0.02304  -0.02304   2.61069
    R7        2.04534   0.00170   0.00000   0.00458   0.00458   2.04992
    R8        2.68058   0.00002   0.00000  -0.00134  -0.00129   2.67929
    R9        2.60126   0.01125   0.00000   0.01895   0.01899   2.62025
   R10        2.64771   0.00728   0.00000   0.01547   0.01547   2.66317
   R11        2.70839  -0.01302   0.00000  -0.02741  -0.02742   2.68097
   R12        2.04526   0.00311   0.00000   0.00836   0.00836   2.05363
   R13        2.60573  -0.04636   0.00000  -0.09303  -0.09306   2.51266
   R14        1.89542   0.03778   0.00000   0.07765   0.07765   1.97308
   R15        2.57870   0.04208   0.00000   0.08039   0.08033   2.65902
   R16        2.03419   0.00569   0.00000   0.01501   0.01501   2.04919
   R17        2.03430   0.00708   0.00000   0.01868   0.01868   2.05299
    A1        2.11420  -0.00505   0.00000  -0.01690  -0.01689   2.09731
    A2        2.07986   0.00270   0.00000   0.00943   0.00942   2.08928
    A3        2.08912   0.00235   0.00000   0.00747   0.00747   2.09659
    A4        2.11523   0.00265   0.00000   0.01371   0.01373   2.12896
    A5        2.08365  -0.00133   0.00000  -0.00686  -0.00687   2.07678
    A6        2.08430  -0.00133   0.00000  -0.00685  -0.00686   2.07744
    A7        2.05144   0.00048   0.00000  -0.00012  -0.00010   2.05133
    A8        2.11267   0.00175   0.00000   0.01143   0.01143   2.12409
    A9        2.11908  -0.00223   0.00000  -0.01132  -0.01132   2.10776
   A10        2.13389  -0.00355   0.00000  -0.01421  -0.01424   2.11964
   A11        2.27895  -0.00280   0.00000  -0.00541  -0.00546   2.27349
   A12        1.87035   0.00636   0.00000   0.01962   0.01970   1.89005
   A13        2.07274   0.00785   0.00000   0.02537   0.02536   2.09810
   A14        1.86517  -0.00772   0.00000  -0.02375  -0.02371   1.84147
   A15        2.34527  -0.00013   0.00000  -0.00162  -0.00165   2.34362
   A16        2.07887  -0.00238   0.00000  -0.00786  -0.00785   2.07103
   A17        2.10306   0.00091   0.00000   0.00236   0.00235   2.10542
   A18        2.10125   0.00146   0.00000   0.00550   0.00549   2.10674
   A19        1.90743   0.00324   0.00000   0.00360   0.00361   1.91103
   A20        2.19023   0.00196   0.00000   0.01869   0.01868   2.20891
   A21        2.18553  -0.00520   0.00000  -0.02228  -0.02229   2.16324
   A22        1.86968  -0.00102   0.00000   0.00460   0.00453   1.87422
   A23        2.21717   0.00072   0.00000  -0.00108  -0.00105   2.21612
   A24        2.19633   0.00030   0.00000  -0.00352  -0.00349   2.19285
   A25        1.91215  -0.00085   0.00000  -0.00406  -0.00414   1.90801
   A26        2.10250  -0.00305   0.00000  -0.01785  -0.01781   2.08469
   A27        2.26854   0.00390   0.00000   0.02191   0.02195   2.29049
    D1       -0.00001   0.00000   0.00000   0.00004   0.00004   0.00002
    D2       -3.14156  -0.00000   0.00000  -0.00001  -0.00001  -3.14157
    D3        3.14152   0.00000   0.00000   0.00009   0.00008  -3.14158
    D4       -0.00002   0.00000   0.00000   0.00003   0.00003   0.00001
    D5       -0.00003  -0.00000   0.00000  -0.00003  -0.00003  -0.00006
    D6        3.14153   0.00000   0.00000   0.00008   0.00008  -3.14157
    D7       -3.14157  -0.00000   0.00000  -0.00007  -0.00007   3.14154
    D8       -0.00001   0.00000   0.00000   0.00004   0.00004   0.00003
    D9        0.00003   0.00000   0.00000   0.00002   0.00002   0.00005
   D10       -3.14154  -0.00000   0.00000  -0.00005  -0.00005  -3.14159
   D11        3.14158   0.00000   0.00000   0.00007   0.00007  -3.14154
   D12        0.00001  -0.00000   0.00000  -0.00000  -0.00000   0.00001
   D13       -0.00001  -0.00000   0.00000  -0.00009  -0.00008  -0.00009
   D14       -3.14144  -0.00000   0.00000  -0.00004  -0.00003  -3.14147
   D15        3.14156  -0.00000   0.00000  -0.00001  -0.00001   3.14155
   D16        0.00013  -0.00000   0.00000   0.00004   0.00004   0.00017
   D17       -0.00004   0.00001   0.00000   0.00010   0.00009   0.00006
   D18       -3.14151   0.00000   0.00000  -0.00006  -0.00006  -3.14157
   D19        3.14143   0.00001   0.00000   0.00006   0.00005   3.14148
   D20       -0.00005  -0.00000   0.00000  -0.00010  -0.00010  -0.00016
   D21       -3.14124  -0.00001   0.00000  -0.00045  -0.00046   3.14148
   D22       -0.00113   0.00001   0.00000   0.00027   0.00027  -0.00086
   D23        0.00049  -0.00001   0.00000  -0.00040  -0.00041   0.00008
   D24        3.14060   0.00001   0.00000   0.00031   0.00032   3.14092
   D25        0.00005  -0.00000   0.00000  -0.00004  -0.00004   0.00002
   D26       -3.14151  -0.00001   0.00000  -0.00015  -0.00015   3.14153
   D27        3.14150   0.00000   0.00000   0.00017   0.00017  -3.14152
   D28       -0.00007   0.00000   0.00000   0.00006   0.00006  -0.00001
   D29       -0.00041   0.00003   0.00000   0.00059   0.00058   0.00017
   D30        3.14139   0.00001   0.00000   0.00014   0.00013   3.14152
   D31        3.14132   0.00002   0.00000   0.00040   0.00039  -3.14147
   D32       -0.00006   0.00000   0.00000  -0.00005  -0.00006  -0.00012
   D33       -0.00077   0.00003   0.00000   0.00081   0.00080   0.00002
   D34        3.14133   0.00001   0.00000   0.00024   0.00023   3.14156
   D35       -3.14089   0.00000   0.00000   0.00005   0.00005  -3.14084
   D36        0.00121  -0.00002   0.00000  -0.00052  -0.00051   0.00070
   D37        0.00072  -0.00003   0.00000  -0.00084  -0.00084  -0.00012
   D38       -3.14144  -0.00001   0.00000  -0.00021  -0.00021   3.14154
   D39       -3.14107  -0.00001   0.00000  -0.00040  -0.00041  -3.14148
   D40       -0.00005   0.00001   0.00000   0.00023   0.00023   0.00018
         Item               Value     Threshold  Converged?
 Maximum Force            0.046363     0.000450     NO 
 RMS     Force            0.009244     0.000300     NO 
 Maximum Displacement     0.118147     0.001800     NO 
 RMS     Displacement     0.027663     0.001200     NO 
 Predicted change in Energy=-7.685091D-03
 GradGradGradGradGradGradGradGradGradGradGradGradGradGradGradGradGradGrad

                          Input orientation:                          
 ---------------------------------------------------------------------
 Center     Atomic      Atomic             Coordinates (Angstroms)
 Number     Number       Type             X           Y           Z
 ---------------------------------------------------------------------
      1          6           0       -2.178546    0.700297   -0.000006
      2          6           0       -2.129800   -0.696838    0.000012
      3          6           0       -0.905826   -1.402987    0.000023
      4          6           0        0.259527   -0.660997    0.000079
      5          6           0        0.233824    0.756589    0.000013
      6          6           0       -0.996696    1.443554   -0.000042
      7          7           0        1.583712   -1.072251   -0.000028
      8          6           0        1.593778    1.160638    0.000076
      9          6           0        2.379225   -0.006834   -0.000050
     10          1           0        1.928941   -2.057633    0.000548
     11          1           0        1.972253    2.176832   -0.000010
     12          1           0        3.456804   -0.144946   -0.000098
     13          1           0       -3.060879   -1.256048    0.000021
     14          1           0       -0.873273   -2.487268    0.000033
     15          1           0       -3.140350    1.205439   -0.000000
     16          1           0       -1.025789    2.529898   -0.000035
 ---------------------------------------------------------------------
                    Distance matrix (angstroms):
                    1          2          3          4          5
     1  C    0.000000
     2  C    1.397985   0.000000
     3  C    2.458377   1.413067   0.000000
     4  C    2.792368   2.389595   1.381520   0.000000
     5  C    2.413026   2.774737   2.441837   1.417819   0.000000
     6  C    1.396137   2.421818   2.847991   2.450966   1.409291
     7  N    4.158907   3.732439   2.511411   1.386577   2.273071
     8  C    3.800308   4.161159   3.580529   2.258003   1.418707
     9  C    4.612299   4.561513   3.569426   2.218343   2.277182
    10  H    4.947486   4.280787   2.909375   2.176587   3.285310
    11  H    4.405597   5.008474   4.593304   3.314620   2.244822
    12  H    5.698386   5.613798   4.540398   3.238656   3.346695
    13  H    2.146112   1.086105   2.160057   3.373304   3.860799
    14  H    3.444460   2.187350   1.084769   2.149070   3.427575
    15  H    1.086387   2.154036   3.434674   3.878498   3.403897
    16  H    2.162473   3.410376   3.934714   3.440036   2.175144
                    6          7          8          9         10
     6  C    0.000000
     7  N    3.603857   0.000000
     8  C    2.605878   2.232912   0.000000
     9  C    3.674298   1.329644   1.407095   0.000000
    10  H    4.562638   1.044107   3.235676   2.099650   0.000000
    11  H    3.058162   3.272233   1.084387   2.221266   4.234686
    12  H    4.728319   2.090065   2.274954   1.086395   2.448007
    13  H    3.398338   4.648226   5.244635   5.581690   5.053795
    14  H    3.932759   2.835321   4.403811   4.090390   2.834959
    15  H    2.156838   5.244486   4.734340   5.651134   6.028710
    16  H    1.086733   4.448030   2.955842   4.246072   5.456726
                   11         12         13         14         15
    11  H    0.000000
    12  H    2.755820   0.000000
    13  H    6.092379   6.611713   0.000000
    14  H    5.463592   4.923012   2.510283   0.000000
    15  H    5.204067   6.733943   2.462769   4.333096   0.000000
    16  H    3.018759   5.220003   4.298253   5.019483   2.495107
                   16
    16  H    0.000000
 Stoichiometry    C8H7N
 Framework group  C1[X(C8H7N)]
 Deg. of freedom    42
 Full point group                 C1      NOp   1
 Largest Abelian subgroup         C1      NOp   1
 Largest concise Abelian subgroup C1      NOp   1
                         Standard orientation:                         
 ---------------------------------------------------------------------
 Center     Atomic      Atomic             Coordinates (Angstroms)
 Number     Number       Type             X           Y           Z
 ---------------------------------------------------------------------
      1          6           0       -2.194635    0.637499   -0.000020
      2          6           0       -2.108049   -0.757802   -0.000002
      3          6           0       -0.865391   -1.430526    0.000009
      4          6           0        0.279428   -0.657232    0.000065
      5          6           0        0.215323    0.759137   -0.000001
      6          6           0       -1.033359    1.412507   -0.000056
      7          7           0        1.614271   -1.032455   -0.000043
      8          6           0        1.563830    1.199887    0.000061
      9          6           0        2.380622    0.054127   -0.000064
     10          1           0        1.986073   -2.008120    0.000534
     11          1           0        1.914630    2.225964   -0.000025
     12          1           0        3.461549   -0.054736   -0.000113
     13          1           0       -3.023635   -1.342035    0.000007
     14          1           0       -0.803470   -2.513527    0.000018
     15          1           0       -3.169774    1.116394   -0.000014
     16          1           0       -1.091877    2.497664   -0.000050
 ---------------------------------------------------------------------
 Rotational constants (GHZ):           3.9058302           1.6344908           1.1522876
 Standard basis: 6-31+G(d) (6D, 7F)
 There are   185 symmetry adapted cartesian basis functions of A   symmetry.
 There are   185 symmetry adapted basis functions of A   symmetry.
   185 basis functions,   316 primitive gaussians,   185 cartesian basis functions
    31 alpha electrons       31 beta electrons
       nuclear repulsion energy       400.5569791469 Hartrees.
 NAtoms=   16 NActive=   16 NUniq=   16 SFac= 1.00D+00 NAtFMM=   60 NAOKFM=F Big=F
 Integral buffers will be    131072 words long.
 Regular integral format.
 Two-electron integral symmetry is turned on.
 One-electron integrals computed using PRISM.
 NBasis=   185 RedAO= T EigKep=  1.20D-06  NBF=   185
 NBsUse=   185 1.00D-06 EigRej= -1.00D+00 NBFU=   185
 Iniitial guess from the checkpoint file:  "FuncsB3PW91-V-3rd.chk"
 B after Tr=     0.000000   -0.000000    0.000000
         Rot=    0.999910    0.000010    0.000008   -0.013406 Ang=   1.54 deg.
 ExpMin= 4.38D-02 ExpMax= 4.17D+03 ExpMxC= 6.27D+02 IAcc=3 IRadAn=         5 AccDes= 0.00D+00
 Harris functional with IExCor=  408 and IRadAn=       5 diagonalized for initial guess.
 HarFok:  IExCor=  408 AccDes= 0.00D+00 IRadAn=         5 IDoV= 1 UseB2=F ITyADJ=14
 ICtDFT=  3500011 ScaDFX=  1.000000  1.000000  1.000000  1.000000
 FoFCou: FMM=F IPFlag=           0 FMFlag=      100000 FMFlg1=           0
         NFxFlg=           0 DoJE=T BraDBF=F KetDBF=T FulRan=T
         wScrn=  0.000000 ICntrl=       500 IOpCl=  0 I1Cent=   200000004 NGrid=           0
         NMat0=    1 NMatS0=      1 NMatT0=    0 NMatD0=    1 NMtDS0=    0 NMtDT0=    0
 Petite list used in FoFCou.
 Keep R1 ints in memory in canonical form, NReq=152071459.
 Requested convergence on RMS density matrix=1.00D-08 within 128 cycles.
 Requested convergence on MAX density matrix=1.00D-06.
 Requested convergence on             energy=1.00D-06.
 No special actions if energy rises. SCF Done:  E(RB3PW91) =  -363.686968971     A.U. after   14 cycles
            NFock= 14  Conv=0.62D-08     -V/T= 2.0097
 DoSCS=F DFT=T ScalE2(SS,OS)=  1.000000  1.000000
 ExpMin= 4.38D-02 ExpMax= 4.17D+03 ExpMxC= 6.27D+02 IAcc=3 IRadAn=         5 AccDes= 0.00D+00
 HarFok:  IExCor=  205 AccDes= 0.00D+00 IRadAn=         5 IDoV=-2 UseB2=F ITyADJ=14
 ICtDFT= 12500011 ScaDFX=  1.000000  1.000000  1.000000  1.000000
 Range of M.O.s used for correlation:    10   185
 NBasis=   185 NAE=    31 NBE=    31 NFC=     9 NFV=     0
 NROrb=    176 NOA=    22 NOB=    22 NVA=   154 NVB=   154

 **** Warning!!: The largest alpha MO coefficient is  0.20205396D+03

 Orbital symmetries:
       Occupied  (A) (A) (A) (A) (A) (A) (A) (A) (A) (A) (A) (A)
                 (A) (A) (A) (A) (A) (A) (A) (A) (A) (A) (A) (A)
                 (A) (A) (A) (A) (A) (A) (A)
       Virtual   (A) (A) (A) (A) (A) (A) (A) (A) (A) (A) (A) (A)
                 (A) (A) (A) (A) (A) (A) (A) (A) (A) (A) (A) (A)
                 (A) (A) (A) (A) (A) (A) (A) (A) (A) (A) (A) (A)
                 (A) (A) (A) (A) (A) (A) (A) (A) (A) (A) (A) (A)
                 (A) (A) (A) (A) (A) (A) (A) (A) (A) (A) (A) (A)
                 (A) (A) (A) (A) (A) (A) (A) (A) (A) (A) (A) (A)
                 (A) (A) (A) (A) (A) (A) (A) (A) (A) (A) (A) (A)
                 (A) (A) (A) (A) (A) (A) (A) (A) (A) (A) (A) (A)
                 (A) (A) (A) (A) (A) (A) (A) (A) (A) (A) (A) (A)
                 (A) (A) (A) (A) (A) (A) (A) (A) (A) (A) (A) (A)
                 (A) (A) (A) (A) (A) (A) (A) (A) (A) (A) (A) (A)
                 (A) (A) (A) (A) (A) (A) (A) (A) (A) (A) (A) (A)
                 (A) (A) (A) (A) (A) (A) (A) (A) (A) (A)
 Generating guess from densities on rwf.
 Convergence on wavefunction:    0.000001000000000
 Iteration     1 Dimension    12 NMult     0 NNew     12
 CISAX will form    12 AO SS matrices at one time.
 New state      4 was old state      5
 New state      5 was old state      6
 New state      6 was old state      4
 Iteration     2 Dimension    24 NMult    12 NNew     12
 New state      2 was old state      3
 New state      3 was old state      2
 Iteration     3 Dimension    36 NMult    24 NNew     12
 Iteration     4 Dimension    48 NMult    36 NNew     12
 Iteration     5 Dimension    60 NMult    48 NNew     12
 Iteration     6 Dimension    72 NMult    60 NNew     12
 Iteration     7 Dimension    84 NMult    72 NNew     12
 Iteration     8 Dimension    96 NMult    84 NNew     12
 Iteration     9 Dimension   108 NMult    96 NNew     12
 Iteration    10 Dimension   118 NMult   108 NNew     10
 Iteration    11 Dimension   124 NMult   118 NNew      6
 ***********************************************************************
 Excited states from <AA,BB:AA,BB> singles matrix:
 ***********************************************************************
 
 Ground to excited state transition densities written to RWF  633
 Ground to excited state transition electric dipole moments (Au):
       state          X           Y           Z        Dip. S.      Osc.
         1        -0.8090      0.5840     -0.0000      0.9955      0.1102
         2        -0.0379     -0.1689      0.0001      0.0300      0.0036
         3         0.0003     -0.0002     -0.1157      0.0134      0.0016
         4         0.0002      0.0000      0.0109      0.0001      0.0000
         5         0.0001     -0.0000      0.1663      0.0277      0.0038
         6        -0.0001      0.0000     -0.0796      0.0063      0.0009
 Ground to excited state transition velocity dipole moments (Au):
       state          X           Y           Z        Dip. S.      Osc.
         1         0.1237     -0.1064     -0.0000      0.0266      0.1069
         2         0.0056      0.0329     -0.0000      0.0011      0.0041
         3        -0.0000      0.0000      0.0131      0.0002      0.0006
         4        -0.0000     -0.0000      0.0007      0.0000      0.0000
         5        -0.0000      0.0000     -0.0325      0.0011      0.0034
         6         0.0000      0.0000      0.0200      0.0004      0.0013
 Ground to excited state transition magnetic dipole moments (Au):
       state          X           Y           Z
         1         0.0000      0.0001      0.1803
         2        -0.0001     -0.0000      0.1042
         3         0.1485     -0.0799      0.0002
         4         0.2767     -0.1745      0.0001
         5         0.0678      0.3612      0.0001
         6        -0.0187     -0.1278     -0.0000
 Ground to excited state transition velocity quadrupole moments (Au):
       state          XX          YY          ZZ          XY          XZ          YZ
         1         0.1816     -0.1362      0.0151      0.0592     -0.0000      0.0000
         2        -0.0223     -0.0522      0.0192      0.0252     -0.0000     -0.0000
         3        -0.0001      0.0000      0.0001      0.0001      0.0567      0.0631
         4         0.0000     -0.0000     -0.0000      0.0000      0.1860      0.2135
         5         0.0000      0.0000      0.0000      0.0001     -0.3201     -0.0124
         6         0.0001     -0.0000     -0.0000     -0.0000      0.0624     -0.0670
 <0|del|b> * <b|rxdel|0> + <0|del|b> * <b|delr+rdel|0>
 Rotatory Strengths (R) in cgs (10**-40 erg-esu-cm/Gauss)
       state          XX          YY          ZZ    R(velocity)    E-M Angle
         1        -0.0195      0.0069     -0.0078     -0.0068       90.00
         2        -0.0010     -0.0025     -0.0022     -0.0019       90.00
         3        -0.0026     -0.0152     -0.0087     -0.0089       90.00
         4         0.0054     -0.0270     -0.0037     -0.0084       90.00
         5        -0.0046     -0.0027     -0.0029     -0.0034       90.00
         6        -0.0033     -0.0049      0.0024     -0.0019       90.00
 1/2[<0|r|b>*<b|rxdel|0> + (<0|rxdel|b>*<b|r|0>)*]
 Rotatory Strengths (R) in cgs (10**-40 erg-esu-cm/Gauss)
       state          XX          YY          ZZ     R(length)
         1         0.0132     -0.0294      0.0004     -0.0052
         2        -0.0031     -0.0006     -0.0038     -0.0025
         3        -0.0272     -0.0122      0.0154     -0.0080
         4        -0.0309      0.0040     -0.0009     -0.0093
         5        -0.0062      0.0029     -0.0100     -0.0045
         6        -0.0020      0.0014     -0.0027     -0.0011
  1/2[<0|del|b>*<b|r|0> + (<0|r|b>*<b|del|0>)*] (Au)
       state          X           Y           Z        Dip. S.   Osc.(frdel)
         1        -0.1001     -0.0621      0.0000      0.1622      0.1081
         2        -0.0002     -0.0056     -0.0000      0.0058      0.0038
         3        -0.0000     -0.0000     -0.0015      0.0015      0.0010
         4        -0.0000     -0.0000      0.0000     -0.0000     -0.0000
         5        -0.0000     -0.0000     -0.0054      0.0054      0.0036
         6        -0.0000      0.0000     -0.0016      0.0016      0.0011

 Excitation energies and oscillator strengths:
 
 Excited State   1:      Singlet-A      4.5183 eV  274.41 nm  f=0.1102  <S**2>=0.000
      30 -> 34         0.12373
      31 -> 32         0.67669
 
 Excited State   2:      Singlet-A      4.9225 eV  251.87 nm  f=0.0036  <S**2>=0.000
      30 -> 32         0.52556
      31 -> 34        -0.46124
 
 Excited State   3:      Singlet-A      4.7839 eV  259.17 nm  f=0.0016  <S**2>=0.000
      31 -> 33         0.70443
 This state for optimization and/or second-order correction.
 Total Energy, E(TD-HF/TD-DFT) =  -363.511162176    
 Copying the excited state density for this state as the 1-particle RhoCI density.
 
 Excited State   4:      Singlet-A      5.4896 eV  225.85 nm  f=0.0000  <S**2>=0.000
      31 -> 35         0.70090
 
 Excited State   5:      Singlet-A      5.6363 eV  219.97 nm  f=0.0038  <S**2>=0.000
      31 -> 36        -0.69354
 
 Excited State   6:      Singlet-A      5.7025 eV  217.42 nm  f=0.0009  <S**2>=0.000
      30 -> 33         0.69726
 SavETr:  write IOETrn=   770 NScale= 10 NData=  16 NLR=1 NState=    6 LETran=     118.
          IDoAtm=1111111111111111
          Differentiating once with respect to electric field.
                with respect to dipole field.
          Differentiating once with respect to nuclear coordinates.
 Keep R1 ints in memory in canonical form, NReq=152083851.
          There are     1 degrees of freedom in the 1st order CPHF.  IDoFFX=0 NUNeed=     1.
 LinEq1:  Iter=  0 NonCon=     1 RMS=1.39D-02 Max=3.91D-01 NDo=     1
 AX will form     1 AO Fock derivatives at one time.
 LinEq1:  Iter=  1 NonCon=     1 RMS=7.70D-03 Max=1.51D-01 NDo=     1
 LinEq1:  Iter=  2 NonCon=     1 RMS=5.15D-03 Max=1.27D-01 NDo=     1
 LinEq1:  Iter=  3 NonCon=     1 RMS=2.75D-03 Max=7.14D-02 NDo=     1
 LinEq1:  Iter=  4 NonCon=     1 RMS=1.73D-03 Max=3.91D-02 NDo=     1
 LinEq1:  Iter=  5 NonCon=     1 RMS=7.67D-04 Max=1.92D-02 NDo=     1
 LinEq1:  Iter=  6 NonCon=     1 RMS=5.08D-04 Max=9.58D-03 NDo=     1
 LinEq1:  Iter=  7 NonCon=     1 RMS=2.05D-04 Max=4.69D-03 NDo=     1
 LinEq1:  Iter=  8 NonCon=     1 RMS=1.50D-04 Max=3.44D-03 NDo=     1
 LinEq1:  Iter=  9 NonCon=     1 RMS=5.29D-05 Max=9.40D-04 NDo=     1
 LinEq1:  Iter= 10 NonCon=     1 RMS=3.86D-05 Max=1.10D-03 NDo=     1
 LinEq1:  Iter= 11 NonCon=     1 RMS=1.33D-05 Max=2.72D-04 NDo=     1
 LinEq1:  Iter= 12 NonCon=     1 RMS=7.62D-06 Max=1.03D-04 NDo=     1
 LinEq1:  Iter= 13 NonCon=     1 RMS=2.56D-06 Max=4.30D-05 NDo=     1
 LinEq1:  Iter= 14 NonCon=     1 RMS=9.77D-07 Max=2.32D-05 NDo=     1
 LinEq1:  Iter= 15 NonCon=     1 RMS=5.00D-07 Max=8.15D-06 NDo=     1
 LinEq1:  Iter= 16 NonCon=     1 RMS=1.03D-07 Max=1.46D-06 NDo=     1
 LinEq1:  Iter= 17 NonCon=     1 RMS=2.36D-08 Max=3.45D-07 NDo=     1
 LinEq1:  Iter= 18 NonCon=     1 RMS=1.21D-08 Max=1.85D-07 NDo=     1
 LinEq1:  Iter= 19 NonCon=     1 RMS=4.24D-09 Max=8.82D-08 NDo=     1
 LinEq1:  Iter= 20 NonCon=     1 RMS=7.86D-10 Max=1.52D-08 NDo=     1
 LinEq1:  Iter= 21 NonCon=     1 RMS=1.68D-10 Max=3.85D-09 NDo=     1
 LinEq1:  Iter= 22 NonCon=     0 RMS=5.88D-11 Max=8.80D-10 NDo=     1
 Linear equations converged to 1.000D-10 1.000D-09 after    22 iterations.
 End of Minotr F.D. properties file   721 does not exist.
 End of Minotr F.D. properties file   722 does not exist.
 End of Minotr F.D. properties file   788 does not exist.
 Calling FoFJK, ICntrl=  10005127 FMM=F ISym2X=0 I1Cent= 0 IOpClX= 0 NMat=1 NMatS=1 NMatT=0.
 ***** Axes restored to original set *****
 -------------------------------------------------------------------
 Center     Atomic                   Forces (Hartrees/Bohr)
 Number     Number              X              Y              Z
 -------------------------------------------------------------------
      1        6           0.002565076    0.000327138   -0.000006864
      2        6          -0.000436921    0.001260101    0.000004020
      3        6           0.004688940   -0.001268949    0.000002320
      4        6          -0.011182086   -0.006980458   -0.000012869
      5        6           0.010124969    0.002070836    0.000007940
      6        6          -0.002443322    0.001787924    0.000012030
      7        7           0.003353516    0.027446286    0.000015960
      8        6          -0.012272022    0.014838502   -0.000029452
      9        6          -0.004936314   -0.022019196    0.000009983
     10        1           0.007019474   -0.016177505   -0.000008990
     11        1           0.000974781   -0.000351285    0.000003876
     12        1           0.002177667    0.000004690    0.000004220
     13        1           0.000464599   -0.000953657    0.000000344
     14        1          -0.001018438    0.000253221   -0.000000204
     15        1           0.000533631    0.000117885   -0.000001379
     16        1           0.000386451   -0.000355533   -0.000000933
 -------------------------------------------------------------------
 Cartesian Forces:  Max     0.027446286 RMS     0.006900998

 GradGradGradGradGradGradGradGradGradGradGradGradGradGradGradGradGradGrad
 Berny optimization.
 Using GEDIIS/GDIIS optimizer.
 FormGI is forming the generalized inverse of G from B-inverse, IUseBI=4.
 Internal  Forces:  Max     0.017588635 RMS     0.003077915
 Search for a local minimum.
 Step number   2 out of a maximum of   94
 All quantities printed in internal units (Hartrees-Bohrs-Radians)
 Mixed Optimization -- RFO/linear search
 Update second derivatives using D2CorX and points    1    2
 DE= -9.22D-03 DEPred=-7.69D-03 R= 1.20D+00
 TightC=F SS=  1.41D+00  RLast= 1.80D-01 DXNew= 5.0454D-01 5.3897D-01
 Trust test= 1.20D+00 RLast= 1.80D-01 DXMaxT set to 5.05D-01
 ITU=  1  0
 Use linear search instead of GDIIS.
     Eigenvalues ---    0.01855   0.01932   0.01987   0.02011   0.02069
     Eigenvalues ---    0.02113   0.02148   0.02158   0.02172   0.02210
     Eigenvalues ---    0.02234   0.02248   0.02344   0.15761   0.16000
     Eigenvalues ---    0.16000   0.16000   0.16000   0.16000   0.16198
     Eigenvalues ---    0.21912   0.22231   0.22385   0.24281   0.24929
     Eigenvalues ---    0.32742   0.35714   0.35736   0.35791   0.35849
     Eigenvalues ---    0.36464   0.36690   0.37373   0.39310   0.42669
     Eigenvalues ---    0.43714   0.45786   0.46760   0.47552   0.47766
     Eigenvalues ---    0.49579   0.52643
 RFO step:  Lambda=-1.72239246D-03 EMin= 1.85483118D-02
 Quartic linear search produced a step of  0.31465.
 Iteration  1 RMS(Cart)=  0.01109723 RMS(Int)=  0.00009429
 Iteration  2 RMS(Cart)=  0.00011393 RMS(Int)=  0.00002414
 Iteration  3 RMS(Cart)=  0.00000003 RMS(Int)=  0.00002414
 Variable       Old X    -DE/DX   Delta X   Delta X   Delta X     New X
                                 (Linear)    (Quad)   (Total)
    R1        2.64181   0.00111  -0.00430   0.00560   0.00129   2.64310
    R2        2.63832  -0.00173   0.00799  -0.00998  -0.00199   2.63633
    R3        2.05297  -0.00042   0.00276  -0.00336  -0.00060   2.05237
    R4        2.67031   0.00015   0.01722  -0.01124   0.00597   2.67628
    R5        2.05244   0.00009   0.00262  -0.00140   0.00122   2.05366
    R6        2.61069  -0.00388  -0.00725  -0.00602  -0.01327   2.59743
    R7        2.04992  -0.00028   0.00144  -0.00200  -0.00056   2.04936
    R8        2.67929   0.00522  -0.00041   0.01746   0.01713   2.69642
    R9        2.62025   0.00298   0.00597   0.00289   0.00886   2.62911
   R10        2.66317   0.00000   0.00487  -0.00281   0.00207   2.66524
   R11        2.68097  -0.00620  -0.00863  -0.01260  -0.02119   2.65978
   R12        2.05363  -0.00037   0.00263  -0.00309  -0.00046   2.05317
   R13        2.51266  -0.01211  -0.02928  -0.01425  -0.04359   2.46907
   R14        1.97308   0.01759   0.02443   0.03280   0.05724   2.03031
   R15        2.65902   0.01227   0.02528   0.01456   0.03979   2.69882
   R16        2.04919   0.00001   0.00472  -0.00310   0.00162   2.05082
   R17        2.05299   0.00216   0.00588   0.00385   0.00973   2.06272
    A1        2.09731   0.00149  -0.00531   0.01183   0.00652   2.10383
    A2        2.08928  -0.00038   0.00296  -0.00319  -0.00023   2.08905
    A3        2.09659  -0.00111   0.00235  -0.00864  -0.00629   2.09030
    A4        2.12896   0.00079   0.00432   0.00052   0.00483   2.13379
    A5        2.07678   0.00069  -0.00216   0.00855   0.00640   2.08318
    A6        2.07744  -0.00148  -0.00216  -0.00907  -0.01123   2.06622
    A7        2.05133  -0.00197  -0.00003  -0.01173  -0.01176   2.03958
    A8        2.12409  -0.00005   0.00360  -0.00510  -0.00151   2.12259
    A9        2.10776   0.00202  -0.00356   0.01683   0.01326   2.12102
   A10        2.11964   0.00213  -0.00448   0.01585   0.01137   2.13101
   A11        2.27349   0.00098  -0.00172   0.00582   0.00406   2.27755
   A12        1.89005  -0.00311   0.00620  -0.02168  -0.01542   1.87463
   A13        2.09810  -0.00110   0.00798  -0.01130  -0.00333   2.09476
   A14        1.84147   0.00286  -0.00746   0.02314   0.01577   1.85723
   A15        2.34362  -0.00176  -0.00052  -0.01184  -0.01243   2.33119
   A16        2.07103  -0.00134  -0.00247  -0.00518  -0.00762   2.06340
   A17        2.10542   0.00106   0.00074   0.00609   0.00682   2.11223
   A18        2.10674   0.00028   0.00173  -0.00091   0.00081   2.10755
   A19        1.91103   0.00206   0.00114   0.00715   0.00824   1.91927
   A20        2.20891   0.00023   0.00588   0.00206   0.00797   2.21688
   A21        2.16324  -0.00229  -0.00701  -0.00922  -0.01620   2.14704
   A22        1.87422  -0.00410   0.00143  -0.02143  -0.02000   1.85422
   A23        2.21612   0.00311  -0.00033   0.01907   0.01874   2.23486
   A24        2.19285   0.00099  -0.00110   0.00236   0.00126   2.19410
   A25        1.90801   0.00229  -0.00130   0.01281   0.01142   1.91943
   A26        2.08469  -0.00086  -0.00561   0.00039  -0.00517   2.07952
   A27        2.29049  -0.00143   0.00691  -0.01320  -0.00625   2.28424
    D1        0.00002  -0.00000   0.00001  -0.00012  -0.00011  -0.00008
    D2       -3.14157  -0.00000  -0.00000  -0.00007  -0.00007   3.14154
    D3       -3.14158  -0.00000   0.00003  -0.00009  -0.00007   3.14154
    D4        0.00001  -0.00000   0.00001  -0.00004  -0.00003  -0.00002
    D5       -0.00006   0.00000  -0.00001   0.00018   0.00017   0.00011
    D6       -3.14157  -0.00000   0.00003  -0.00007  -0.00004   3.14157
    D7        3.14154   0.00000  -0.00002   0.00015   0.00013  -3.14151
    D8        0.00003  -0.00000   0.00001  -0.00009  -0.00008  -0.00005
    D9        0.00005   0.00000   0.00001   0.00001   0.00001   0.00006
   D10       -3.14159   0.00000  -0.00002   0.00001  -0.00001   3.14159
   D11       -3.14154  -0.00000   0.00002  -0.00004  -0.00002  -3.14156
   D12        0.00001  -0.00000  -0.00000  -0.00004  -0.00004  -0.00004
   D13       -0.00009   0.00000  -0.00003   0.00004   0.00001  -0.00008
   D14       -3.14147  -0.00000  -0.00001  -0.00012  -0.00013   3.14158
   D15        3.14155   0.00000  -0.00000   0.00004   0.00003   3.14158
   D16        0.00017  -0.00000   0.00001  -0.00012  -0.00011   0.00006
   D17        0.00006   0.00000   0.00003   0.00003   0.00006   0.00012
   D18       -3.14157   0.00000  -0.00002   0.00019   0.00018  -3.14140
   D19        3.14148   0.00000   0.00002   0.00016   0.00017  -3.14153
   D20       -0.00016   0.00000  -0.00003   0.00032   0.00029   0.00014
   D21        3.14148   0.00000  -0.00014   0.00029   0.00014  -3.14156
   D22       -0.00086   0.00001   0.00008   0.00035   0.00044  -0.00042
   D23        0.00008  -0.00000  -0.00013   0.00014   0.00001   0.00010
   D24        3.14092   0.00000   0.00010   0.00021   0.00031   3.14124
   D25        0.00002  -0.00000  -0.00001  -0.00014  -0.00015  -0.00013
   D26        3.14153   0.00000  -0.00005   0.00011   0.00006  -3.14159
   D27       -3.14152  -0.00000   0.00005  -0.00036  -0.00030   3.14136
   D28       -0.00001  -0.00000   0.00002  -0.00011  -0.00009  -0.00010
   D29        0.00017  -0.00001   0.00018  -0.00064  -0.00046  -0.00030
   D30        3.14152  -0.00000   0.00004  -0.00005  -0.00000   3.14152
   D31       -3.14147  -0.00001   0.00012  -0.00045  -0.00032   3.14139
   D32       -0.00012   0.00000  -0.00002   0.00015   0.00014   0.00002
   D33        0.00002  -0.00000   0.00025  -0.00056  -0.00031  -0.00029
   D34        3.14156  -0.00000   0.00007  -0.00015  -0.00008   3.14148
   D35       -3.14084  -0.00001   0.00002  -0.00063  -0.00061  -3.14145
   D36        0.00070  -0.00001  -0.00016  -0.00022  -0.00038   0.00032
   D37       -0.00012   0.00001  -0.00027   0.00076   0.00049   0.00037
   D38        3.14154   0.00000  -0.00006   0.00029   0.00022  -3.14143
   D39       -3.14148  -0.00000  -0.00013   0.00017   0.00004  -3.14144
   D40        0.00018  -0.00000   0.00007  -0.00031  -0.00023  -0.00005
         Item               Value     Threshold  Converged?
 Maximum Force            0.017589     0.000450     NO 
 RMS     Force            0.003078     0.000300     NO 
 Maximum Displacement     0.053946     0.001800     NO 
 RMS     Displacement     0.011132     0.001200     NO 
 Predicted change in Energy=-1.426037D-03
 GradGradGradGradGradGradGradGradGradGradGradGradGradGradGradGradGradGrad

                          Input orientation:                          
 ---------------------------------------------------------------------
 Center     Atomic      Atomic             Coordinates (Angstroms)
 Number     Number       Type             X           Y           Z
 ---------------------------------------------------------------------
      1          6           0       -2.172770    0.702844    0.000025
      2          6           0       -2.125810   -0.695034    0.000024
      3          6           0       -0.903457   -1.410264   -0.000010
      4          6           0        0.251799   -0.665529    0.000038
      5          6           0        0.234116    0.761245    0.000018
      6          6           0       -0.995705    1.451700    0.000092
      7          7           0        1.584398   -1.065284    0.000032
      8          6           0        1.579234    1.175613   -0.000182
      9          6           0        2.364587   -0.017217    0.000128
     10          1           0        1.957488   -2.072821    0.000349
     11          1           0        1.966850    2.189275   -0.000317
     12          1           0        3.446750   -0.160005    0.000246
     13          1           0       -3.054575   -1.259320    0.000021
     14          1           0       -0.879188   -2.494467   -0.000006
[...]
      3        6           0.001362943   -0.000475572   -0.005266414
      4        6           0.009167649    0.002551641   -0.007824576
      5        6          -0.016518212   -0.000724562    0.008591525
      6        6           0.007801598    0.002531131   -0.007995928
      7        7           0.005861295    0.014530566    0.082908903
      8        6           0.007395864   -0.003906045   -0.033975025
      9        6          -0.011801926   -0.009704110   -0.042242169
     10        1           0.003317445   -0.004326060   -0.025002335
     11        1          -0.001907924    0.003048029    0.012549747
     12        1           0.000907845   -0.003260492    0.014086046
     13        1          -0.000540355   -0.000305639    0.000584121
     14        1           0.000332629   -0.000057014   -0.004559243
     15        1           0.000192690    0.000159466    0.000439362
     16        1          -0.000141549    0.000695990    0.011893264
 -------------------------------------------------------------------
 Cartesian Forces:  Max     0.082908903 RMS     0.016046388

 GradGradGradGradGradGradGradGradGradGradGradGradGradGradGradGradGradGrad
 Berny optimization.
 Using GEDIIS/GDIIS optimizer.
 FormGI is forming the generalized inverse of G from B-inverse, IUseBI=4.
 Internal  Forces:  Max     0.019043207 RMS     0.005594170
 Search for a local minimum.
 Step number  11 out of a maximum of   94
 All quantities printed in internal units (Hartrees-Bohrs-Radians)
 Mixed Optimization -- RFO/linear search
 Update second derivatives using D2CorX and points    7    8    9   10   11
 DE= -2.17D-03 DEPred=-1.98D-03 R= 1.10D+00
 TightC=F SS=  1.41D+00  RLast= 2.05D-01 DXNew= 1.3909D+00 6.1377D-01
 Trust test= 1.10D+00 RLast= 2.05D-01 DXMaxT set to 8.27D-01
 ITU=  1  1  1  0 -1  1  1  1  1  1  0
 Use linear search instead of GDIIS.
     Eigenvalues ---   -0.27607   0.00117   0.01883   0.02019   0.02034
     Eigenvalues ---    0.02116   0.02149   0.02171   0.02204   0.02230
     Eigenvalues ---    0.02235   0.02251   0.02403   0.05430   0.15846
     Eigenvalues ---    0.15994   0.16004   0.16056   0.16150   0.16962
     Eigenvalues ---    0.18285   0.21997   0.22399   0.22921   0.24801
     Eigenvalues ---    0.27076   0.35700   0.35743   0.35768   0.35820
     Eigenvalues ---    0.36167   0.36640   0.37544   0.39988   0.41959
     Eigenvalues ---    0.42762   0.43836   0.44516   0.47453   0.47796
     Eigenvalues ---    0.49783   0.55926
 RFO step:  Lambda=-2.76644923D-01 EMin=-2.76066252D-01
 I=     1 Eig=   -2.76D-01 Dot1= -7.56D-03
 I=     1 Stepn= -6.00D-01 RXN=   6.00D-01 EDone=F
 Mixed    1 eigenvectors in step.  Raw Step.Grad=  7.56D-03.
 RFO eigenvector is Hessian eigenvector with negative curvature.
 Taking step of  6.00D-01 in eigenvector direction(s).  Step.Grad=  1.65D-03.
 Quartic linear search produced a step of -0.23750.
 Iteration  1 RMS(Cart)=  0.06665521 RMS(Int)=  0.01503468
 Iteration  2 RMS(Cart)=  0.01872806 RMS(Int)=  0.00061586
 Iteration  3 RMS(Cart)=  0.00011802 RMS(Int)=  0.00061131
 Iteration  4 RMS(Cart)=  0.00000003 RMS(Int)=  0.00061131
 Variable       Old X    -DE/DX   Delta X   Delta X   Delta X     New X
                                 (Linear)    (Quad)   (Total)
    R1        2.66699  -0.00214  -0.00037   0.02406   0.02349   2.69048
    R2        2.61140   0.00398  -0.00024  -0.07505  -0.07553   2.53588
    R3        2.05349  -0.00009  -0.00002  -0.00783  -0.00785   2.04564
    R4        2.65419   0.00321  -0.00040  -0.05920  -0.05958   2.59461
    R5        2.05272   0.00063  -0.00030  -0.00850  -0.00879   2.04393
    R6        2.61253   0.00019  -0.00059   0.01111   0.01074   2.62328
    R7        2.05097   0.00010  -0.00033  -0.02897  -0.02930   2.02168
    R8        2.71693  -0.00253  -0.00122   0.11387   0.11346   2.83039
    R9        2.63460  -0.00031   0.00126   0.11278   0.11349   2.74809
   R10        2.69082  -0.00374  -0.00014   0.02999   0.02982   2.72064
   R11        2.62191   0.00417   0.00035  -0.02257  -0.02127   2.60064
   R12        2.05259   0.00063  -0.00012  -0.00360  -0.00372   2.04887
   R13        2.50087  -0.01546  -0.00066  -0.19771  -0.19935   2.30152
   R14        3.26721   0.00444  -0.02653   0.28643   0.25990   3.52711
   R15        2.73813   0.00111   0.00060   0.33476   0.33521   3.07335
   R16        2.04136   0.00210  -0.00053  -0.02188  -0.02241   2.01894
   R17        2.04755   0.00130  -0.00000  -0.00162  -0.00162   2.04593
    A1        2.10753  -0.00085   0.00015   0.02763   0.02762   2.13515
    A2        2.07955   0.00068  -0.00081  -0.04677  -0.04751   2.03204
    A3        2.09608   0.00018   0.00066   0.01919   0.01991   2.11599
    A4        2.12656   0.00042  -0.00061  -0.00642  -0.00691   2.11965
    A5        2.07735  -0.00024   0.00010  -0.00189  -0.00185   2.07549
    A6        2.07927  -0.00019   0.00051   0.00831   0.00877   2.08803
    A7        2.05456   0.00038  -0.00026   0.03835   0.03856   2.09312
    A8        2.11166   0.00019  -0.00079  -0.08983  -0.09096   2.02069
    A9        2.11693  -0.00058   0.00105   0.05166   0.05235   2.16928
   A10        2.12310  -0.00299   0.00151  -0.05113  -0.04959   2.07351
   A11        2.23469  -0.00063   0.00207   0.03603   0.03692   2.27161
   A12        1.92488   0.00367  -0.00356   0.01720   0.01261   1.93749
   A13        2.08079   0.00502  -0.00154  -0.00752  -0.00941   2.07138
   A14        1.85395  -0.00640   0.00131  -0.00893  -0.00623   1.84772
   A15        2.34830   0.00142   0.00022   0.01637   0.01554   2.36385
   A16        2.07379  -0.00202   0.00072  -0.00094  -0.00041   2.07338
   A17        2.10567   0.00066   0.00029   0.00646   0.00655   2.11223
   A18        2.10350   0.00139  -0.00099  -0.00483  -0.00601   2.09749
   A19        1.84445  -0.00009   0.00459   0.01101   0.01376   1.85821
   A20        2.46669   0.00148  -0.00752   0.00925   0.00208   2.46876
   A21        1.97163  -0.00072   0.00256  -0.01902  -0.01604   1.95558
   A22        1.83390   0.00014   0.00153  -0.04587  -0.04337   1.79052
   A23        2.27005  -0.00303   0.00219   0.04208   0.04377   2.31382
   A24        2.17918   0.00283  -0.00371   0.00369  -0.00051   2.17867
   A25        1.96731   0.00246  -0.00425   0.02810   0.02274   1.99006
   A26        2.12867  -0.00463   0.00324  -0.00868  -0.00492   2.12375
   A27        2.18718   0.00210   0.00088  -0.01926  -0.01785   2.16933
    D1       -0.00389   0.00099  -0.00025   0.01346   0.01304   0.00915
    D2        3.13408   0.00020   0.00066   0.01326   0.01372  -3.13538
    D3        3.13111   0.00198  -0.00052   0.02147   0.02085  -3.13122
    D4       -0.01410   0.00119   0.00039   0.02127   0.02154   0.00743
    D5        0.00245   0.00152   0.00060  -0.00628  -0.00559  -0.00313
    D6        3.12169   0.00282   0.00114   0.02924   0.03083  -3.13067
    D7       -3.13249   0.00053   0.00087  -0.01411  -0.01352   3.13718
    D8       -0.01325   0.00182   0.00142   0.02140   0.02290   0.00964
    D9        0.00689   0.00073   0.00123  -0.00742  -0.00595   0.00095
   D10        3.13971   0.00010   0.00130   0.01634   0.01705  -3.12642
   D11       -3.13108   0.00153   0.00032  -0.00719  -0.00661  -3.13769
   D12        0.00175   0.00089   0.00039   0.01657   0.01639   0.01813
   D13       -0.00868  -0.00496  -0.00261  -0.00483  -0.00679  -0.01548
   D14        3.09496  -0.00329  -0.00208   0.07298   0.07153  -3.11670
   D15       -3.14148  -0.00433  -0.00266  -0.02792  -0.03110   3.11061
   D16       -0.03784  -0.00266  -0.00214   0.04989   0.04722   0.00939
   D17        0.00750   0.00752   0.00297   0.01142   0.01343   0.02093
   D18        3.13342   0.00949   0.00228   0.00785   0.00922  -3.14054
   D19       -3.10222   0.00618   0.00244  -0.05461  -0.05149   3.12947
   D20        0.02369   0.00814   0.00175  -0.05817  -0.05569  -0.03200
   D21       -3.12733  -0.01260  -0.00899  -0.00220  -0.01297  -3.14030
   D22       -0.02175   0.01545   0.01764   0.05025   0.06714   0.04539
   D23       -0.02018  -0.01120  -0.00844   0.06711   0.05937   0.03919
   D24        3.08540   0.01686   0.01819   0.11956   0.13948  -3.05831
   D25       -0.00415  -0.00561  -0.00188  -0.00581  -0.00734  -0.01149
   D26       -3.12342  -0.00689  -0.00243  -0.04143  -0.04360   3.11617
   D27       -3.12462  -0.00819  -0.00095  -0.00062  -0.00121  -3.12583
   D28        0.03931  -0.00947  -0.00151  -0.03624  -0.03747   0.00183
   D29       -0.01693  -0.00200   0.00492   0.02607   0.03041   0.01349
   D30        3.13565   0.00370   0.00171   0.03739   0.03926  -3.10827
   D31        3.10546   0.00044   0.00404   0.02132   0.02476   3.13022
   D32       -0.02515   0.00614   0.00084   0.03264   0.03361   0.00846
   D33        0.00922   0.00995   0.01182  -0.05133  -0.03938  -0.03016
   D34       -3.13937   0.00004   0.00545  -0.02717  -0.02157   3.12224
   D35       -3.10794  -0.00914  -0.00678  -0.08739  -0.09346   3.08179
   D36        0.02666  -0.01904  -0.01315  -0.06323  -0.07565  -0.04900
   D37        0.00527  -0.00505  -0.01077   0.01611   0.00573   0.01100
   D38       -3.12905   0.00528  -0.00419  -0.00906  -0.01267   3.14146
   D39        3.13662  -0.01041  -0.00779   0.00590  -0.00182   3.13480
   D40        0.00230  -0.00008  -0.00121  -0.01928  -0.02022  -0.01792
         Item               Value     Threshold  Converged?
 Maximum Force            0.019043     0.000450     NO 
 RMS     Force            0.005594     0.000300     NO 
 Maximum Displacement     0.315213     0.001800     NO 
 RMS     Displacement     0.076459     0.001200     NO 
 Predicted change in Energy=-5.691432D-02
 GradGradGradGradGradGradGradGradGradGradGradGradGradGradGradGradGradGrad

                          Input orientation:                          
 ---------------------------------------------------------------------
 Center     Atomic      Atomic             Coordinates (Angstroms)
 Number     Number       Type             X           Y           Z
 ---------------------------------------------------------------------
      1          6           0       -2.196297    0.757019   -0.008750
      2          6           0       -2.141946   -0.665608    0.005742
      3          6           0       -0.944139   -1.336571    0.020561
      4          6           0        0.248043   -0.625419    0.022761
      5          6           0        0.195716    0.871050   -0.011550
      6          6           0       -1.090684    1.517468   -0.019144
      7          7           0        1.622765   -1.099491    0.009407
      8          6           0        1.505397    1.293633   -0.002488
      9          6           0        2.329985   -0.108004    0.019217
     10          1           0        2.623463   -2.673111   -0.068180
     11          1           0        1.951614    2.264307    0.008276
     12          1           0        3.410176   -0.180144    0.030612
     13          1           0       -3.068032   -1.224378    0.007763
     14          1           0       -1.008962   -2.404421    0.016100
     15          1           0       -3.183356    1.201457   -0.009829
     16          1           0       -1.156838    2.599660   -0.019961
 ---------------------------------------------------------------------
                    Distance matrix (angstroms):
                    1          2          3          4          5
     1  C    0.000000
     2  C    1.423738   0.000000
     3  C    2.439647   1.373009   0.000000
     4  C    2.808367   2.390388   1.388179   0.000000
     5  C    2.394731   2.797550   2.484732   1.497777   0.000000
     6  C    1.341927   2.423137   2.858075   2.527036   1.439701
     7  N    4.246432   3.789633   2.577853   1.454229   2.433093
     8  C    3.740392   4.140267   3.594264   2.294414   1.376199
     9  C    4.608283   4.506581   3.497036   2.145276   2.348318
    10  H    5.916030   5.171524   3.810774   3.137504   4.296306
    11  H    4.413317   5.034049   4.620807   3.354531   2.241592
    12  H    5.684396   5.573361   4.505273   3.193339   3.382239
    13  H    2.164746   1.081602   2.126893   3.369767   3.878562
    14  H    3.377141   2.075387   1.069825   2.178292   3.490090
    15  H    1.082503   2.137922   3.384761   3.887549   3.395188
    16  H    2.115639   3.410729   3.942183   3.518047   2.194895
                    6          7          8          9         10
     6  C    0.000000
     7  N    3.769893   0.000000
     8  C    2.605767   2.396030   0.000000
     9  C    3.787428   1.217909   1.626346   0.000000
    10  H    5.599844   1.866466   4.121825   2.583320   0.000000
    11  H    3.132746   3.379835   1.068379   2.402321   4.983505
    12  H    4.810624   2.010097   2.408588   1.082657   2.616020
    13  H    3.380584   4.692459   5.220799   5.512260   5.873476
    14  H    3.922899   2.937494   4.471907   4.052420   3.643324
    15  H    2.116418   5.328558   4.689665   5.666786   6.981034
    16  H    1.084213   4.627178   2.965386   4.414852   6.488075
                   11         12         13         14         15
    11  H    0.000000
    12  H    2.846620   0.000000
    13  H    6.112918   6.561869   0.000000
    14  H    5.528300   4.947363   2.373256   0.000000
    15  H    5.243844   6.736848   2.428638   4.210822   0.000000
    16  H    3.126617   5.346727   4.275125   5.006396   2.462082
                   16
    16  H    0.000000
 Stoichiometry    C8H7N
 Framework group  C1[X(C8H7N)]
 Deg. of freedom    42
 Full point group                 C1      NOp   1
 Largest Abelian subgroup         C1      NOp   1
 Largest concise Abelian subgroup C1      NOp   1
                         Standard orientation:                         
 ---------------------------------------------------------------------
 Center     Atomic      Atomic             Coordinates (Angstroms)
 Number     Number       Type             X           Y           Z
 ---------------------------------------------------------------------
      1          6           0       -2.232422    0.497664   -0.003100
      2          6           0       -2.033036   -0.912035    0.001837
      3          6           0       -0.772937   -1.457230    0.010050
      4          6           0        0.340388   -0.628059    0.014842
      5          6           0        0.135425    0.855429   -0.009427
      6          6           0       -1.210279    1.367112   -0.010420
      7          7           0        1.756299   -0.959146   -0.004126
      8          6           0        1.395122    1.409502    0.000097
      9          6           0        2.358589    0.099306    0.011007
     10          1           0        2.912275   -2.421795   -0.093964
     11          1           0        1.739902    2.420586    0.016514
     12          1           0        3.440525    0.137800    0.019987
     13          1           0       -2.897209   -1.562472    0.001803
     14          1           0       -0.728380   -2.526065   -0.001393
     15          1           0       -3.259708    0.838960    0.000543
     16          1           0       -1.386606    2.436871   -0.003924
 ---------------------------------------------------------------------
 Rotational constants (GHZ):           3.6455494           1.6080705           1.1159433
 Standard basis: 6-31+G(d) (6D, 7F)
 There are   185 symmetry adapted cartesian basis functions of A   symmetry.
 There are   185 symmetry adapted basis functions of A   symmetry.
   185 basis functions,   316 primitive gaussians,   185 cartesian basis functions
    31 alpha electrons       31 beta electrons
       nuclear repulsion energy       393.6481933786 Hartrees.
 NAtoms=   16 NActive=   16 NUniq=   16 SFac= 1.00D+00 NAtFMM=   60 NAOKFM=F Big=F
 Integral buffers will be    131072 words long.
 Regular integral format.
 Two-electron integral symmetry is turned on.
 One-electron integrals computed using PRISM.
 NBasis=   185 RedAO= T EigKep=  1.32D-06  NBF=   185
 NBsUse=   185 1.00D-06 EigRej= -1.00D+00 NBFU=   185
 Initial guess from the checkpoint file:  "FuncsB3PW91-V-3rd.chk"
 B after Tr=     0.000000    0.000000    0.000000
         Rot=    0.999824   -0.000177   -0.000039   -0.018737 Ang=  -2.15 deg.
 ExpMin= 4.38D-02 ExpMax= 4.17D+03 ExpMxC= 6.27D+02 IAcc=3 IRadAn=         5 AccDes= 0.00D+00
 Harris functional with IExCor=  408 and IRadAn=       5 diagonalized for initial guess.
 HarFok:  IExCor=  408 AccDes= 0.00D+00 IRadAn=         5 IDoV= 1 UseB2=F ITyADJ=14
 ICtDFT=  3500011 ScaDFX=  1.000000  1.000000  1.000000  1.000000
 FoFCou: FMM=F IPFlag=           0 FMFlag=      100000 FMFlg1=           0
         NFxFlg=           0 DoJE=T BraDBF=F KetDBF=T FulRan=T
         wScrn=  0.000000 ICntrl=       500 IOpCl=  0 I1Cent=   200000004 NGrid=           0
         NMat0=    1 NMatS0=      1 NMatT0=    0 NMatD0=    1 NMtDS0=    0 NMtDT0=    0
 Petite list used in FoFCou.
 Keep R1 ints in memory in canonical form, NReq=152071459.
 Requested convergence on RMS density matrix=1.00D-08 within 128 cycles.
 Requested convergence on MAX density matrix=1.00D-06.
 Requested convergence on             energy=1.00D-06.
 No special actions if energy rises.
 Rare condition: small coef for last iteration:  0.000D+00
 EnCoef did   100 forward-backward iterations
 Rare condition: small coef for last iteration:  0.000D+00
 SCF Done:  E(RB3PW91) =  -363.472991340     A.U. after   23 cycles
            NFock= 23  Conv=0.68D-08     -V/T= 2.0099
 DoSCS=F DFT=T ScalE2(SS,OS)=  1.000000  1.000000
 ExpMin= 4.38D-02 ExpMax= 4.17D+03 ExpMxC= 6.27D+02 IAcc=3 IRadAn=         5 AccDes= 0.00D+00
 HarFok:  IExCor=  205 AccDes= 0.00D+00 IRadAn=         5 IDoV=-2 UseB2=F ITyADJ=14
 ICtDFT= 12500011 ScaDFX=  1.000000  1.000000  1.000000  1.000000
 Range of M.O.s used for correlation:    10   185
 NBasis=   185 NAE=    31 NBE=    31 NFC=     9 NFV=     0
 NROrb=    176 NOA=    22 NOB=    22 NVA=   154 NVB=   154

 **** Warning!!: The largest alpha MO coefficient is  0.20833917D+03


 **** Warning!!: The smallest alpha delta epsilon is  0.30059945D-01

 Orbital symmetries:
       Occupied  (A) (A) (A) (A) (A) (A) (A) (A) (A) (A) (A) (A)
                 (A) (A) (A) (A) (A) (A) (A) (A) (A) (A) (A) (A)
                 (A) (A) (A) (A) (A) (A) (A)
       Virtual   (A) (A) (A) (A) (A) (A) (A) (A) (A) (A) (A) (A)
                 (A) (A) (A) (A) (A) (A) (A) (A) (A) (A) (A) (A)
                 (A) (A) (A) (A) (A) (A) (A) (A) (A) (A) (A) (A)
                 (A) (A) (A) (A) (A) (A) (A) (A) (A) (A) (A) (A)
                 (A) (A) (A) (A) (A) (A) (A) (A) (A) (A) (A) (A)
                 (A) (A) (A) (A) (A) (A) (A) (A) (A) (A) (A) (A)
                 (A) (A) (A) (A) (A) (A) (A) (A) (A) (A) (A) (A)
                 (A) (A) (A) (A) (A) (A) (A) (A) (A) (A) (A) (A)
                 (A) (A) (A) (A) (A) (A) (A) (A) (A) (A) (A) (A)
                 (A) (A) (A) (A) (A) (A) (A) (A) (A) (A) (A) (A)
                 (A) (A) (A) (A) (A) (A) (A) (A) (A) (A) (A) (A)
                 (A) (A) (A) (A) (A) (A) (A) (A) (A) (A) (A) (A)
                 (A) (A) (A) (A) (A) (A) (A) (A) (A) (A)
 Generating guess from densities on rwf.
 Convergence on wavefunction:    0.000001000000000
 Iteration     1 Dimension    12 NMult     0 NNew     12
 CISAX will form    12 AO SS matrices at one time.
 New state      1 was old state      3
 New state      3 was old state      1
 New state      4 was old state      6
 New state      6 was old state      4
 Iteration     2 Dimension    24 NMult    12 NNew     12
 New state      5 was old state      6
 New state      6 was old state      5
 Iteration     3 Dimension    36 NMult    24 NNew     12
 New state      5 was old state      6
 New state      6 was old state      5
 Iteration     4 Dimension    48 NMult    36 NNew     12
 Iteration     5 Dimension    60 NMult    48 NNew     12
 Iteration     6 Dimension    72 NMult    60 NNew     12
 Iteration     7 Dimension    84 NMult    72 NNew     12
