 Entering Gaussian System, Link 0=/cm/shared/apps/spack/cpu/opt/spack/linux-centos8-zen/gcc-8.3.1/gaussian-16.C.01-po5bqktfeugvmjyga3v7eigbecnokxng/g16/g16
 Initial command:
 /cm/shared/apps/spack/cpu/opt/spack/linux-centos8-zen/gcc-8.3.1/gaussian-16.C.01-po5bqktfeugvmjyga3v7eigbecnokxng/g16/l1.exe "/scratch/cwaldt/job_3576127/Gau-124846.inp" -scrdir="/scratch/cwaldt/job_3576127/"
 Entering Link 1 = /cm/shared/apps/spack/cpu/opt/spack/linux-centos8-zen/gcc-8.3.1/gaussian-16.C.01-po5bqktfeugvmjyga3v7eigbecnokxng/g16/l1.exe PID=    124847.
  
 Copyright (c) 1988-2019, Gaussian, Inc.  All Rights Reserved.
  
 This is part of the Gaussian(R) 16 program.  It is based on
 the Gaussian(R) 09 system (copyright 2009, Gaussian, Inc.),
 the Gaussian(R) 03 system (copyright 2003, Gaussian, Inc.),
 the Gaussian(R) 98 system (copyright 1998, Gaussian, Inc.),
 the Gaussian(R) 94 system (copyright 1995, Gaussian, Inc.),
 the Gaussian 92(TM) system (copyright 1992, Gaussian, Inc.),
 the Gaussian 90(TM) system (copyright 1990, Gaussian, Inc.),
 the Gaussian 88(TM) system (copyright 1988, Gaussian, Inc.),
 the Gaussian 86(TM) system (copyright 1986, Carnegie Mellon
 University), and the Gaussian 82(TM) system (copyright 1983,
 Carnegie Mellon University). Gaussian is a federally registered
 trademark of Gaussian, Inc.
  
 This software contains proprietary and confidential information,
 including trade secrets, belonging to Gaussian, Inc.
  
 This software is provided under written license and may be
 used, copied, transmitted, or stored only in accord with that
 written license.
  
 The following legend is applicable only to US Government
 contracts under FAR:
  
                    RESTRICTED RIGHTS LEGEND
  
 Use, reproduction and disclosure by the US Government is
 subject to restrictions as set forth in subparagraphs (a)
 and (c) of the Commercial Computer Software - Restricted
 Rights clause in FAR 52.227-19.
  
 Gaussian, Inc.
 340 Quinnipiac St., Bldg. 40, Wallingford CT 06492
  
  
 ---------------------------------------------------------------
 Warning -- This program may not be used in any manner that
 competes with the business of Gaussian, Inc. or will provide
 assistance to any competitor of Gaussian, Inc.  The licensee
 of this program is prohibited from giving any competitor of
 Gaussian, Inc. access to this program.  By using this program,
 the user acknowledges that Gaussian, Inc. is engaged in the
 business of creating and licensing software in the field of
 computational chemistry and represents and warrants to the
 licensee that it is not a competitor of Gaussian, Inc. and that
 it will not use this program in any manner prohibited above.
 ---------------------------------------------------------------
  

 Cite this work as:
 Gaussian 16, Revision C.01,
 M. J. Frisch, G. W. Trucks, H. B. Schlegel, G. E. Scuseria, 
 M. A. Robb, J. R. Cheeseman, G. Scalmani, V. Barone, 
 G. A. Petersson, H. Nakatsuji, X. Li, M. Caricato, A. V. Marenich, 
 J. Bloino, B. G. Janesko, R. Gomperts, B. Mennucci, H. P. Hratchian, 
 J. V. Ortiz, A. F. Izmaylov, J. L. Sonnenberg, D. Williams-Young, 
 F. Ding, F. Lipparini, F. Egidi, J. Goings, B. Peng, A. Petrone, 
 T. Henderson, D. Ranasinghe, V. G. Zakrzewski, J. Gao, N. Rega, 
 G. Zheng, W. Liang, M. Hada, M. Ehara, K. Toyota, R. Fukuda, 
 J. Hasegawa, M. Ishida, T. Nakajima, Y. Honda, O. Kitao, H. Nakai, 
 T. Vreven, K. Throssell, J. A. Montgomery, Jr., J. E. Peralta, 
 F. Ogliaro, M. J. Bearpark, J. J. Heyd, E. N. Brothers, K. N. Kudin, 
 V. N. Staroverov, T. A. Keith, R. Kobayashi, J. Normand, 
 K. Raghavachari, A. P. Rendell, J. C. Burant, S. S. Iyengar, 
 J. Tomasi, M. Cossi, J. M. Millam, M. Klene, C. Adamo, R. Cammi, 
 J. W. Ochterski, R. L. Martin, K. Morokuma, O. Farkas, 
 J. B. Foresman, and D. J. Fox, Gaussian, Inc., Wallingford CT, 2019.
 
 ******************************************
 Gaussian 16:  AS64L-G16RevC.01  3-Jul-2019
                23-Jun-2021 
 ******************************************
 %nprocshared=4
 Will use up to    4 processors via shared memory.
 %chk=FuncsLC-PBEPBE-V-3rd.chk
 %Mem=3GB
 ---------------------------------------------------------------
 # td= (nstates=6, root=3) LC-PBEPBE/6-31+G* Opt density=current
 ---------------------------------------------------------------
 1/18=20,19=15,26=3,38=1/1,3;
 2/9=110,12=2,17=6,18=5,40=1/2;
 3/5=1,6=6,7=11,11=9,25=1,30=1,71=1,74=1001009/1,2,3,8;
 4//1;
 5/5=2,38=5/2;
 8/6=1,10=2,107=3,108=6/1;
 9/8=3,15=2,41=6,42=1,70=2/14;
 10/5=4,28=3/2;
 6/7=2,8=2,9=2,10=2,22=-1/1;
 7/12=6,13=5,14=3/1,2,3,16;
 1/18=20,19=15,26=3/3(2);
 2/9=110/2;
 99//99;
 2/9=110/2;
 3/5=1,6=6,7=11,11=9,25=1,30=1,71=1,74=1001009/1,2,3,8;
 4/5=5,16=3,69=1/1;
 5/5=2,38=5/2;
 8/6=1,10=2,107=3,108=6/1;
 9/8=3,15=2,41=6,42=1,49=4,70=2/14;
 10/5=4,28=3/2;
 7/12=6,13=5,14=3/1,2,3,16;
 1/18=20,19=15,26=3/3(-8);
 2/9=110/2;
 6/7=2,8=2,9=2,10=2,22=-1/1;
 99/9=10/99;
 --------------------
 FuncsLC-PBEPBE-V-3rd
 --------------------
 Symbolic Z-matrix:
 Charge =  0 Multiplicity = 1
 C                    -2.15106   0.68921   0.00009 
 C                    -2.12793  -0.71582   0.00008 
 C                    -0.9323   -1.4131   -0.00001 
 C                     0.24691  -0.6702   -0.00004 
 C                     0.24819   0.7483    0. 
 C                    -0.97947   1.42353   0.00003 
 N                     1.56177  -1.07759  -0.00029 
 C                     1.62013   1.1629   -0.00016 
 C                     2.38201   0.03081   0.00025 
 H                     1.87632  -2.03001   0.00044 
 H                     1.99217   2.17301  -0.00035 
 H                     3.45255  -0.08243   0.00041 
 H                    -3.06159  -1.26202   0.00009 
 H                    -0.91725  -2.49534  -0.00007 
 H                    -3.1042    1.20079   0.00009 
 H                    -1.00935   2.50542  -0.00002 
 

 GradGradGradGradGradGradGradGradGradGradGradGradGradGradGradGradGradGrad
 Berny optimization.
 Initialization pass.
                           ----------------------------
                           !    Initial Parameters    !
                           ! (Angstroms and Degrees)  !
 --------------------------                            --------------------------
 ! Name  Definition              Value          Derivative Info.                !
 --------------------------------------------------------------------------------
 ! R1    R(1,2)                  1.4052         estimate D2E/DX2                !
 ! R2    R(1,6)                  1.3827         estimate D2E/DX2                !
 ! R3    R(1,15)                 1.0818         estimate D2E/DX2                !
 ! R4    R(2,3)                  1.3841         estimate D2E/DX2                !
 ! R5    R(2,13)                 1.0817         estimate D2E/DX2                !
 ! R6    R(3,4)                  1.3937         estimate D2E/DX2                !
 ! R7    R(3,14)                 1.0823         estimate D2E/DX2                !
 ! R8    R(4,5)                  1.4185         estimate D2E/DX2                !
 ! R9    R(4,7)                  1.3765         estimate D2E/DX2                !
 ! R10   R(5,6)                  1.4011         estimate D2E/DX2                !
 ! R11   R(5,8)                  1.4332         estimate D2E/DX2                !
 ! R12   R(6,16)                 1.0823         estimate D2E/DX2                !
 ! R13   R(7,9)                  1.3789         estimate D2E/DX2                !
 ! R14   R(7,10)                 1.003          estimate D2E/DX2                !
 ! R15   R(8,9)                  1.3646         estimate D2E/DX2                !
 ! R16   R(8,11)                 1.0764         estimate D2E/DX2                !
 ! R17   R(9,12)                 1.0765         estimate D2E/DX2                !
 ! A1    A(2,1,6)              121.1349         estimate D2E/DX2                !
 ! A2    A(2,1,15)             119.1671         estimate D2E/DX2                !
 ! A3    A(6,1,15)             119.698          estimate D2E/DX2                !
 ! A4    A(1,2,3)              121.1938         estimate D2E/DX2                !
 ! A5    A(1,2,13)             119.3846         estimate D2E/DX2                !
 ! A6    A(3,2,13)             119.4217         estimate D2E/DX2                !
 ! A7    A(2,3,4)              117.5387         estimate D2E/DX2                !
 ! A8    A(2,3,14)             121.0469         estimate D2E/DX2                !
 ! A9    A(4,3,14)             121.4144         estimate D2E/DX2                !
 ! A10   A(3,4,5)              122.2626         estimate D2E/DX2                !
 ! A11   A(3,4,7)              130.5743         estimate D2E/DX2                !
 ! A12   A(5,4,7)              107.163          estimate D2E/DX2                !
 ! A13   A(4,5,6)              118.7594         estimate D2E/DX2                !
 ! A14   A(4,5,8)              106.8666         estimate D2E/DX2                !
 ! A15   A(6,5,8)              134.374          estimate D2E/DX2                !
 ! A16   A(1,6,5)              119.1105         estimate D2E/DX2                !
 ! A17   A(1,6,16)             120.4966         estimate D2E/DX2                !
 ! A18   A(5,6,16)             120.3928         estimate D2E/DX2                !
 ! A19   A(4,7,9)              109.2874         estimate D2E/DX2                !
 ! A20   A(4,7,10)             125.4909         estimate D2E/DX2                !
 ! A21   A(9,7,10)             125.2217         estimate D2E/DX2                !
 ! A22   A(5,8,9)              107.125          estimate D2E/DX2                !
 ! A23   A(5,8,11)             127.0344         estimate D2E/DX2                !
 ! A24   A(9,8,11)             125.8405         estimate D2E/DX2                !
 ! A25   A(7,9,8)              109.5578         estimate D2E/DX2                !
 ! A26   A(7,9,12)             120.4645         estimate D2E/DX2                !
 ! A27   A(8,9,12)             129.9776         estimate D2E/DX2                !
 ! D1    D(6,1,2,3)             -0.0008         estimate D2E/DX2                !
 ! D2    D(6,1,2,13)          -179.9981         estimate D2E/DX2                !
 ! D3    D(15,1,2,3)           179.996          estimate D2E/DX2                !
 ! D4    D(15,1,2,13)           -0.0013         estimate D2E/DX2                !
 ! D5    D(2,1,6,5)             -0.0018         estimate D2E/DX2                !
 ! D6    D(2,1,6,16)           179.9965         estimate D2E/DX2                !
 ! D7    D(15,1,6,5)          -179.9986         estimate D2E/DX2                !
 ! D8    D(15,1,6,16)           -0.0003         estimate D2E/DX2                !
 ! D9    D(1,2,3,4)              0.002          estimate D2E/DX2                !
 ! D10   D(1,2,3,14)          -179.9968         estimate D2E/DX2                !
 ! D11   D(13,2,3,4)           179.9992         estimate D2E/DX2                !
 ! D12   D(13,2,3,14)            0.0005         estimate D2E/DX2                !
 ! D13   D(2,3,4,5)             -0.0005         estimate D2E/DX2                !
 ! D14   D(2,3,4,7)           -179.9911         estimate D2E/DX2                !
 ! D15   D(14,3,4,5)           179.9982         estimate D2E/DX2                !
 ! D16   D(14,3,4,7)             0.0076         estimate D2E/DX2                !
 ! D17   D(3,4,5,6)             -0.002          estimate D2E/DX2                !
 ! D18   D(3,4,5,8)           -179.9955         estimate D2E/DX2                !
 ! D19   D(7,4,5,6)            179.9905         estimate D2E/DX2                !
 ! D20   D(7,4,5,8)             -0.003          estimate D2E/DX2                !
 ! D21   D(3,4,7,9)           -179.98           estimate D2E/DX2                !
 ! D22   D(3,4,7,10)            -0.0649         estimate D2E/DX2                !
 ! D23   D(5,4,7,9)              0.0284         estimate D2E/DX2                !
 ! D24   D(5,4,7,10)           179.9434         estimate D2E/DX2                !
 ! D25   D(4,5,6,1)              0.0031         estimate D2E/DX2                !
 ! D26   D(4,5,6,16)          -179.9951         estimate D2E/DX2                !
 ! D27   D(8,5,6,1)            179.9944         estimate D2E/DX2                !
 ! D28   D(8,5,6,16)            -0.0038         estimate D2E/DX2                !
 ! D29   D(4,5,8,9)             -0.0234         estimate D2E/DX2                !
 ! D30   D(4,5,8,11)           179.9883         estimate D2E/DX2                !
 ! D31   D(6,5,8,9)            179.9846         estimate D2E/DX2                !
 ! D32   D(6,5,8,11)            -0.0037         estimate D2E/DX2                !
 ! D33   D(4,7,9,8)             -0.0444         estimate D2E/DX2                !
 ! D34   D(4,7,9,12)           179.9847         estimate D2E/DX2                !
 ! D35   D(10,7,9,8)          -179.9597         estimate D2E/DX2                !
 ! D36   D(10,7,9,12)            0.0693         estimate D2E/DX2                !
 ! D37   D(5,8,9,7)              0.0414         estimate D2E/DX2                !
 ! D38   D(5,8,9,12)          -179.9913         estimate D2E/DX2                !
 ! D39   D(11,8,9,7)          -179.9702         estimate D2E/DX2                !
 ! D40   D(11,8,9,12)           -0.0029         estimate D2E/DX2                !
 --------------------------------------------------------------------------------
 Trust Radius=3.00D-01 FncErr=1.00D-07 GrdErr=1.00D-06 EigMax=2.50D+02 EigMin=1.00D-04
 Number of steps in this run=     94 maximum allowed number of steps=    100.
 GradGradGradGradGradGradGradGradGradGradGradGradGradGradGradGradGradGrad

                          Input orientation:                          
 ---------------------------------------------------------------------
 Center     Atomic      Atomic             Coordinates (Angstroms)
 Number     Number       Type             X           Y           Z
 ---------------------------------------------------------------------
      1          6           0       -2.151063    0.689208    0.000088
      2          6           0       -2.127927   -0.715818    0.000075
      3          6           0       -0.932297   -1.413100   -0.000011
      4          6           0        0.246911   -0.670201   -0.000042
      5          6           0        0.248193    0.748299    0.000000
      6          6           0       -0.979474    1.423526    0.000032
      7          7           0        1.561774   -1.077592   -0.000285
      8          6           0        1.620133    1.162900   -0.000157
      9          6           0        2.382013    0.030806    0.000248
     10          1           0        1.876315   -2.030011    0.000438
     11          1           0        1.992173    2.173010   -0.000348
     12          1           0        3.452549   -0.082425    0.000408
     13          1           0       -3.061594   -1.262020    0.000088
     14          1           0       -0.917252   -2.495342   -0.000073
     15          1           0       -3.104203    1.200785    0.000090
     16          1           0       -1.009348    2.505421   -0.000015
 ---------------------------------------------------------------------
                    Distance matrix (angstroms):
                    1          2          3          4          5
     1  C    0.000000
     2  C    1.405216   0.000000
     3  C    2.430039   1.384100   0.000000
     4  C    2.756496   2.375276   1.393711   0.000000
     5  C    2.399984   2.790983   2.462763   1.418501   0.000000
     6  C    1.382694   2.428114   2.837018   2.426461   1.401106
     7  N    4.111781   3.707395   2.516536   1.376529   2.249305
     8  C    3.800829   4.192557   3.626386   2.290414   1.433218
     9  C    4.580641   4.571324   3.615178   2.247236   2.251218
    10  H    4.859416   4.214387   2.875566   2.122273   3.220216
    11  H    4.400917   5.031953   4.627387   3.336134   2.251948
    12  H    5.656491   5.616307   4.582311   3.259079   3.310287
    13  H    2.153220   1.081698   2.134650   3.361020   3.872476
    14  H    3.415208   2.152310   1.082347   2.164813   3.446661
    15  H    1.081752   2.150926   3.398466   3.838040   3.382795
    16  H    2.145261   3.409927   3.919278   3.415079   2.160761
                    6          7          8          9         10
     6  C    0.000000
     7  N    3.565604   0.000000
     8  C    2.612639   2.241252   0.000000
     9  C    3.638580   1.378890   1.364587   0.000000
    10  H    4.481345   1.003015   3.203172   2.121956   0.000000
    11  H    3.064704   3.278972   1.076446   2.177387   4.204618
    12  H    4.680888   2.136677   2.215532   1.076508   2.505515
    13  H    3.398144   4.627045   5.272457   5.595021   4.997275
    14  H    3.919362   2.855798   4.452085   4.155307   2.832058
    15  H    2.136372   5.192528   4.724488   5.609583   5.936632
    16  H    1.082307   4.410062   2.952378   4.198220   5.375611
                   11         12         13         14         15
    11  H    0.000000
    12  H    2.686947   0.000000
    13  H    6.110646   6.620083   0.000000
    14  H    5.500751   4.991726   2.473719   0.000000
    15  H    5.188282   6.681139   2.463174   4.294661   0.000000
    16  H    3.019872   5.158049   4.290143   5.001611   2.467892
                   16
    16  H    0.000000
 Stoichiometry    C8H7N
 Framework group  C1[X(C8H7N)]
 Deg. of freedom    42
 Full point group                 C1      NOp   1
 Largest Abelian subgroup         C1      NOp   1
 Largest concise Abelian subgroup C1      NOp   1
                         Standard orientation:                         
 ---------------------------------------------------------------------
 Center     Atomic      Atomic             Coordinates (Angstroms)
 Number     Number       Type             X           Y           Z
 ---------------------------------------------------------------------
      1          6           0       -2.151063    0.689208    0.000088
      2          6           0       -2.127927   -0.715818    0.000075
      3          6           0       -0.932297   -1.413100   -0.000011
      4          6           0        0.246911   -0.670201   -0.000042
      5          6           0        0.248193    0.748299    0.000000
      6          6           0       -0.979474    1.423526    0.000032
      7          7           0        1.561774   -1.077592   -0.000285
      8          6           0        1.620133    1.162900   -0.000157
      9          6           0        2.382013    0.030806    0.000248
     10          1           0        1.876315   -2.030011    0.000438
     11          1           0        1.992173    2.173010   -0.000348
     12          1           0        3.452549   -0.082425    0.000408
     13          1           0       -3.061594   -1.262020    0.000088
     14          1           0       -0.917252   -2.495342   -0.000073
     15          1           0       -3.104203    1.200785    0.000090
     16          1           0       -1.009348    2.505421   -0.000015
 ---------------------------------------------------------------------
 Rotational constants (GHZ):           3.9080822           1.6429452           1.1566805
 Standard basis: 6-31+G(d) (6D, 7F)
 There are   185 symmetry adapted cartesian basis functions of A   symmetry.
 There are   185 symmetry adapted basis functions of A   symmetry.
   185 basis functions,   316 primitive gaussians,   185 cartesian basis functions
    31 alpha electrons       31 beta electrons
       nuclear repulsion energy       401.3368668897 Hartrees.
 NAtoms=   16 NActive=   16 NUniq=   16 SFac= 1.00D+00 NAtFMM=   60 NAOKFM=F Big=F
 Integral buffers will be    131072 words long.
 Raffenetti 1 integral format.
 Two-electron integral symmetry is turned on.
 One-electron integrals computed using PRISM.
 NBasis=   185 RedAO= T EigKep=  1.26D-06  NBF=   185
 NBsUse=   185 1.00D-06 EigRej= -1.00D+00 NBFU=   185
 ExpMin= 4.38D-02 ExpMax= 4.17D+03 ExpMxC= 6.27D+02 IAcc=3 IRadAn=         5 AccDes= 0.00D+00
 Harris functional with IExCor=11009 and IRadAn=       5 diagonalized for initial guess.
 HarFok:  IExCor=11009 AccDes= 0.00D+00 IRadAn=         5 IDoV= 1 UseB2=F ITyADJ=14
 ICtDFT=  3500011 ScaDFX=  1.000000  1.000000  1.000000  1.000000
 FoFCou: FMM=F IPFlag=           0 FMFlag=      100000 FMFlg1=           0
         NFxFlg=           0 DoJE=T BraDBF=F KetDBF=T FulRan=T
         wScrn=  0.000000 ICntrl=       500 IOpCl=  0 I1Cent=   200000004 NGrid=           0
         NMat0=    1 NMatS0=      1 NMatT0=    0 NMatD0=    1 NMtDS0=    0 NMtDT0=    0
 Petite list used in FoFCou.
 Keep R1 ints in memory in canonical form, NReq=303303409.
 Requested convergence on RMS density matrix=1.00D-08 within 128 cycles.
 Requested convergence on MAX density matrix=1.00D-06.
 Requested convergence on             energy=1.00D-06.
 No special actions if energy rises.
 SCF Done:  E(RLC-PBE+HF-PBE) =  -362.555223269     A.U. after   16 cycles
            NFock= 16  Conv=0.27D-08     -V/T= 2.0093
 DoSCS=F DFT=T ScalE2(SS,OS)=  1.000000  1.000000
 ExpMin= 4.38D-02 ExpMax= 4.17D+03 ExpMxC= 6.27D+02 IAcc=3 IRadAn=         5 AccDes= 0.00D+00
 HarFok:  IExCor=  205 AccDes= 0.00D+00 IRadAn=         5 IDoV=-2 UseB2=F ITyADJ=14
 ICtDFT= 12500011 ScaDFX=  1.000000  1.000000  1.000000  1.000000
 Range of M.O.s used for correlation:    10   185
 NBasis=   185 NAE=    31 NBE=    31 NFC=     9 NFV=     0
 NROrb=    176 NOA=    22 NOB=    22 NVA=   154 NVB=   154

 **** Warning!!: The largest alpha MO coefficient is  0.19807822D+03

 Orbital symmetries:
       Occupied  (A) (A) (A) (A) (A) (A) (A) (A) (A) (A) (A) (A)
                 (A) (A) (A) (A) (A) (A) (A) (A) (A) (A) (A) (A)
                 (A) (A) (A) (A) (A) (A) (A)
       Virtual   (A) (A) (A) (A) (A) (A) (A) (A) (A) (A) (A) (A)
                 (A) (A) (A) (A) (A) (A) (A) (A) (A) (A) (A) (A)
                 (A) (A) (A) (A) (A) (A) (A) (A) (A) (A) (A) (A)
                 (A) (A) (A) (A) (A) (A) (A) (A) (A) (A) (A) (A)
                 (A) (A) (A) (A) (A) (A) (A) (A) (A) (A) (A) (A)
                 (A) (A) (A) (A) (A) (A) (A) (A) (A) (A) (A) (A)
                 (A) (A) (A) (A) (A) (A) (A) (A) (A) (A) (A) (A)
                 (A) (A) (A) (A) (A) (A) (A) (A) (A) (A) (A) (A)
                 (A) (A) (A) (A) (A) (A) (A) (A) (A) (A) (A) (A)
                 (A) (A) (A) (A) (A) (A) (A) (A) (A) (A) (A) (A)
                 (A) (A) (A) (A) (A) (A) (A) (A) (A) (A) (A) (A)
                 (A) (A) (A) (A) (A) (A) (A) (A) (A) (A) (A) (A)
                 (A) (A) (A) (A) (A) (A) (A) (A) (A) (A)
    24 initial guesses have been made.
 Convergence on wavefunction:    0.000001000000000
 Iteration     1 Dimension    24 NMult     0 NNew     24
 CISAX will form    24 AO SS matrices at one time.
 New state      1 was old state      5
 New state      3 was old state      1
 New state      5 was old state      6
 New state      6 was old state      3
 Iteration     2 Dimension    36 NMult    24 NNew     12
 Iteration     3 Dimension    48 NMult    36 NNew     12
 Iteration     4 Dimension    60 NMult    48 NNew     12
 Iteration     5 Dimension    72 NMult    60 NNew     12
 No map to state      5
 New state      6 was old state      5
 Iteration     6 Dimension    84 NMult    72 NNew     12
 New state      4 was old state      5
 New state      5 was old state      4
 Iteration     7 Dimension    96 NMult    84 NNew     12
 Iteration     8 Dimension   108 NMult    96 NNew     12
 Iteration     9 Dimension   120 NMult   108 NNew     12
 Iteration    10 Dimension   132 NMult   120 NNew     12
 Iteration    11 Dimension   142 NMult   132 NNew     10
 Iteration    12 Dimension   148 NMult   142 NNew      6
 Iteration    13 Dimension   152 NMult   148 NNew      4
 Iteration    14 Dimension   156 NMult   152 NNew      4
 Iteration    15 Dimension   160 NMult   156 NNew      4
 Iteration    16 Dimension   164 NMult   160 NNew      4
 Iteration    17 Dimension   166 NMult   164 NNew      2
 Iteration    18 Dimension   168 NMult   166 NNew      2
 Iteration    19 Dimension   170 NMult   168 NNew      2
 Iteration    20 Dimension   172 NMult   170 NNew      2
 Iteration    21 Dimension   174 NMult   172 NNew      2
 Iteration    22 Dimension   176 NMult   174 NNew      2
 Iteration    23 Dimension   178 NMult   176 NNew      2
 Iteration    24 Dimension   180 NMult   178 NNew      2
 ***********************************************************************
 Excited states from <AA,BB:AA,BB> singles matrix:
 ***********************************************************************
 
 Ground to excited state transition densities written to RWF  633
 Ground to excited state transition electric dipole moments (Au):
       state          X           Y           Z        Dip. S.      Osc.
         1        -0.4344     -0.3504     -0.0001      0.3115      0.0403
         2        -0.8092      0.6491     -0.0002      1.0761      0.1434
         3         0.0001     -0.0001     -0.1665      0.0277      0.0043
         4        -1.9724     -0.6848     -0.0004      4.3593      0.7143
         5         0.0032      0.0010     -0.1999      0.0400      0.0066
         6         0.0009     -0.0016      0.0138      0.0002      0.0000
 Ground to excited state transition velocity dipole moments (Au):
       state          X           Y           Z        Dip. S.      Osc.
         1         0.0809      0.0716      0.0000      0.0117      0.0401
         2         0.1495     -0.1372      0.0000      0.0412      0.1374
         3        -0.0000      0.0000      0.0300      0.0009      0.0026
         4         0.4711      0.1681      0.0001      0.2502      0.6786
         5        -0.0008     -0.0002      0.0511      0.0026      0.0070
         6        -0.0002      0.0004     -0.0032      0.0000      0.0000
 Ground to excited state transition magnetic dipole moments (Au):
       state          X           Y           Z
         1        -0.0001     -0.0002     -0.1398
         2         0.0002     -0.0002      0.0717
         3         0.1514     -0.1407     -0.0002
         4         0.0002     -0.0011     -0.9057
         5         0.1558     -0.4299      0.0015
         6         0.2205     -0.3378     -0.0010
 Ground to excited state transition velocity quadrupole moments (Au):
       state          XX          YY          ZZ          XY          XZ          YZ
         1        -0.0061     -0.0926      0.0160     -0.0141      0.0001     -0.0001
         2         0.2861     -0.1907      0.0115     -0.0527      0.0002      0.0001
         3        -0.0001      0.0000      0.0001     -0.0002      0.1244      0.0824
         4         0.0328     -0.1214     -0.0521     -0.6119      0.0008      0.0001
         5         0.0001      0.0002      0.0001      0.0011      0.3499      0.1112
         6         0.0003     -0.0000     -0.0001     -0.0010      0.3950      0.2753
 <0|del|b> * <b|rxdel|0> + <0|del|b> * <b|delr+rdel|0>
 Rotatory Strengths (R) in cgs (10**-40 erg-esu-cm/Gauss)
       state          XX          YY          ZZ    R(velocity)    E-M Angle
         1        -0.0372     -0.0340     -0.0231     -0.0315       90.00
         2         0.0879      0.0906      0.0414      0.0733       90.00
         3        -0.0309     -0.0074     -0.0019     -0.0134       90.00
         4        -0.7198      0.1158     -0.0317     -0.2119       90.03
         5         0.4576     -0.2635     -0.0207      0.0578       90.00
         6        -0.3942     -0.1513      0.0482     -0.1658       97.98
 1/2[<0|r|b>*<b|rxdel|0> + (<0|rxdel|b>*<b|r|0>)*]
 Rotatory Strengths (R) in cgs (10**-40 erg-esu-cm/Gauss)
       state          XX          YY          ZZ     R(length)
         1        -0.0440     -0.0425     -0.0069     -0.0311
         2         0.1367      0.0815      0.0086      0.0756
         3        -0.0092     -0.0123     -0.0289     -0.0168
         4         0.2210     -0.5500     -0.2797     -0.2029
         5        -0.3510      0.2944      0.2081      0.0505
         6        -0.1380     -0.3768      0.0095     -0.1684
  1/2[<0|del|b>*<b|r|0> + (<0|r|b>*<b|del|0>)*] (Au)
       state          X           Y           Z        Dip. S.   Osc.(frdel)
         1        -0.0352     -0.0251     -0.0000      0.0603      0.0402
         2        -0.1210     -0.0891     -0.0000      0.2101      0.1400
         3        -0.0000     -0.0000     -0.0050      0.0050      0.0033
         4        -0.9292     -0.1151     -0.0000      1.0443      0.6962
         5        -0.0000     -0.0000     -0.0102      0.0102      0.0068
         6        -0.0000     -0.0000     -0.0000      0.0000      0.0000

 Excitation energies and oscillator strengths:
 
 Excited State   1:      Singlet-A      5.2800 eV  234.82 nm  f=0.0403  <S**2>=0.000
      30 -> 33         0.58209
      31 -> 38        -0.33782
 
 Excited State   2:      Singlet-A      5.4394 eV  227.94 nm  f=0.1434  <S**2>=0.000
      30 -> 38         0.23366
      31 -> 33         0.64703
 
 Excited State   3:      Singlet-A      6.2906 eV  197.09 nm  f=0.0043  <S**2>=0.000
      29 -> 32         0.11529
      31 -> 32         0.64865
      31 -> 40         0.12208
 This state for optimization and/or second-order correction.
 Total Energy, E(TD-HF/TD-DFT) =  -362.324048573    
 Copying the excited state density for this state as the 1-particle RhoCI density.
 
 Excited State   4:      Singlet-A      6.6886 eV  185.37 nm  f=0.7143  <S**2>=0.000
      30 -> 33         0.34456
      31 -> 38         0.58214
 
 Excited State   5:      Singlet-A      6.7789 eV  182.90 nm  f=0.0066  <S**2>=0.000
      27 -> 32        -0.10558
      30 -> 32         0.54102
      30 -> 34        -0.10707
      30 -> 40         0.12944
      31 -> 34         0.31790
      31 -> 35        -0.12248
 
 Excited State   6:      Singlet-A      6.9637 eV  178.04 nm  f=0.0000  <S**2>=0.000
      30 -> 32        -0.31384
      30 -> 34         0.12494
      31 -> 34         0.52860
      31 -> 35        -0.18279
 SavETr:  write IOETrn=   770 NScale= 10 NData=  16 NLR=1 NState=    6 LETran=     118.
          IDoAtm=1111111111111111
          Differentiating once with respect to electric field.
                with respect to dipole field.
          Differentiating once with respect to nuclear coordinates.
 Keep R1 ints in memory in canonical form, NReq=303315801.
          There are     1 degrees of freedom in the 1st order CPHF.  IDoFFX=0 NUNeed=     1.
 LinEq1:  Iter=  0 NonCon=     1 RMS=7.50D-03 Max=1.02D-01 NDo=     1
 AX will form     1 AO Fock derivatives at one time.
 LinEq1:  Iter=  1 NonCon=     1 RMS=2.42D-03 Max=5.90D-02 NDo=     1
 LinEq1:  Iter=  2 NonCon=     1 RMS=1.20D-03 Max=4.17D-02 NDo=     1
 LinEq1:  Iter=  3 NonCon=     1 RMS=4.58D-04 Max=1.32D-02 NDo=     1
 LinEq1:  Iter=  4 NonCon=     1 RMS=1.81D-04 Max=3.76D-03 NDo=     1
 LinEq1:  Iter=  5 NonCon=     1 RMS=8.73D-05 Max=2.29D-03 NDo=     1
 LinEq1:  Iter=  6 NonCon=     1 RMS=3.12D-05 Max=6.35D-04 NDo=     1
 LinEq1:  Iter=  7 NonCon=     1 RMS=1.85D-05 Max=4.29D-04 NDo=     1
 LinEq1:  Iter=  8 NonCon=     1 RMS=5.67D-06 Max=8.77D-05 NDo=     1
 LinEq1:  Iter=  9 NonCon=     1 RMS=1.54D-06 Max=4.32D-05 NDo=     1
 LinEq1:  Iter= 10 NonCon=     1 RMS=6.49D-07 Max=7.21D-06 NDo=     1
 LinEq1:  Iter= 11 NonCon=     1 RMS=1.95D-07 Max=5.94D-06 NDo=     1
 LinEq1:  Iter= 12 NonCon=     1 RMS=1.00D-07 Max=3.17D-06 NDo=     1
 LinEq1:  Iter= 13 NonCon=     1 RMS=3.91D-08 Max=7.95D-07 NDo=     1
 LinEq1:  Iter= 14 NonCon=     1 RMS=1.13D-08 Max=2.64D-07 NDo=     1
 LinEq1:  Iter= 15 NonCon=     1 RMS=3.25D-09 Max=6.69D-08 NDo=     1
 LinEq1:  Iter= 16 NonCon=     1 RMS=1.32D-09 Max=1.89D-08 NDo=     1
 LinEq1:  Iter= 17 NonCon=     1 RMS=2.69D-10 Max=5.03D-09 NDo=     1
 LinEq1:  Iter= 18 NonCon=     0 RMS=6.37D-11 Max=5.95D-10 NDo=     1
 Linear equations converged to 1.000D-10 1.000D-09 after    18 iterations.
 End of Minotr F.D. properties file   721 does not exist.
 End of Minotr F.D. properties file   722 does not exist.
 End of Minotr F.D. properties file   788 does not exist.

 **********************************************************************

            Population analysis using the CI Density.

 **********************************************************************

 Orbital symmetries:
       Occupied  (A) (A) (A) (A) (A) (A) (A) (A) (A) (A) (A) (A)
                 (A) (A) (A) (A) (A) (A) (A) (A) (A) (A) (A) (A)
                 (A) (A) (A) (A) (A) (A) (A)
       Virtual   (A) (A) (A) (A) (A) (A) (A) (A) (A) (A) (A) (A)
                 (A) (A) (A) (A) (A) (A) (A) (A) (A) (A) (A) (A)
                 (A) (A) (A) (A) (A) (A) (A) (A) (A) (A) (A) (A)
                 (A) (A) (A) (A) (A) (A) (A) (A) (A) (A) (A) (A)
                 (A) (A) (A) (A) (A) (A) (A) (A) (A) (A) (A) (A)
                 (A) (A) (A) (A) (A) (A) (A) (A) (A) (A) (A) (A)
                 (A) (A) (A) (A) (A) (A) (A) (A) (A) (A) (A) (A)
                 (A) (A) (A) (A) (A) (A) (A) (A) (A) (A) (A) (A)
                 (A) (A) (A) (A) (A) (A) (A) (A) (A) (A) (A) (A)
                 (A) (A) (A) (A) (A) (A) (A) (A) (A) (A) (A) (A)
                 (A) (A) (A) (A) (A) (A) (A) (A) (A) (A) (A) (A)
                 (A) (A) (A) (A) (A) (A) (A) (A) (A) (A) (A) (A)
                 (A) (A) (A) (A) (A) (A) (A) (A) (A) (A)
 The electronic state is 1-A.
 Alpha  occ. eigenvalues --  -14.28528 -10.17175 -10.16981 -10.13898 -10.13472
 Alpha  occ. eigenvalues --  -10.13435 -10.13417 -10.12790 -10.12375  -1.16534
 Alpha  occ. eigenvalues --   -1.02508  -0.96124  -0.90967  -0.89040  -0.78778
 Alpha  occ. eigenvalues --   -0.75345  -0.74118  -0.69525  -0.62897  -0.61852
 Alpha  occ. eigenvalues --   -0.58052  -0.57844  -0.57077  -0.54999  -0.52720
 Alpha  occ. eigenvalues --   -0.48616  -0.47931  -0.46288  -0.40831  -0.33295
 Alpha  occ. eigenvalues --   -0.31510
 Alpha virt. eigenvalues --    0.05560   0.05796   0.07271   0.07734   0.08933
 Alpha virt. eigenvalues --    0.09364   0.09874   0.11472   0.11667   0.11783
 Alpha virt. eigenvalues --    0.12418   0.12766   0.14629   0.15553   0.15690
 Alpha virt. eigenvalues --    0.15938   0.17691   0.18761   0.20340   0.20482
 Alpha virt. eigenvalues --    0.21453   0.21971   0.22677   0.23251   0.23839
 Alpha virt. eigenvalues --    0.25300   0.25310   0.25615   0.26631   0.27174
 Alpha virt. eigenvalues --    0.27765   0.28585   0.29291   0.29861   0.30583
 Alpha virt. eigenvalues --    0.31041   0.31679   0.32432   0.32942   0.33596
 Alpha virt. eigenvalues --    0.34931   0.35189   0.37140   0.38279   0.39958
 Alpha virt. eigenvalues --    0.40947   0.41259   0.42558   0.44827   0.46940
 Alpha virt. eigenvalues --    0.47963   0.50741   0.55420   0.56277   0.62939
 Alpha virt. eigenvalues --    0.70269   0.75347   0.78694   0.78718   0.81597
 Alpha virt. eigenvalues --    0.83470   0.83718   0.85100   0.85391   0.86590
 Alpha virt. eigenvalues --    0.87125   0.88121   0.89642   0.91271   0.92312
 Alpha virt. eigenvalues --    0.93805   0.97479   1.01524   1.02598   1.03815
 Alpha virt. eigenvalues --    1.06319   1.07166   1.07930   1.08351   1.10945
 Alpha virt. eigenvalues --    1.13010   1.15452   1.16957   1.19189   1.21659
 Alpha virt. eigenvalues --    1.23658   1.24336   1.29468   1.30821   1.33389
 Alpha virt. eigenvalues --    1.34871   1.37168   1.38098   1.45056   1.45746
 Alpha virt. eigenvalues --    1.47885   1.50175   1.54906   1.55405   1.58724
 Alpha virt. eigenvalues --    1.60121   1.60511   1.63874   1.64563   1.66725
 Alpha virt. eigenvalues --    1.72277   1.78512   1.92658   1.98638   2.02797
 Alpha virt. eigenvalues --    2.03556   2.06372   2.08611   2.14203   2.14473
 Alpha virt. eigenvalues --    2.15030   2.20910   2.24587   2.28450   2.31836
 Alpha virt. eigenvalues --    2.31872   2.34329   2.39471   2.40664   2.41177
 Alpha virt. eigenvalues --    2.42728   2.45655   2.52796   2.55563   2.59005
 Alpha virt. eigenvalues --    2.69140   2.70682   2.77855   2.79980   2.81741
 Alpha virt. eigenvalues --    2.84528   2.87968   2.95329   2.98947   3.00322
 Alpha virt. eigenvalues --    3.09768   3.12092   3.26122   3.38678   3.59430
 Alpha virt. eigenvalues --    4.27834   4.39216   4.42145   4.45541   4.49241
 Alpha virt. eigenvalues --    4.52866   4.61114   4.65092   4.92072
          Condensed to atoms (all electrons):
               1          2          3          4          5          6
     1  C   21.352629   6.159571   2.222781 -17.419028  -3.727856 -16.932972
     2  C    6.159571  18.091569   6.649702 -19.141234   8.045093 -20.945105
     3  C    2.222781   6.649702  33.620095 -32.735110  12.740257 -21.561329
     4  C  -17.419028 -19.141234 -32.735110  93.569126 -29.460555  43.904263
     5  C   -3.727856   8.045093  12.740257 -29.460555  71.621178 -26.684409
     6  C  -16.932972 -20.945105 -21.561329  43.904263 -26.684409  62.264045
     7  N   -0.865334  -0.489650  -3.566613   5.761025  -2.225265   2.188733
     8  C   24.519044  12.785804  18.132569 -69.113310 -47.464902 -24.362743
     9  C   -9.233240  -4.658208  -8.877338  30.521344  21.218132   7.712306
    10  H    0.013129  -0.031779  -0.004359   0.002836   0.448429  -0.024570
    11  H   -0.005880  -0.002655   0.004016   0.022924   0.089602  -0.005695
    12  H    0.002957  -0.000961   0.036905   0.086329  -0.125367  -0.015961
    13  H    0.075015   0.180506  -0.072733   0.123545  -0.070102   0.086606
    14  H    0.015503   0.035417   0.155269   0.164727  -0.093111   0.020778
    15  H    0.281898   0.076669   0.010524  -0.040124   0.035104  -0.056241
    16  H   -0.083043  -0.064050  -0.035837   0.155738   0.181741   0.287072
               7          8          9         10         11         12
     1  C   -0.865334  24.519044  -9.233240   0.013129  -0.005880   0.002957
     2  C   -0.489650  12.785804  -4.658208  -0.031779  -0.002655  -0.000961
     3  C   -3.566613  18.132569  -8.877338  -0.004359   0.004016   0.036905
     4  C    5.761025 -69.113310  30.521344   0.002836   0.022924   0.086329
     5  C   -2.225265 -47.464902  21.218132   0.448429   0.089602  -0.125367
     6  C    2.188733 -24.362743   7.712306  -0.024570  -0.005695  -0.015961
     7  N   14.724569 -23.367836  14.565295  -0.587261   0.007095  -0.051795
     8  C  -23.367836 232.265012-113.585771   1.329907   0.137545   0.170002
     9  C   14.565295-113.585771  66.046755  -0.919132   0.065987   0.229597
    10  H   -0.587261   1.329907  -0.919132   0.353042  -0.000071  -0.000691
    11  H    0.007095   0.137545   0.065987  -0.000071   0.392828  -0.000261
    12  H   -0.051795   0.170002   0.229597  -0.000691  -0.000261   0.356158
    13  H    0.002908  -0.020448   0.009932  -0.000015   0.000000  -0.000000
    14  H    0.020434  -0.039005   0.030067  -0.000300   0.000001   0.000002
    15  H   -0.000083   0.016103  -0.002700   0.000000  -0.000001  -0.000000
    16  H    0.001810  -0.199589   0.057783  -0.000002   0.000956  -0.000001
              13         14         15         16
     1  C    0.075015   0.015503   0.281898  -0.083043
     2  C    0.180506   0.035417   0.076669  -0.064050
     3  C   -0.072733   0.155269   0.010524  -0.035837
     4  C    0.123545   0.164727  -0.040124   0.155738
     5  C   -0.070102  -0.093111   0.035104   0.181741
     6  C    0.086606   0.020778  -0.056241   0.287072
     7  N    0.002908   0.020434  -0.000083   0.001810
     8  C   -0.020448  -0.039005   0.016103  -0.199589
     9  C    0.009932   0.030067  -0.002700   0.057783
    10  H   -0.000015  -0.000300   0.000000  -0.000002
    11  H    0.000000   0.000001  -0.000001   0.000956
    12  H   -0.000000   0.000002  -0.000000  -0.000001
    13  H    0.430750  -0.002012  -0.002888  -0.000089
    14  H   -0.002012   0.396874  -0.000095   0.000012
    15  H   -0.002888  -0.000095   0.438433  -0.002699
    16  H   -0.000089   0.000012  -0.002699   0.437160
 Mulliken charges:
               1
     1  C   -0.375173
     2  C   -0.690690
     3  C   -0.718799
     4  C   -0.402499
     5  C    1.472031
     6  C    0.125220
     7  N    0.881967
     8  C   -5.202384
     9  C    2.819190
    10  H    0.420835
    11  H    0.293609
    12  H    0.313087
    13  H    0.259024
    14  H    0.295440
    15  H    0.246101
    16  H    0.263038
 Sum of Mulliken charges =  -0.00000
 Mulliken charges with hydrogens summed into heavy atoms:
               1
     1  C   -0.129072
     2  C   -0.431665
     3  C   -0.423359
     4  C   -0.402499
     5  C    1.472031
     6  C    0.388258
     7  N    1.302802
     8  C   -4.908774
     9  C    3.132278
 Electronic spatial extent (au):  <R**2>=           1036.2254
 Charge=             -0.0000 electrons
 Dipole moment (field-independent basis, Debye):
    X=             -5.3759    Y=              5.1528    Z=             -0.0010  Tot=              7.4466
 Quadrupole moment (field-independent basis, Debye-Ang):
   XX=            -61.0188   YY=            -61.5538   ZZ=            -67.7985
   XY=             12.2205   XZ=             -0.0051   YZ=              0.0023
 Traceless Quadrupole moment (field-independent basis, Debye-Ang):
   XX=              2.4382   YY=              1.9032   ZZ=             -4.3414
   XY=             12.2205   XZ=             -0.0051   YZ=              0.0023
 Octapole moment (field-independent basis, Debye-Ang**2):
  XXX=           -104.8544  YYY=             62.5730  ZZZ=             -0.0111  XYY=            -41.0393
  XXY=             38.7608  XXZ=             -0.0203  XZZ=            -20.8523  YZZ=             17.7236
  YYZ=             -0.0025  XYZ=              0.0084
 Hexadecapole moment (field-independent basis, Debye-Ang**3):
 XXXX=          -1271.6542 YYYY=           -664.4501 ZZZZ=           -157.2268 XXXY=            158.6462
 XXXZ=             -0.0903 YYYX=            108.2377 YYYZ=              0.0197 ZZZX=             -0.0332
 ZZZY=              0.0225 XXYY=           -329.4027 XXZZ=           -255.1118 YYZZ=           -152.6685
 XXYZ=              0.0331 YYXZ=             -0.0242 ZZXY=             32.6377
 N-N= 4.013368668897D+02 E-N=-1.640258226847D+03  KE= 3.591596599514D+02
 Calling FoFJK, ICntrl=  10005127 FMM=F ISym2X=0 I1Cent= 0 IOpClX= 0 NMat=1 NMatS=1 NMatT=0.
 ***** Axes restored to original set *****
 -------------------------------------------------------------------
 Center     Atomic                   Forces (Hartrees/Bohr)
 Number     Number              X              Y              Z
 -------------------------------------------------------------------
      1        6          -0.000760124   -0.022386292   -0.000000055
      2        6          -0.003163278    0.032771102    0.000002364
      3        6           0.031210361    0.005081217   -0.000011099
      4        6          -0.020035304    0.009880198   -0.000008351
      5        6          -0.005105381   -0.011015138   -0.000027565
      6        6           0.012693281   -0.005634530   -0.000010005
      7        7           0.025364202    0.070968513    0.000093968
      8        6          -0.033829336    0.004869127    0.000043971
      9        6          -0.021082853   -0.065312813   -0.000098994
     10        1           0.010916290   -0.024250092   -0.000001648
     11        1           0.002595774    0.005333043    0.000003535
     12        1           0.004846051   -0.002237635    0.000006093
     13        1          -0.002389510   -0.001402239    0.000000931
     14        1           0.001287648   -0.000751769    0.000001129
     15        1          -0.002255847    0.001382650    0.000002410
     16        1          -0.000291975    0.002704658    0.000003316
 -------------------------------------------------------------------
 Cartesian Forces:  Max     0.070968513 RMS     0.018130521

 GradGradGradGradGradGradGradGradGradGradGradGradGradGradGradGradGradGrad
 Berny optimization.
 FormGI is forming the generalized inverse of G from B-inverse, IUseBI=4.
 Internal  Forces:  Max     0.058542607 RMS     0.009326219
 Search for a local minimum.
 Step number   1 out of a maximum of   94
 All quantities printed in internal units (Hartrees-Bohrs-Radians)
 Mixed Optimization -- RFO/linear search
 Second derivative matrix not updated -- first step.
 ITU=  0
     Eigenvalues ---    0.01853   0.01931   0.01986   0.02012   0.02070
     Eigenvalues ---    0.02113   0.02148   0.02153   0.02172   0.02209
     Eigenvalues ---    0.02233   0.02248   0.02338   0.16000   0.16000
     Eigenvalues ---    0.16000   0.16000   0.16000   0.16000   0.16000
     Eigenvalues ---    0.22000   0.22188   0.22662   0.24011   0.24651
     Eigenvalues ---    0.35712   0.35717   0.35783   0.35790   0.36420
     Eigenvalues ---    0.36427   0.37009   0.38432   0.42633   0.43465
     Eigenvalues ---    0.45769   0.46692   0.47162   0.47468   0.47567
     Eigenvalues ---    0.48125   0.50955
 RFO step:  Lambda=-1.53897308D-02 EMin= 1.85287394D-02
 Linear search not attempted -- first point.
 Iteration  1 RMS(Cart)=  0.02625436 RMS(Int)=  0.00015521
 Iteration  2 RMS(Cart)=  0.00017947 RMS(Int)=  0.00006248
 Iteration  3 RMS(Cart)=  0.00000002 RMS(Int)=  0.00006248
 Variable       Old X    -DE/DX   Delta X   Delta X   Delta X     New X
                                 (Linear)    (Quad)   (Total)
    R1        2.65547  -0.02265   0.00000  -0.04753  -0.04760   2.60788
    R2        2.61291  -0.00154   0.00000  -0.00204  -0.00207   2.61084
    R3        2.04421   0.00264   0.00000   0.00708   0.00708   2.05129
    R4        2.61557   0.01240   0.00000   0.02515   0.02512   2.64069
    R5        2.04411   0.00277   0.00000   0.00742   0.00742   2.05154
    R6        2.63373  -0.02654   0.00000  -0.05611  -0.05607   2.57766
    R7        2.04534   0.00077   0.00000   0.00207   0.00207   2.04741
    R8        2.68058  -0.01992   0.00000  -0.04596  -0.04583   2.63475
    R9        2.60126   0.00563   0.00000   0.00833   0.00849   2.60975
   R10        2.64771  -0.01210   0.00000  -0.02604  -0.02601   2.62169
   R11        2.70839  -0.01770   0.00000  -0.03850  -0.03863   2.66976
   R12        2.04526   0.00271   0.00000   0.00728   0.00728   2.05254
   R13        2.60573  -0.05854   0.00000  -0.11727  -0.11723   2.48849
   R14        1.89542   0.02645   0.00000   0.05431   0.05431   1.94973
   R15        2.57870   0.02325   0.00000   0.04459   0.04445   2.62314
   R16        2.03419   0.00590   0.00000   0.01554   0.01554   2.04973
   R17        2.03430   0.00505   0.00000   0.01332   0.01332   2.04762
    A1        2.11420  -0.00490   0.00000  -0.01541  -0.01549   2.09871
    A2        2.07986   0.00260   0.00000   0.00859   0.00862   2.08848
    A3        2.08912   0.00229   0.00000   0.00683   0.00687   2.09599
    A4        2.11523   0.00232   0.00000   0.01363   0.01355   2.12878
    A5        2.08365  -0.00116   0.00000  -0.00679  -0.00675   2.07690
    A6        2.08430  -0.00116   0.00000  -0.00684  -0.00680   2.07750
    A7        2.05144  -0.00165   0.00000  -0.00815  -0.00813   2.04331
    A8        2.11267   0.00213   0.00000   0.01152   0.01152   2.12418
    A9        2.11908  -0.00048   0.00000  -0.00337  -0.00338   2.11570
   A10        2.13389  -0.00106   0.00000  -0.00550  -0.00551   2.12838
   A11        2.27895  -0.00352   0.00000  -0.00893  -0.00909   2.26986
   A12        1.87035   0.00458   0.00000   0.01443   0.01460   1.88495
   A13        2.07274   0.00840   0.00000   0.02646   0.02659   2.09933
   A14        1.86517  -0.00772   0.00000  -0.02250  -0.02259   1.84258
   A15        2.34527  -0.00068   0.00000  -0.00396  -0.00400   2.34127
   A16        2.07887  -0.00310   0.00000  -0.01103  -0.01101   2.06786
   A17        2.10306   0.00133   0.00000   0.00424   0.00424   2.10730
   A18        2.10125   0.00177   0.00000   0.00678   0.00678   2.10803
   A19        1.90743   0.00482   0.00000   0.01014   0.01034   1.91776
   A20        2.19023   0.00021   0.00000   0.00985   0.00975   2.19998
   A21        2.18553  -0.00503   0.00000  -0.01999  -0.02009   2.16544
   A22        1.86968   0.00054   0.00000   0.00985   0.00963   1.87931
   A23        2.21717   0.00033   0.00000  -0.00149  -0.00138   2.21579
   A24        2.19633  -0.00087   0.00000  -0.00836  -0.00825   2.18809
   A25        1.91215  -0.00222   0.00000  -0.01191  -0.01197   1.90017
   A26        2.10250  -0.00064   0.00000  -0.00399  -0.00396   2.09855
   A27        2.26854   0.00285   0.00000   0.01590   0.01593   2.28447
    D1       -0.00001   0.00000   0.00000   0.00002   0.00002   0.00001
    D2       -3.14156  -0.00000   0.00000  -0.00001  -0.00001  -3.14157
    D3        3.14152   0.00000   0.00000   0.00005   0.00005   3.14158
    D4       -0.00002   0.00000   0.00000   0.00002   0.00002   0.00000
    D5       -0.00003  -0.00000   0.00000  -0.00003  -0.00003  -0.00006
    D6        3.14153   0.00000   0.00000   0.00006   0.00006   3.14159
    D7       -3.14157  -0.00000   0.00000  -0.00006  -0.00006   3.14155
    D8       -0.00001   0.00000   0.00000   0.00003   0.00003   0.00002
    D9        0.00003   0.00000   0.00000   0.00004   0.00004   0.00007
   D10       -3.14154  -0.00000   0.00000  -0.00004  -0.00004  -3.14158
   D11        3.14158   0.00000   0.00000   0.00007   0.00007  -3.14154
   D12        0.00001  -0.00000   0.00000  -0.00001  -0.00001  -0.00000
   D13       -0.00001  -0.00000   0.00000  -0.00008  -0.00008  -0.00009
   D14       -3.14144  -0.00001   0.00000  -0.00008  -0.00008  -3.14151
   D15        3.14156  -0.00000   0.00000  -0.00000  -0.00000   3.14156
   D16        0.00013  -0.00000   0.00000   0.00000   0.00000   0.00013
   D17       -0.00004   0.00001   0.00000   0.00007   0.00007   0.00004
   D18       -3.14151   0.00000   0.00000  -0.00003  -0.00003  -3.14154
   D19        3.14143   0.00001   0.00000   0.00007   0.00007   3.14149
   D20       -0.00005   0.00000   0.00000  -0.00003  -0.00004  -0.00009
   D21       -3.14124  -0.00001   0.00000  -0.00043  -0.00044   3.14150
   D22       -0.00113   0.00001   0.00000   0.00027   0.00027  -0.00087
   D23        0.00049  -0.00001   0.00000  -0.00043  -0.00044   0.00006
   D24        3.14060   0.00001   0.00000   0.00027   0.00027   3.14088
   D25        0.00005  -0.00000   0.00000  -0.00002  -0.00001   0.00004
   D26       -3.14151  -0.00000   0.00000  -0.00010  -0.00010   3.14157
   D27        3.14150   0.00000   0.00000   0.00012   0.00012  -3.14157
   D28       -0.00007   0.00000   0.00000   0.00003   0.00003  -0.00004
   D29       -0.00041   0.00002   0.00000   0.00050   0.00049   0.00009
   D30        3.14139   0.00001   0.00000   0.00009   0.00008   3.14147
   D31        3.14132   0.00002   0.00000   0.00038   0.00037  -3.14149
   D32       -0.00006   0.00000   0.00000  -0.00004  -0.00004  -0.00011
   D33       -0.00077   0.00003   0.00000   0.00078   0.00077  -0.00000
   D34        3.14133   0.00001   0.00000   0.00026   0.00025   3.14158
   D35       -3.14089   0.00000   0.00000   0.00005   0.00005  -3.14084
   D36        0.00121  -0.00002   0.00000  -0.00047  -0.00047   0.00074
   D37        0.00072  -0.00003   0.00000  -0.00077  -0.00078  -0.00005
   D38       -3.14144  -0.00001   0.00000  -0.00019  -0.00019   3.14155
   D39       -3.14107  -0.00001   0.00000  -0.00036  -0.00037  -3.14144
   D40       -0.00005   0.00001   0.00000   0.00022   0.00022   0.00017
         Item               Value     Threshold  Converged?
 Maximum Force            0.058543     0.000450     NO 
 RMS     Force            0.009326     0.000300     NO 
 Maximum Displacement     0.094845     0.001800     NO 
 RMS     Displacement     0.026282     0.001200     NO 
 Predicted change in Energy=-7.954696D-03
 GradGradGradGradGradGradGradGradGradGradGradGradGradGradGradGradGradGrad

                          Input orientation:                          
 ---------------------------------------------------------------------
 Center     Atomic      Atomic             Coordinates (Angstroms)
 Number     Number       Type             X           Y           Z
 ---------------------------------------------------------------------
      1          6           0       -2.153597    0.689554    0.000011
      2          6           0       -2.108338   -0.689733    0.000017
      3          6           0       -0.899271   -1.390350    0.000000
      4          6           0        0.246826   -0.650715    0.000061
      5          6           0        0.225188    0.743367    0.000033
      6          6           0       -0.983559    1.424281   -0.000019
      7          7           0        1.566722   -1.057034   -0.000021
      8          6           0        1.580054    1.143708    0.000050
      9          6           0        2.359045   -0.005212   -0.000027
     10          1           0        1.901593   -2.032933    0.000575
     11          1           0        1.959806    2.159730   -0.000071
     12          1           0        3.435083   -0.132615   -0.000072
     13          1           0       -3.040097   -1.246875    0.000019
     14          1           0       -0.868724   -2.473359   -0.000007
     15          1           0       -3.113968    1.195510    0.000010
     16          1           0       -1.009860    2.510121   -0.000024
 ---------------------------------------------------------------------
                    Distance matrix (angstroms):
                    1          2          3          4          5
     1  C    0.000000
     2  C    1.380030   0.000000
     3  C    2.428854   1.397392   0.000000
     4  C    2.749246   2.355487   1.364038   0.000000
     5  C    2.379393   2.738452   2.411878   1.394250   0.000000
     6  C    1.381598   2.394615   2.815893   2.412355   1.387340
     7  N    4.109908   3.693369   2.488418   1.381022   2.245252
     8  C    3.761171   4.118949   3.545208   2.235498   1.412776
     9  C    4.565811   4.519522   3.540513   2.208652   2.261353
    10  H    4.884312   4.228916   2.873631   2.156103   3.243174
    11  H    4.368237   4.966813   4.558222   3.291338   2.239416
    12  H    5.648832   5.571345   4.513150   3.230079   3.327277
    13  H    2.129705   1.085626   2.145628   3.340550   3.824023
    14  H    3.413930   2.172088   1.083440   2.136933   3.397642
    15  H    1.085497   2.136688   3.404637   3.834512   3.369628
    16  H    2.150023   3.383153   3.902039   3.401492   2.155635
                    6          7          8          9         10
     6  C    0.000000
     7  N    3.558210   0.000000
     8  C    2.578921   2.200782   0.000000
     9  C    3.635444   1.316854   1.388107   0.000000
    10  H    4.502936   1.031755   3.192872   2.078681   0.000000
    11  H    3.033856   3.240692   1.084672   2.201446   4.193067
    12  H    4.684903   2.084543   2.251695   1.083554   2.441884
    13  H    3.371116   4.610730   5.201989   5.540078   5.003818
    14  H    3.899332   2.817335   4.368030   4.063280   2.805108
    15  H    2.142657   5.194499   4.694308   5.603178   5.964788
    16  H    1.086159   4.400383   2.928266   4.204333   5.395915
                   11         12         13         14         15
    11  H    0.000000
    12  H    2.726039   0.000000
    13  H    6.050123   6.570353   0.000000
    14  H    5.428268   4.899167   2.493818   0.000000
    15  H    5.164581   6.682363   2.443502   4.301363   0.000000
    16  H    2.990265   5.171225   4.270467   4.985479   2.481023
                   16
    16  H    0.000000
 Stoichiometry    C8H7N
 Framework group  C1[X(C8H7N)]
 Deg. of freedom    42
 Full point group                 C1      NOp   1
 Largest Abelian subgroup         C1      NOp   1
 Largest concise Abelian subgroup C1      NOp   1
                         Standard orientation:                         
 ---------------------------------------------------------------------
 Center     Atomic      Atomic             Coordinates (Angstroms)
 Number     Number       Type             X           Y           Z
 ---------------------------------------------------------------------
      1          6           0       -2.166497    0.635700   -0.000006
      2          6           0       -2.088594   -0.742129    0.000000
      3          6           0       -0.863278   -1.413923   -0.000017
      4          6           0        0.264986   -0.647361    0.000045
      5          6           0        0.210347    0.745819    0.000016
      6          6           0       -1.014183    1.397923   -0.000035
      7          7           0        1.594132   -1.022315   -0.000038
      8          6           0        1.555355    1.178125    0.000033
      9          6           0        2.361329    0.047972   -0.000043
     10          1           0        1.952015   -1.990012    0.000558
     11          1           0        1.910944    2.202854   -0.000088
     12          1           0        3.440082   -0.053919   -0.000089
     13          1           0       -3.006901   -1.321176    0.000002
     14          1           0       -0.807098   -2.495906   -0.000024
     15          1           0       -3.138578    1.118776   -0.000007
     16          1           0       -1.066185    2.482836   -0.000040
 ---------------------------------------------------------------------
 Rotational constants (GHZ):           4.0008703           1.6671416           1.1767825
 Standard basis: 6-31+G(d) (6D, 7F)
 There are   185 symmetry adapted cartesian basis functions of A   symmetry.
 There are   185 symmetry adapted basis functions of A   symmetry.
   185 basis functions,   316 primitive gaussians,   185 cartesian basis functions
    31 alpha electrons       31 beta electrons
       nuclear repulsion energy       404.7082562251 Hartrees.
 NAtoms=   16 NActive=   16 NUniq=   16 SFac= 1.00D+00 NAtFMM=   60 NAOKFM=F Big=F
 Integral buffers will be    131072 words long.
 Raffenetti 1 integral format.
 Two-electron integral symmetry is turned on.
 One-electron integrals computed using PRISM.
 NBasis=   185 RedAO= T EigKep=  1.06D-06  NBF=   185
 NBsUse=   185 1.00D-06 EigRej= -1.00D+00 NBFU=   185
 Initial guess from the checkpoint file:  "FuncsLC-PBEPBE-V-3rd.chk"
 B after Tr=     0.000000   -0.000000    0.000000
         Rot=    0.999932    0.000008    0.000008   -0.011700 Ang=   1.34 deg.
 ExpMin= 4.38D-02 ExpMax= 4.17D+03 ExpMxC= 6.27D+02 IAcc=3 IRadAn=         5 AccDes= 0.00D+00
 Harris functional with IExCor=11009 and IRadAn=       5 diagonalized for initial guess.
 HarFok:  IExCor=11009 AccDes= 0.00D+00 IRadAn=         5 IDoV= 1 UseB2=F ITyADJ=14
 ICtDFT=  3500011 ScaDFX=  1.000000  1.000000  1.000000  1.000000
 FoFCou: FMM=F IPFlag=           0 FMFlag=      100000 FMFlg1=           0
         NFxFlg=           0 DoJE=T BraDBF=F KetDBF=T FulRan=T
         wScrn=  0.000000 ICntrl=       500 IOpCl=  0 I1Cent=   200000004 NGrid=           0
         NMat0=    1 NMatS0=      1 NMatT0=    0 NMatD0=    1 NMtDS0=    0 NMtDT0=    0
 Petite list used in FoFCou.
 Keep R1 ints in memory in canonical form, NReq=303303409.
 Requested convergence on RMS density matrix=1.00D-08 within 128 cycles.
 Requested convergence on MAX density matrix=1.00D-06.
 Requested convergence on             energy=1.00D-06.
 No special actions if energy rises.
 SCF Done:  E(RLC-PBE+HF-PBE) =  -362.550480759     A.U. after   16 cycles
            NFock= 16  Conv=0.67D-08     -V/T= 2.0085
 DoSCS=F DFT=T ScalE2(SS,OS)=  1.000000  1.000000
 ExpMin= 4.38D-02 ExpMax= 4.17D+03 ExpMxC= 6.27D+02 IAcc=3 IRadAn=         5 AccDes= 0.00D+00
 HarFok:  IExCor=  205 AccDes= 0.00D+00 IRadAn=         5 IDoV=-2 UseB2=F ITyADJ=14
 ICtDFT= 12500011 ScaDFX=  1.000000  1.000000  1.000000  1.000000
 Range of M.O.s used for correlation:    10   185
 NBasis=   185 NAE=    31 NBE=    31 NFC=     9 NFV=     0
 NROrb=    176 NOA=    22 NOB=    22 NVA=   154 NVB=   154

 **** Warning!!: The largest alpha MO coefficient is  0.22280406D+03

 Orbital symmetries:
       Occupied  (A) (A) (A) (A) (A) (A) (A) (A) (A) (A) (A) (A)
                 (A) (A) (A) (A) (A) (A) (A) (A) (A) (A) (A) (A)
                 (A) (A) (A) (A) (A) (A) (A)
       Virtual   (A) (A) (A) (A) (A) (A) (A) (A) (A) (A) (A) (A)
                 (A) (A) (A) (A) (A) (A) (A) (A) (A) (A) (A) (A)
                 (A) (A) (A) (A) (A) (A) (A) (A) (A) (A) (A) (A)
                 (A) (A) (A) (A) (A) (A) (A) (A) (A) (A) (A) (A)
                 (A) (A) (A) (A) (A) (A) (A) (A) (A) (A) (A) (A)
                 (A) (A) (A) (A) (A) (A) (A) (A) (A) (A) (A) (A)
                 (A) (A) (A) (A) (A) (A) (A) (A) (A) (A) (A) (A)
                 (A) (A) (A) (A) (A) (A) (A) (A) (A) (A) (A) (A)
                 (A) (A) (A) (A) (A) (A) (A) (A) (A) (A) (A) (A)
                 (A) (A) (A) (A) (A) (A) (A) (A) (A) (A) (A) (A)
                 (A) (A) (A) (A) (A) (A) (A) (A) (A) (A) (A) (A)
                 (A) (A) (A) (A) (A) (A) (A) (A) (A) (A) (A) (A)
                 (A) (A) (A) (A) (A) (A) (A) (A) (A) (A)
 Generating guess from densities on rwf.
 Convergence on wavefunction:    0.000001000000000
 Iteration     1 Dimension    12 NMult     0 NNew     12
 CISAX will form    12 AO SS matrices at one time.
 New state      1 was old state      2
 New state      2 was old state      1
 New state      5 was old state      6
 New state      6 was old state      5
 Iteration     2 Dimension    24 NMult    12 NNew     12
 Iteration     3 Dimension    36 NMult    24 NNew     12
 Iteration     4 Dimension    48 NMult    36 NNew     12
 Iteration     5 Dimension    60 NMult    48 NNew     12
 Iteration     6 Dimension    72 NMult    60 NNew     12
 New state      4 was old state      5
 New state      5 was old state      4
 Iteration     7 Dimension    84 NMult    72 NNew     12
 Iteration     8 Dimension    96 NMult    84 NNew     12
 Iteration     9 Dimension   108 NMult    96 NNew     12
 Iteration    10 Dimension   120 NMult   108 NNew     12
 Iteration    11 Dimension   128 NMult   120 NNew      8
 Iteration    12 Dimension   136 NMult   128 NNew      8
 Iteration    13 Dimension   142 NMult   136 NNew      6
 Iteration    14 Dimension   146 NMult   142 NNew      4
 Iteration    15 Dimension   150 NMult   146 NNew      4
 Iteration    16 Dimension   154 NMult   150 NNew      4
 Iteration    17 Dimension   156 NMult   154 NNew      2
 ***********************************************************************
 Excited states from <AA,BB:AA,BB> singles matrix:
 ***********************************************************************
 
 Ground to excited state transition densities written to RWF  633
 Ground to excited state transition electric dipole moments (Au):
       state          X           Y           Z        Dip. S.      Osc.
         1        -0.9556      0.7154      0.0000      1.4250      0.1814
         2        -0.0846     -0.2814     -0.0000      0.0864      0.0114
         3         0.0001     -0.0000     -0.1705      0.0291      0.0042
         4         0.0040      0.0015     -0.1681      0.0283      0.0046
         5        -1.8826     -0.7202     -0.0007      4.0630      0.6610
         6        -0.0029     -0.0011      0.1733      0.0300      0.0049
 Ground to excited state transition velocity dipole moments (Au):
       state          X           Y           Z        Dip. S.      Osc.
         1         0.1690     -0.1464     -0.0000      0.0500      0.1745
         2         0.0160      0.0590      0.0000      0.0037      0.0125
         3        -0.0000      0.0000      0.0296      0.0009      0.0027
         4        -0.0010     -0.0004      0.0415      0.0017      0.0047
         5         0.4462      0.1767      0.0002      0.2303      0.6292
         6         0.0007      0.0003     -0.0412      0.0017      0.0046
 Ground to excited state transition magnetic dipole moments (Au):
       state          X           Y           Z
         1         0.0000      0.0001      0.0740
         2        -0.0001     -0.0001      0.0505
         3         0.1918     -0.1598      0.0002
         4         0.2020     -0.5124      0.0021
         5         0.0001     -0.0016     -0.9990
         6         0.3202      0.2257     -0.0015
 Ground to excited state transition velocity quadrupole moments (Au):
       state          XX          YY          ZZ          XY          XZ          YZ
         1         0.2481     -0.1950      0.0137     -0.0141     -0.0000      0.0000
         2        -0.0524     -0.0614      0.0197      0.0335      0.0000     -0.0000
         3        -0.0000      0.0001      0.0001      0.0001      0.1280      0.1006
         4        -0.0004      0.0004      0.0001      0.0014      0.5023      0.2320
         5         0.1899     -0.1906     -0.0431     -0.6731      0.0014      0.0002
         6         0.0003     -0.0003     -0.0000     -0.0010     -0.1402      0.2158
 <0|del|b> * <b|rxdel|0> + <0|del|b> * <b|delr+rdel|0>
 Rotatory Strengths (R) in cgs (10**-40 erg-esu-cm/Gauss)
       state          XX          YY          ZZ    R(velocity)    E-M Angle
         1        -0.0259      0.0110     -0.0059     -0.0069       90.00
         2        -0.0096     -0.0024     -0.0063     -0.0061       90.00
         3         0.0117     -0.0074     -0.0032      0.0004       90.00
         4         0.7705     -0.5580      0.0471      0.0865       90.00
         5        -1.1452      0.1120     -0.1275     -0.3869       90.05
         6         0.2970      0.5698      0.1406      0.3358       88.75
 1/2[<0|r|b>*<b|rxdel|0> + (<0|rxdel|b>*<b|r|0>)*]
 Rotatory Strengths (R) in cgs (10**-40 erg-esu-cm/Gauss)
       state          XX          YY          ZZ     R(length)
         1         0.0223     -0.0373     -0.0012     -0.0054
         2        -0.0046     -0.0139      0.0006     -0.0059
         3        -0.0146     -0.0040      0.0203      0.0006
         4        -0.5740      0.5556      0.2522      0.0779
         5         0.1139     -0.8048     -0.4634     -0.3848
         6         0.6675      0.1829      0.1806      0.3437
  1/2[<0|del|b>*<b|r|0> + (<0|r|b>*<b|del|0>)*] (Au)
       state          X           Y           Z        Dip. S.   Osc.(frdel)
         1        -0.1615     -0.1047     -0.0000      0.2662      0.1775
         2        -0.0014     -0.0166     -0.0000      0.0180      0.0120
         3        -0.0000     -0.0000     -0.0050      0.0050      0.0034
         4        -0.0000     -0.0000     -0.0070      0.0070      0.0047
         5        -0.8401     -0.1272     -0.0000      0.9673      0.6449
         6        -0.0000     -0.0000     -0.0071      0.0071      0.0048

 Excitation energies and oscillator strengths:
 
 Excited State   1:      Singlet-A      5.1960 eV  238.62 nm  f=0.1814  <S**2>=0.000
      30 -> 38         0.16383
      31 -> 33         0.66704
 
 Excited State   2:      Singlet-A      5.4076 eV  229.28 nm  f=0.0114  <S**2>=0.000
      29 -> 38         0.10466
      30 -> 33         0.53184
      31 -> 38        -0.39930
 
 Excited State   3:      Singlet-A      5.9224 eV  209.35 nm  f=0.0042  <S**2>=0.000
      29 -> 32         0.10882
      31 -> 32         0.66039
      31 -> 40         0.11720
 This state for optimization and/or second-order correction.
 Total Energy, E(TD-HF/TD-DFT) =  -362.332837733    
 Copying the excited state density for this state as the 1-particle RhoCI density.
 
 Excited State   4:      Singlet-A      6.6341 eV  186.89 nm  f=0.0046  <S**2>=0.000
      30 -> 32         0.10532
      31 -> 34         0.54845
      31 -> 35        -0.33534
      31 -> 37        -0.11429
 
 Excited State   5:      Singlet-A      6.6409 eV  186.70 nm  f=0.6610  <S**2>=0.000
      30 -> 33         0.39617
      31 -> 38         0.52030
      31 -> 39         0.17371
 
 Excited State   6:      Singlet-A      6.7086 eV  184.81 nm  f=0.0049  <S**2>=0.000
      31 -> 34         0.32734
      31 -> 35         0.48921
      31 -> 36         0.17595
      31 -> 40        -0.13136
      31 -> 43         0.22313
 SavETr:  write IOETrn=   770 NScale= 10 NData=  16 NLR=1 NState=    6 LETran=     118.
          IDoAtm=1111111111111111
          Differentiating once with respect to electric field.
                with respect to dipole field.
          Differentiating once with respect to nuclear coordinates.
 Keep R1 ints in memory in canonical form, NReq=303315801.
          There are     1 degrees of freedom in the 1st order CPHF.  IDoFFX=0 NUNeed=     1.
 LinEq1:  Iter=  0 NonCon=     1 RMS=8.17D-03 Max=1.16D-01 NDo=     1
 AX will form     1 AO Fock derivatives at one time.
 LinEq1:  Iter=  1 NonCon=     1 RMS=2.69D-03 Max=5.63D-02 NDo=     1
 LinEq1:  Iter=  2 NonCon=     1 RMS=1.32D-03 Max=4.44D-02 NDo=     1
 LinEq1:  Iter=  3 NonCon=     1 RMS=4.78D-04 Max=8.26D-03 NDo=     1
 LinEq1:  Iter=  4 NonCon=     1 RMS=2.08D-04 Max=4.07D-03 NDo=     1
 LinEq1:  Iter=  5 NonCon=     1 RMS=8.98D-05 Max=1.99D-03 NDo=     1
 LinEq1:  Iter=  6 NonCon=     1 RMS=3.63D-05 Max=1.10D-03 NDo=     1
 LinEq1:  Iter=  7 NonCon=     1 RMS=2.21D-05 Max=5.38D-04 NDo=     1
 LinEq1:  Iter=  8 NonCon=     1 RMS=6.04D-06 Max=9.00D-05 NDo=     1
 LinEq1:  Iter=  9 NonCon=     1 RMS=1.64D-06 Max=4.52D-05 NDo=     1
 LinEq1:  Iter= 10 NonCon=     1 RMS=6.52D-07 Max=1.11D-05 NDo=     1
 LinEq1:  Iter= 11 NonCon=     1 RMS=1.84D-07 Max=5.13D-06 NDo=     1
 LinEq1:  Iter= 12 NonCon=     1 RMS=9.15D-08 Max=2.50D-06 NDo=     1
 LinEq1:  Iter= 13 NonCon=     1 RMS=3.66D-08 Max=7.58D-07 NDo=     1
 LinEq1:  Iter= 14 NonCon=     1 RMS=1.15D-08 Max=3.31D-07 NDo=     1
 LinEq1:  Iter= 15 NonCon=     1 RMS=3.44D-09 Max=6.30D-08 NDo=     1
 LinEq1:  Iter= 16 NonCon=     1 RMS=1.50D-09 Max=2.03D-08 NDo=     1
 LinEq1:  Iter= 17 NonCon=     1 RMS=2.92D-10 Max=3.82D-09 NDo=     1
 LinEq1:  Iter= 18 NonCon=     0 RMS=6.68D-11 Max=7.69D-10 NDo=     1
 Linear equations converged to 1.000D-10 1.000D-09 after    18 iterations.
 End of Minotr F.D. properties file   721 does not exist.
 End of Minotr F.D. properties file   722 does not exist.
 End of Minotr F.D. properties file   788 does not exist.
 Calling FoFJK, ICntrl=  10005127 FMM=F ISym2X=0 I1Cent= 0 IOpClX= 0 NMat=1 NMatS=1 NMatT=0.
 ***** Axes restored to original set *****
 -------------------------------------------------------------------
 Center     Atomic                   Forces (Hartrees/Bohr)
 Number     Number              X              Y              Z
 -------------------------------------------------------------------
      1        6           0.000951774    0.002601243   -0.000005191
      2        6           0.000224765   -0.001707923   -0.000000011
      3        6           0.002307248   -0.002507687    0.000006438
      4        6          -0.010903634   -0.007141633   -0.000006819
      5        6           0.009786090    0.002868934   -0.000000205
      6        6          -0.002770723    0.003617879    0.000009732
      7        7           0.008607133    0.014257326    0.000024179
      8        6          -0.010095856    0.015293795   -0.000022837
      9        6          -0.003144568   -0.020729510    0.000000109
     10        1           0.002679652   -0.006281387   -0.000015209
     11        1           0.000780340   -0.000094223    0.000005599
     12        1           0.001828374    0.000837267    0.000006023
     13        1           0.000252823   -0.000968493    0.000000168
     14        1          -0.001070447   -0.000084198   -0.000001164
     15        1           0.000322777    0.000243408   -0.000000128
     16        1           0.000244253   -0.000204799   -0.000000684
 -------------------------------------------------------------------
 Cartesian Forces:  Max     0.020729510 RMS     0.005445582

 GradGradGradGradGradGradGradGradGradGradGradGradGradGradGradGradGradGrad
 Berny optimization.
 Using GEDIIS/GDIIS optimizer.
 FormGI is forming the generalized inverse of G from B-inverse, IUseBI=4.
 Internal  Forces:  Max     0.012731588 RMS     0.002444243
 Search for a local minimum.
 Step number   2 out of a maximum of   94
 All quantities printed in internal units (Hartrees-Bohrs-Radians)
 Mixed Optimization -- RFO/linear search
 Update second derivatives using D2CorX and points    1    2
 DE= -8.79D-03 DEPred=-7.95D-03 R= 1.10D+00
 TightC=F SS=  1.41D+00  RLast= 1.83D-01 DXNew= 5.0454D-01 5.4836D-01
 Trust test= 1.10D+00 RLast= 1.83D-01 DXMaxT set to 5.05D-01
 ITU=  1  0
 Use linear search instead of GDIIS.
     Eigenvalues ---    0.01854   0.01932   0.01986   0.02011   0.02069
     Eigenvalues ---    0.02113   0.02148   0.02156   0.02172   0.02210
     Eigenvalues ---    0.02233   0.02248   0.02341   0.15911   0.16000
     Eigenvalues ---    0.16000   0.16000   0.16000   0.16000   0.16104
     Eigenvalues ---    0.21919   0.22213   0.22500   0.24405   0.24649
     Eigenvalues ---    0.35276   0.35713   0.35727   0.35788   0.35867
     Eigenvalues ---    0.36436   0.37077   0.37593   0.39728   0.42616
     Eigenvalues ---    0.44500   0.46525   0.46793   0.47555   0.48030
     Eigenvalues ---    0.48124   0.55464
 RFO step:  Lambda=-1.29957246D-03 EMin= 1.85430505D-02
 Quartic linear search produced a step of  0.09316.
 Iteration  1 RMS(Cart)=  0.00741296 RMS(Int)=  0.00003326
 Iteration  2 RMS(Cart)=  0.00003865 RMS(Int)=  0.00001239
 Iteration  3 RMS(Cart)=  0.00000000 RMS(Int)=  0.00001239
 Variable       Old X    -DE/DX   Delta X   Delta X   Delta X     New X
                                 (Linear)    (Quad)   (Total)
    R1        2.60788   0.00430  -0.00443   0.01114   0.00669   2.61457
    R2        2.61084  -0.00016  -0.00019  -0.00040  -0.00059   2.61025
    R3        2.05129  -0.00017   0.00066  -0.00073  -0.00007   2.05122
    R4        2.64069   0.00026   0.00234  -0.00037   0.00196   2.64265
    R5        2.05154   0.00028   0.00069   0.00064   0.00133   2.05287
    R6        2.57766  -0.00106  -0.00522  -0.00105  -0.00628   2.57138
    R7        2.04741   0.00005   0.00019   0.00011   0.00030   2.04770
    R8        2.63475   0.00740  -0.00427   0.02117   0.01695   2.65170
    R9        2.60975   0.00537   0.00079   0.01102   0.01182   2.62157
   R10        2.62169   0.00220  -0.00242   0.00628   0.00387   2.62556
   R11        2.66976  -0.00421  -0.00360  -0.00923  -0.01281   2.65695
   R12        2.05254  -0.00021   0.00068  -0.00085  -0.00017   2.05237
   R13        2.48849  -0.00913  -0.01092  -0.01844  -0.02939   2.45910
   R14        1.94973   0.00681   0.00506   0.01447   0.01953   1.96926
   R15        2.62314   0.01273   0.00414   0.02567   0.02979   2.65293
   R16        2.04973   0.00019   0.00145   0.00011   0.00156   2.05130
   R17        2.04762   0.00172   0.00124   0.00476   0.00600   2.05362
    A1        2.09871   0.00131  -0.00144   0.00642   0.00497   2.10368
    A2        2.08848  -0.00028   0.00080  -0.00072   0.00009   2.08857
    A3        2.09599  -0.00103   0.00064  -0.00570  -0.00505   2.09094
    A4        2.12878   0.00118   0.00126   0.00396   0.00521   2.13400
    A5        2.07690   0.00040  -0.00063   0.00470   0.00408   2.08098
    A6        2.07750  -0.00158  -0.00063  -0.00866  -0.00929   2.06821
    A7        2.04331  -0.00194  -0.00076  -0.00942  -0.01017   2.03313
    A8        2.12418  -0.00013   0.00107  -0.00314  -0.00207   2.12212
    A9        2.11570   0.00207  -0.00032   0.01256   0.01224   2.12794
   A10        2.12838   0.00191  -0.00051   0.00971   0.00919   2.13757
   A11        2.26986   0.00119  -0.00085   0.00470   0.00382   2.27368
   A12        1.88495  -0.00310   0.00136  -0.01441  -0.01302   1.87193
   A13        2.09933  -0.00100   0.00248  -0.00499  -0.00251   2.09682
   A14        1.84258   0.00270  -0.00210   0.01470   0.01263   1.85521
   A15        2.34127  -0.00170  -0.00037  -0.00970  -0.01011   2.33116
   A16        2.06786  -0.00146  -0.00103  -0.00568  -0.00669   2.06117
   A17        2.10730   0.00097   0.00039   0.00457   0.00496   2.11225
   A18        2.10803   0.00048   0.00063   0.00111   0.00173   2.10976
   A19        1.91776   0.00154   0.00096   0.00454   0.00548   1.92325
   A20        2.19998  -0.00028   0.00091   0.00018   0.00110   2.20108
   A21        2.16544  -0.00125  -0.00187  -0.00472  -0.00659   2.15886
   A22        1.87931  -0.00364   0.00090  -0.01618  -0.01529   1.86402
   A23        2.21579   0.00260  -0.00013   0.01320   0.01308   2.22887
   A24        2.18809   0.00104  -0.00077   0.00298   0.00222   2.19030
   A25        1.90017   0.00250  -0.00112   0.01136   0.01020   1.91037
   A26        2.09855  -0.00018  -0.00037   0.00214   0.00179   2.10034
   A27        2.28447  -0.00232   0.00148  -0.01350  -0.01199   2.27248
    D1        0.00001  -0.00000   0.00000  -0.00003  -0.00003  -0.00002
    D2       -3.14157  -0.00000  -0.00000  -0.00003  -0.00004   3.14158
    D3        3.14158   0.00000   0.00001  -0.00000   0.00000   3.14158
    D4        0.00000   0.00000   0.00000  -0.00001  -0.00001  -0.00001
    D5       -0.00006   0.00000  -0.00000   0.00013   0.00012   0.00006
    D6        3.14159  -0.00000   0.00001  -0.00004  -0.00003   3.14156
    D7        3.14155   0.00000  -0.00001   0.00010   0.00010  -3.14154
    D8        0.00002  -0.00000   0.00000  -0.00006  -0.00006  -0.00004
    D9        0.00007  -0.00000   0.00000  -0.00006  -0.00006   0.00001
   D10       -3.14158   0.00000  -0.00000   0.00001   0.00000  -3.14158
   D11       -3.14154  -0.00000   0.00001  -0.00005  -0.00005  -3.14159
   D12       -0.00000   0.00000  -0.00000   0.00002   0.00001   0.00001
   D13       -0.00009   0.00000  -0.00001   0.00005   0.00004  -0.00005
   D14       -3.14151  -0.00000  -0.00001  -0.00000  -0.00001  -3.14152
   D15        3.14156  -0.00000  -0.00000  -0.00002  -0.00002   3.14154
   D16        0.00013  -0.00000   0.00000  -0.00007  -0.00007   0.00006
   D17        0.00004   0.00000   0.00001   0.00005   0.00006   0.00009
   D18       -3.14154   0.00000  -0.00000   0.00009   0.00009  -3.14146
   D19        3.14149   0.00000   0.00001   0.00009   0.00010  -3.14159
   D20       -0.00009   0.00000  -0.00000   0.00013   0.00013   0.00004
   D21        3.14150   0.00000  -0.00004   0.00021   0.00017  -3.14152
   D22       -0.00087   0.00001   0.00002   0.00028   0.00030  -0.00056
   D23        0.00006  -0.00000  -0.00004   0.00016   0.00012   0.00018
   D24        3.14088   0.00001   0.00003   0.00023   0.00026   3.14113
   D25        0.00004  -0.00000  -0.00000  -0.00014  -0.00014  -0.00010
   D26        3.14157  -0.00000  -0.00001   0.00003   0.00002   3.14159
   D27       -3.14157  -0.00000   0.00001  -0.00019  -0.00018   3.14144
   D28       -0.00004  -0.00000   0.00000  -0.00003  -0.00002  -0.00006
   D29        0.00009  -0.00000   0.00005  -0.00036  -0.00032  -0.00023
   D30        3.14147   0.00000   0.00001   0.00008   0.00009   3.14156
   D31       -3.14149  -0.00000   0.00003  -0.00032  -0.00028   3.14141
   D32       -0.00011   0.00000  -0.00000   0.00013   0.00013   0.00002
   D33       -0.00000  -0.00000   0.00007  -0.00040  -0.00033  -0.00033
   D34        3.14158  -0.00000   0.00002  -0.00018  -0.00016   3.14142
   D35       -3.14084  -0.00001   0.00000  -0.00047  -0.00046  -3.14130
   D36        0.00074  -0.00001  -0.00004  -0.00025  -0.00029   0.00045
   D37       -0.00005   0.00000  -0.00007   0.00048   0.00040   0.00035
   D38        3.14155   0.00000  -0.00002   0.00023   0.00021  -3.14142
   D39       -3.14144  -0.00000  -0.00003   0.00004   0.00000  -3.14144
   D40        0.00017  -0.00000   0.00002  -0.00021  -0.00019  -0.00002
         Item               Value     Threshold  Converged?
 Maximum Force            0.012732     0.000450     NO 
 RMS     Force            0.002444     0.000300     NO 
 Maximum Displacement     0.028469     0.001800     NO 
 RMS     Displacement     0.007415     0.001200     NO 
 Predicted change in Energy=-7.443928D-04
 GradGradGradGradGradGradGradGradGradGradGradGradGradGradGradGradGradGrad

                          Input orientation:                          
 ---------------------------------------------------------------------
 Center     Atomic      Atomic             Coordinates (Angstroms)
[...]
 ! D9    D(1,2,3,4)              0.0034         -DE/DX =    0.0                 !
 ! D10   D(1,2,3,14)           180.0001         -DE/DX =    0.0                 !
 ! D11   D(13,2,3,4)           180.0031         -DE/DX =    0.0                 !
 ! D12   D(13,2,3,14)           -0.0002         -DE/DX =    0.0                 !
 ! D13   D(2,3,4,5)             -0.002          -DE/DX =    0.0                 !
 ! D14   D(2,3,4,7)            180.0            -DE/DX =    0.0                 !
 ! D15   D(14,3,4,5)           180.0013         -DE/DX =    0.0                 !
 ! D16   D(14,3,4,7)             0.0033         -DE/DX =    0.0                 !
 ! D17   D(3,4,5,6)             -0.0047         -DE/DX =    0.0                 !
 ! D18   D(3,4,5,8)           -180.0079         -DE/DX =    0.0                 !
 ! D19   D(7,4,5,6)           -180.0063         -DE/DX =    0.0                 !
 ! D20   D(7,4,5,8)             -0.0095         -DE/DX =    0.0                 !
 ! D21   D(3,4,7,9)           -180.0178         -DE/DX =    0.0                 !
 ! D22   D(3,4,7,10)             0.0005         -DE/DX =    0.0                 !
 ! D23   D(5,4,7,9)             -0.016          -DE/DX =    0.0                 !
 ! D24   D(5,4,7,10)           180.0023         -DE/DX =    0.0                 !
 ! D25   D(4,5,6,1)              0.0099         -DE/DX =    0.0                 !
 ! D26   D(4,5,6,16)          -180.0037         -DE/DX =    0.0                 !
 ! D27   D(8,5,6,1)            180.0141         -DE/DX =    0.0                 !
 ! D28   D(8,5,6,16)             0.0006         -DE/DX =    0.0                 !
 ! D29   D(4,5,8,9)              0.0294         -DE/DX =    0.0                 !
 ! D30   D(4,5,8,11)           179.9991         -DE/DX =    0.0                 !
 ! D31   D(6,5,8,9)            180.0255         -DE/DX =    0.0                 !
 ! D32   D(6,5,8,11)            -0.0048         -DE/DX =    0.0                 !
 ! D33   D(4,7,9,8)              0.0351         -DE/DX =    0.0                 !
 ! D34   D(4,7,9,12)           180.0103         -DE/DX =    0.0                 !
 ! D35   D(10,7,9,8)           180.0173         -DE/DX =    0.0                 !
 ! D36   D(10,7,9,12)           -0.0075         -DE/DX =    0.0                 !
 ! D37   D(5,8,9,7)             -0.0404         -DE/DX =    0.0                 !
 ! D38   D(5,8,9,12)          -180.0126         -DE/DX =    0.0                 !
 ! D39   D(11,8,9,7)          -180.0112         -DE/DX =    0.0                 !
 ! D40   D(11,8,9,12)            0.0166         -DE/DX =    0.0                 !
 --------------------------------------------------------------------------------
 GradGradGradGradGradGradGradGradGradGradGradGradGradGradGradGradGradGrad

                          Input orientation:                          
 ---------------------------------------------------------------------
 Center     Atomic      Atomic             Coordinates (Angstroms)
 Number     Number       Type             X           Y           Z
 ---------------------------------------------------------------------
      1          6           0       -2.147718    0.696370   -0.000085
      2          6           0       -2.103421   -0.691703    0.000030
      3          6           0       -0.902487   -1.400641    0.000106
      4          6           0        0.241277   -0.659338    0.000134
      5          6           0        0.230022    0.746061    0.000047
      6          6           0       -0.985841    1.432594   -0.000170
      7          7           0        1.571984   -1.057442    0.000205
      8          6           0        1.567883    1.156238    0.000292
      9          6           0        2.353002   -0.015920   -0.000173
     10          1           0        1.921035   -2.041482    0.000244
     11          1           0        1.957229    2.168323    0.000296
     12          1           0        3.433477   -0.130395   -0.000351
     13          1           0       -3.035303   -1.249520    0.000057
     14          1           0       -0.885439   -2.483578    0.000194
     15          1           0       -3.109147    1.199914   -0.000110
     16          1           0       -1.009651    2.517967   -0.000179
 ---------------------------------------------------------------------
                    Distance matrix (angstroms):
                    1          2          3          4          5
     1  C    0.000000
     2  C    1.388779   0.000000
     3  C    2.438863   1.394574   0.000000
     4  C    2.746860   2.344922   1.362985   0.000000
     5  C    2.378259   2.740825   2.427119   1.405444   0.000000
     6  C    1.375494   2.400338   2.834461   2.425283   1.396299
     7  N    4.112425   3.693558   2.498158   1.388981   2.247996
     8  C    3.743951   4.110153   3.555329   2.248599   1.399327
     9  C    4.556735   4.507371   3.537749   2.207571   2.255584
    10  H    4.904139   4.244779   2.895333   2.175295   3.260356
    11  H    4.360875   4.966752   4.573345   3.307590   2.237425
    12  H    5.642099   5.565277   4.518198   3.235726   3.321190
    13  H    2.138760   1.086077   2.138163   3.329308   3.826838
    14  H    3.421318   2.166633   1.083071   2.144142   3.416844
    15  H    1.085312   2.142358   3.410606   3.831730   3.369871
    16  H    2.147885   3.390916   3.920073   3.414687   2.162508
                    6          7          8          9         10
     6  C    0.000000
     7  N    3.569699   0.000000
     8  C    2.568634   2.213684   0.000000
     9  C    3.639515   1.301829   1.410803   0.000000
    10  H    4.529805   1.044112   3.217161   2.071110   0.000000
    11  H    3.033638   3.248688   1.084392   2.219809   4.209960
    12  H    4.687570   2.079561   2.266245   1.086522   2.437158
    13  H    3.375504   4.611289   5.193938   5.527712   5.019212
    14  H    3.917459   2.841266   4.389425   4.071467   2.841082
    15  H    2.136017   5.196984   4.677234   5.595831   5.984093
    16  H    1.085634   4.410033   2.915131   4.210466   5.420101
                   11         12         13         14         15
    11  H    0.000000
    12  H    2.731925   0.000000
    13  H    6.050374   6.564873   0.000000
    14  H    5.451692   4.918385   2.478873   0.000000
    15  H    5.158098   6.676500   2.450546   4.302672   0.000000
    16  H    2.987411   5.172544   4.277525   5.003087   2.478941
                   16
    16  H    0.000000
 Stoichiometry    C8H7N
 Framework group  C1[X(C8H7N)]
 Deg. of freedom    42
 Full point group                 C1      NOp   1
 Largest Abelian subgroup         C1      NOp   1
 Largest concise Abelian subgroup C1      NOp   1
                         Standard orientation:                         
 ---------------------------------------------------------------------
 Center     Atomic      Atomic             Coordinates (Angstroms)
 Number     Number       Type             X           Y           Z
 ---------------------------------------------------------------------
      1          6           0       -2.161553    0.638222   -0.000128
      2          6           0       -2.081463   -0.748246   -0.000013
      3          6           0       -0.862640   -1.425968    0.000063
      4          6           0        0.261620   -0.655405    0.000090
      5          6           0        0.214114    0.749236    0.000004
      6          6           0       -1.019055    1.404174   -0.000213
      7          7           0        1.602154   -1.019049    0.000162
      8          6           0        1.540948    1.193789    0.000249
      9          6           0        2.356044    0.042275   -0.000216
     10          1           0        1.976474   -1.993756    0.000200
     11          1           0        1.904055    2.215581    0.000253
     12          1           0        3.439113   -0.044289   -0.000394
     13          1           0       -2.998644   -1.329917    0.000014
     14          1           0       -0.817661   -2.508105    0.000151
     15          1           0       -3.135652    1.116796   -0.000154
     16          1           0       -1.070857    2.488572   -0.000222
 ---------------------------------------------------------------------
 Rotational constants (GHZ):           3.9544782           1.6724534           1.1753618

 **********************************************************************

            Population analysis using the CI Density.

 **********************************************************************

 Orbital symmetries:
       Occupied  (A) (A) (A) (A) (A) (A) (A) (A) (A) (A) (A) (A)
                 (A) (A) (A) (A) (A) (A) (A) (A) (A) (A) (A) (A)
                 (A) (A) (A) (A) (A) (A) (A)
       Virtual   (A) (A) (A) (A) (A) (A) (A) (A) (A) (A) (A) (A)
                 (A) (A) (A) (A) (A) (A) (A) (A) (A) (A) (A) (A)
                 (A) (A) (A) (A) (A) (A) (A) (A) (A) (A) (A) (A)
                 (A) (A) (A) (A) (A) (A) (A) (A) (A) (A) (A) (A)
                 (A) (A) (A) (A) (A) (A) (A) (A) (A) (A) (A) (A)
                 (A) (A) (A) (A) (A) (A) (A) (A) (A) (A) (A) (A)
                 (A) (A) (A) (A) (A) (A) (A) (A) (A) (A) (A) (A)
                 (A) (A) (A) (A) (A) (A) (A) (A) (A) (A) (A) (A)
                 (A) (A) (A) (A) (A) (A) (A) (A) (A) (A) (A) (A)
                 (A) (A) (A) (A) (A) (A) (A) (A) (A) (A) (A) (A)
                 (A) (A) (A) (A) (A) (A) (A) (A) (A) (A) (A) (A)
                 (A) (A) (A) (A) (A) (A) (A) (A) (A) (A) (A) (A)
                 (A) (A) (A) (A) (A) (A) (A) (A) (A) (A)
 The electronic state is 1-A.
 Alpha  occ. eigenvalues --  -14.29301 -10.17129 -10.16410 -10.13789 -10.13053
 Alpha  occ. eigenvalues --  -10.13025 -10.12942 -10.12663 -10.11706  -1.18130
 Alpha  occ. eigenvalues --   -1.03214  -0.95824  -0.91946  -0.88170  -0.79204
 Alpha  occ. eigenvalues --   -0.75289  -0.74115  -0.69726  -0.62622  -0.61882
 Alpha  occ. eigenvalues --   -0.59050  -0.58472  -0.57395  -0.53918  -0.52319
 Alpha  occ. eigenvalues --   -0.48598  -0.48344  -0.46436  -0.40626  -0.34376
 Alpha  occ. eigenvalues --   -0.29991
 Alpha virt. eigenvalues --    0.05183   0.05804   0.07235   0.07843   0.08955
 Alpha virt. eigenvalues --    0.09436   0.10196   0.11579   0.11643   0.11806
 Alpha virt. eigenvalues --    0.12440   0.12623   0.14684   0.15524   0.15736
 Alpha virt. eigenvalues --    0.15972   0.17623   0.18829   0.20221   0.20378
 Alpha virt. eigenvalues --    0.21267   0.22042   0.22559   0.23334   0.23851
 Alpha virt. eigenvalues --    0.24950   0.25447   0.25761   0.26555   0.27108
 Alpha virt. eigenvalues --    0.27981   0.28681   0.29339   0.29932   0.30646
 Alpha virt. eigenvalues --    0.31153   0.31519   0.32716   0.32745   0.33575
 Alpha virt. eigenvalues --    0.35151   0.35426   0.37384   0.38555   0.39382
 Alpha virt. eigenvalues --    0.41358   0.42201   0.43154   0.45408   0.46942
 Alpha virt. eigenvalues --    0.47982   0.51389   0.55557   0.57174   0.64266
 Alpha virt. eigenvalues --    0.71116   0.76101   0.78734   0.78950   0.81474
 Alpha virt. eigenvalues --    0.83817   0.84477   0.85203   0.85494   0.87458
 Alpha virt. eigenvalues --    0.87515   0.89630   0.89746   0.91490   0.92563
 Alpha virt. eigenvalues --    0.94313   0.97766   1.01158   1.01946   1.03572
 Alpha virt. eigenvalues --    1.06564   1.07054   1.08096   1.08184   1.11160
 Alpha virt. eigenvalues --    1.13453   1.15150   1.16643   1.16996   1.21546
 Alpha virt. eigenvalues --    1.24142   1.24806   1.30460   1.31153   1.34091
 Alpha virt. eigenvalues --    1.34943   1.37066   1.38236   1.45038   1.46664
 Alpha virt. eigenvalues --    1.48545   1.50602   1.55046   1.55699   1.58939
 Alpha virt. eigenvalues --    1.60637   1.61051   1.63899   1.64939   1.67685
 Alpha virt. eigenvalues --    1.72085   1.79131   1.91827   1.98998   2.04079
 Alpha virt. eigenvalues --    2.04603   2.06854   2.09332   2.14233   2.15217
 Alpha virt. eigenvalues --    2.16114   2.22125   2.25829   2.31049   2.31732
 Alpha virt. eigenvalues --    2.33447   2.35279   2.39952   2.41568   2.43129
 Alpha virt. eigenvalues --    2.45953   2.48025   2.54091   2.57780   2.61346
 Alpha virt. eigenvalues --    2.68808   2.73241   2.78724   2.79709   2.83977
 Alpha virt. eigenvalues --    2.85114   2.89129   2.97020   2.99451   3.01732
 Alpha virt. eigenvalues --    3.10895   3.13711   3.27321   3.41141   3.62595
 Alpha virt. eigenvalues --    4.29197   4.39697   4.42524   4.45156   4.49851
 Alpha virt. eigenvalues --    4.53675   4.61807   4.65702   4.93379
          Condensed to atoms (all electrons):
               1          2          3          4          5          6
     1  C   19.147647   4.736681  -0.181637 -12.532516  -6.060529 -11.082420
     2  C    4.736681  20.027249   8.876414 -22.852923   8.368504 -20.679033
     3  C   -0.181637   8.876414  30.742889 -30.403575  11.895688 -21.098342
     4  C  -12.532516 -22.852923 -30.403575  95.794872 -29.830529  37.834481
     5  C   -6.060529   8.368504  11.895688 -29.830529  68.198447 -22.907664
     6  C  -11.082420 -20.679033 -21.098342  37.834481 -22.907664  54.901252
     7  N   -0.394097  -0.545192  -3.049606   5.630800  -2.575827   1.359344
     8  C   20.056249  14.199758  18.248134 -71.110280 -41.417736 -17.475769
     9  C   -7.737821  -5.703586  -8.485540  33.547051  18.470490   4.955572
    10  H   -0.002938  -0.031765  -0.058764   0.006249   0.558326   0.006751
    11  H    0.002818  -0.000350   0.007372   0.005307   0.005343   0.004378
    12  H    0.005177  -0.000390   0.035192   0.084074  -0.163998  -0.006768
    13  H    0.087519   0.172718  -0.069168   0.116495  -0.060127   0.073836
    14  H    0.018387   0.025893   0.192364   0.138449  -0.086350   0.011101
    15  H    0.269667   0.086792   0.010287  -0.042508   0.032305  -0.049165
    16  H   -0.076381  -0.070436  -0.040252   0.167799   0.177979   0.284417
               7          8          9         10         11         12
     1  C   -0.394097  20.056249  -7.737821  -0.002938   0.002818   0.005177
     2  C   -0.545192  14.199758  -5.703586  -0.031765  -0.000350  -0.000390
     3  C   -3.049606  18.248134  -8.485540  -0.058764   0.007372   0.035192
     4  C    5.630800 -71.110280  33.547051   0.006249   0.005307   0.084074
     5  C   -2.575827 -41.417736  18.470490   0.558326   0.005343  -0.163998
     6  C    1.359344 -17.475769   4.955572   0.006751   0.004378  -0.006768
     7  N   14.486672 -22.356254  14.353084  -0.735409   0.004888  -0.084701
     8  C  -22.356254 222.370207-113.549288   1.501912   0.292717   0.370124
     9  C   14.353084-113.549288  68.295402  -1.051013  -0.006344   0.094093
    10  H   -0.735409   1.501912  -1.051013   0.404509  -0.000043   0.002214
    11  H    0.004888   0.292717  -0.006344  -0.000043   0.393904  -0.000257
    12  H   -0.084701   0.370124   0.094093   0.002214  -0.000257   0.349927
    13  H    0.002437  -0.019452   0.010446  -0.000015   0.000000  -0.000000
    14  H    0.016992  -0.032696   0.027186  -0.000398   0.000001   0.000002
    15  H   -0.000061   0.016313  -0.003236   0.000000  -0.000002  -0.000000
    16  H    0.001382  -0.204869   0.061582  -0.000002   0.001000  -0.000002
              13         14         15         16
     1  C    0.087519   0.018387   0.269667  -0.076381
     2  C    0.172718   0.025893   0.086792  -0.070436
     3  C   -0.069168   0.192364   0.010287  -0.040252
     4  C    0.116495   0.138449  -0.042508   0.167799
     5  C   -0.060127  -0.086350   0.032305   0.177979
     6  C    0.073836   0.011101  -0.049165   0.284417
     7  N    0.002437   0.016992  -0.000061   0.001382
     8  C   -0.019452  -0.032696   0.016313  -0.204869
     9  C    0.010446   0.027186  -0.003236   0.061582
    10  H   -0.000015  -0.000398   0.000000  -0.000002
    11  H    0.000000   0.000001  -0.000002   0.001000
    12  H   -0.000000   0.000002  -0.000000  -0.000002
    13  H    0.435699  -0.002135  -0.003097  -0.000097
    14  H   -0.002135   0.400462  -0.000092   0.000013
    15  H   -0.003097  -0.000092   0.439092  -0.002549
    16  H   -0.000097   0.000013  -0.002549   0.438660
 Mulliken charges:
               1
     1  C   -0.255808
     2  C   -0.610335
     3  C   -0.621456
     4  C   -0.553245
     5  C    1.395678
     6  C   -0.131971
     7  N    0.885548
     8  C   -4.889070
     9  C    2.721921
    10  H    0.400387
    11  H    0.289267
    12  H    0.315313
    13  H    0.254942
    14  H    0.290823
    15  H    0.246252
    16  H    0.261754
 Sum of Mulliken charges =  -0.00000
 Mulliken charges with hydrogens summed into heavy atoms:
               1
     1  C   -0.009556
     2  C   -0.355393
     3  C   -0.330633
     4  C   -0.553245
     5  C    1.395678
     6  C    0.129784
     7  N    1.285936
     8  C   -4.599804
     9  C    3.037234
 Electronic spatial extent (au):  <R**2>=           1024.4894
 Charge=             -0.0000 electrons
 Dipole moment (field-independent basis, Debye):
    X=             -6.1829    Y=              5.1319    Z=             -0.0003  Tot=              8.0352
 Quadrupole moment (field-independent basis, Debye-Ang):
   XX=            -65.0971   YY=            -60.2525   ZZ=            -66.5902
   XY=             14.0380   XZ=              0.0021   YZ=             -0.0014
 Traceless Quadrupole moment (field-independent basis, Debye-Ang):
   XX=             -1.1171   YY=              3.7274   ZZ=             -2.6103
   XY=             14.0380   XZ=              0.0021   YZ=             -0.0014
 Octapole moment (field-independent basis, Debye-Ang**2):
  XXX=           -125.8159  YYY=             58.4207  ZZZ=             -0.0020  XYY=            -45.1175
  XXY=             45.6228  XXZ=              0.0105  XZZ=            -22.1423  YZZ=             16.6712
  YYZ=             -0.0019  XYZ=             -0.0053
 Hexadecapole moment (field-independent basis, Debye-Ang**3):
 XXXX=          -1358.7558 YYYY=           -622.0255 ZZZZ=           -147.9628 XXXY=            190.1438
 XXXZ=              0.0462 YYYX=            121.8170 YYYZ=              0.0066 ZZZX=              0.0016
 ZZZY=              0.0052 XXYY=           -339.1430 XXZZ=           -257.2644 YYZZ=           -145.4416
 XXYZ=             -0.0239 YYXZ=              0.0119 ZZXY=             35.8149
 N-N= 4.041519549157D+02 E-N=-1.646110204455D+03  KE= 3.593781352385D+02
 Unable to Open any file for archive entry.
 1\1\GINC-EXP-2-56\FOpt\RLC-PBEPBE TD-FC\6-31+G(d)\C8H7N1\CWALDT\23-Jun
 -2021\0\\# td= (nstates=6, root=3) LC-PBEPBE/6-31+G* Opt density=curre
 nt\\FuncsLC-PBEPBE-V-3rd\\0,1\C,-2.1477176162,0.6963695813,-0.00008476
 47\C,-2.1034211821,-0.6917027298,0.0000299438\C,-0.9024873548,-1.40064
 12179,0.000105889\C,0.241277225,-0.6593377821,0.0001335007\C,0.2300223
 098,0.7460609814,0.0000473862\C,-0.9858410164,1.4325941873,-0.00016998
 28\N,1.5719840392,-1.0574423993,0.0002048564\C,1.5678832239,1.15623777
 79,0.0002919248\C,2.3530024435,-0.0159199362,-0.0001730467\H,1.9210347
 817,-2.0414820483,0.0002435156\H,1.957228817,2.168322694,0.0002960699\
 H,3.4334774203,-0.1303950124,-0.0003508244\H,-3.0353027955,-1.24951993
 95,0.0000574637\H,-0.8854393453,-2.4835784705,0.0001936819\H,-3.109146
 939,1.1999135791,-0.0001104904\H,-1.009651011,2.517966735,-0.000179122
 9\\Version=AS64L-G16RevC.01\State=1-A\HF=-362.5469486\RMSD=7.661e-09\R
 MSF=1.042e-04\Dipole=-2.4325503,2.0190522,-0.0001015\Quadrupole=-0.830
 5654,2.7712363,-1.9406709,10.4368724,0.0015562,-0.0010337\PG=C01 [X(C8
 H7N1)]\\@
 The archive entry for this job was punched.


 MY GROUP MEETINGS AREN'T VERY STRUCTURED.
     -- PROF. M. S. GORDON, OCT. 5, 1984
 Job cpu time:       0 days  3 hours 38 minutes 20.6 seconds.
 Elapsed time:       0 days  0 hours 55 minutes 23.0 seconds.
 File lengths (MBytes):  RWF=    238 Int=      0 D2E=      0 Chk=     11 Scr=      1
 Normal termination of Gaussian 16 at Wed Jun 23 08:44:17 2021.
