 Entering Gaussian System, Link 0=/opt/gaussian/16.C.01/g16/g16
 Initial command:
 /opt/gaussian/16.C.01/g16/l1.exe "/scratch/scaparas/38465410/Gau-30617.inp" -scrdir="/scratch/scaparas/38465410/"
 Entering Link 1 = /opt/gaussian/16.C.01/g16/l1.exe PID=     30618.
  
 Copyright (c) 1988-2019, Gaussian, Inc.  All Rights Reserved.
  
 This is part of the Gaussian(R) 16 program.  It is based on
 the Gaussian(R) 09 system (copyright 2009, Gaussian, Inc.),
 the Gaussian(R) 03 system (copyright 2003, Gaussian, Inc.),
 the Gaussian(R) 98 system (copyright 1998, Gaussian, Inc.),
 the Gaussian(R) 94 system (copyright 1995, Gaussian, Inc.),
 the Gaussian 92(TM) system (copyright 1992, Gaussian, Inc.),
 the Gaussian 90(TM) system (copyright 1990, Gaussian, Inc.),
 the Gaussian 88(TM) system (copyright 1988, Gaussian, Inc.),
 the Gaussian 86(TM) system (copyright 1986, Carnegie Mellon
 University), and the Gaussian 82(TM) system (copyright 1983,
 Carnegie Mellon University). Gaussian is a federally registered
 trademark of Gaussian, Inc.
  
 This software contains proprietary and confidential information,
 including trade secrets, belonging to Gaussian, Inc.
  
 This software is provided under written license and may be
 used, copied, transmitted, or stored only in accord with that
 written license.
  
 The following legend is applicable only to US Government
 contracts under FAR:
  
                    RESTRICTED RIGHTS LEGEND
  
 Use, reproduction and disclosure by the US Government is
 subject to restrictions as set forth in subparagraphs (a)
 and (c) of the Commercial Computer Software - Restricted
 Rights clause in FAR 52.227-19.
  
 Gaussian, Inc.
 340 Quinnipiac St., Bldg. 40, Wallingford CT 06492
  
  
 ---------------------------------------------------------------
 Warning -- This program may not be used in any manner that
 competes with the business of Gaussian, Inc. or will provide
 assistance to any competitor of Gaussian, Inc.  The licensee
 of this program is prohibited from giving any competitor of
 Gaussian, Inc. access to this program.  By using this program,
 the user acknowledges that Gaussian, Inc. is engaged in the
 business of creating and licensing software in the field of
 computational chemistry and represents and warrants to the
 licensee that it is not a competitor of Gaussian, Inc. and that
 it will not use this program in any manner prohibited above.
 ---------------------------------------------------------------
  

 Cite this work as:
 Gaussian 16, Revision C.01,
 M. J. Frisch, G. W. Trucks, H. B. Schlegel, G. E. Scuseria, 
 M. A. Robb, J. R. Cheeseman, G. Scalmani, V. Barone, 
 G. A. Petersson, H. Nakatsuji, X. Li, M. Caricato, A. V. Marenich, 
 J. Bloino, B. G. Janesko, R. Gomperts, B. Mennucci, H. P. Hratchian, 
 J. V. Ortiz, A. F. Izmaylov, J. L. Sonnenberg, D. Williams-Young, 
 F. Ding, F. Lipparini, F. Egidi, J. Goings, B. Peng, A. Petrone, 
 T. Henderson, D. Ranasinghe, V. G. Zakrzewski, J. Gao, N. Rega, 
 G. Zheng, W. Liang, M. Hada, M. Ehara, K. Toyota, R. Fukuda, 
 J. Hasegawa, M. Ishida, T. Nakajima, Y. Honda, O. Kitao, H. Nakai, 
 T. Vreven, K. Throssell, J. A. Montgomery, Jr., J. E. Peralta, 
 F. Ogliaro, M. J. Bearpark, J. J. Heyd, E. N. Brothers, K. N. Kudin, 
 V. N. Staroverov, T. A. Keith, R. Kobayashi, J. Normand, 
 K. Raghavachari, A. P. Rendell, J. C. Burant, S. S. Iyengar, 
 J. Tomasi, M. Cossi, J. M. Millam, M. Klene, C. Adamo, R. Cammi, 
 J. W. Ochterski, R. L. Martin, K. Morokuma, O. Farkas, 
 J. B. Foresman, and D. J. Fox, Gaussian, Inc., Wallingford CT, 2019.
 
 ******************************************
 Gaussian 16:  ES64L-G16RevC.01  3-Jul-2019
                15-Feb-2021 
 ******************************************
 %NProcShared=2
 Will use up to    2 processors via shared memory.
 %Chk=FuncsAPFD.chk
 -----------------------------------------------------------
 # td= (nstates=6, root=1) APFD/6-31G(d) Opt density=current
 -----------------------------------------------------------
 1/18=20,19=15,26=3,38=1/1,3;
 2/9=110,12=2,17=6,18=5,40=1/2;
 3/5=1,6=6,7=1,11=9,25=1,30=1,71=1,74=-44/1,2,3,8;
 4//1;
 5/5=2,38=5/2;
 8/6=1,10=2,107=1,108=6/1;
 9/8=1,15=2,41=6,42=1,70=2/14;
 10/5=4,28=1/2;
 6/7=2,8=2,9=2,10=2,22=-1/1;
 7/12=6,13=5,14=1/1,2,3,16;
 1/18=20,19=15,26=3/3(2);
 2/9=110/2;
 99//99;
 2/9=110/2;
 3/5=1,6=6,7=1,11=9,25=1,30=1,71=1,74=-44/1,2,3,8;
 4/5=5,16=3,69=1/1;
 5/5=2,38=5/2;
 8/6=1,10=2,107=1,108=6/1;
 9/8=1,15=2,41=6,42=1,49=4,70=2/14;
 10/5=4,28=1/2;
 7/12=6,13=5,14=1/1,2,3,16;
 1/18=20,19=15,26=3/3(-8);
 2/9=110/2;
 6/7=2,8=2,9=2,10=2,22=-1/1;
 99/9=10/99;
 ---------
 FuncsAPFD
 ---------
 Symbolic Z-matrix:
 Charge =  0 Multiplicity = 1
 C                    -2.15936   0.69162   0.00011 
 C                    -2.13588  -0.71874  -0.00002 
 C                    -0.93512  -1.41882  -0.00005 
 C                     0.24791  -0.67197  -0.00001 
 C                     0.24999   0.75191  -0.00006 
 C                    -0.98269   1.42884  -0.00006 
 N                     1.56678  -1.08097  -0.00025 
 C                     1.62599   1.16698  -0.0001 
 C                     2.39038   0.03047   0.00027 
 H                     1.88117  -2.03854   0.00076 
 H                     1.99815   2.18234  -0.00037 
 H                     3.46533  -0.08657   0.0004 
 H                    -3.07324  -1.26832   0.00023 
 H                    -0.91789  -2.50582  -0.00015 
 H                    -3.11663   1.20635   0.00023 
 H                    -1.01169   2.51556   0.00019 
 

 GradGradGradGradGradGradGradGradGradGradGradGradGradGradGradGradGradGrad
 Berny optimization.
 Initialization pass.
                           ----------------------------
                           !    Initial Parameters    !
                           ! (Angstroms and Degrees)  !
 --------------------------                            --------------------------
 ! Name  Definition              Value          Derivative Info.                !
 --------------------------------------------------------------------------------
 ! R1    R(1,2)                  1.4106         estimate D2E/DX2                !
 ! R2    R(1,6)                  1.3885         estimate D2E/DX2                !
 ! R3    R(1,15)                 1.0869         estimate D2E/DX2                !
 ! R4    R(2,3)                  1.3899         estimate D2E/DX2                !
 ! R5    R(2,13)                 1.0866         estimate D2E/DX2                !
 ! R6    R(3,4)                  1.3991         estimate D2E/DX2                !
 ! R7    R(3,14)                 1.0871         estimate D2E/DX2                !
 ! R8    R(4,5)                  1.4239         estimate D2E/DX2                !
 ! R9    R(4,7)                  1.3808         estimate D2E/DX2                !
 ! R10   R(5,6)                  1.4063         estimate D2E/DX2                !
 ! R11   R(5,8)                  1.4372         estimate D2E/DX2                !
 ! R12   R(6,16)                 1.0871         estimate D2E/DX2                !
 ! R13   R(7,9)                  1.3833         estimate D2E/DX2                !
 ! R14   R(7,10)                 1.0079         estimate D2E/DX2                !
 ! R15   R(8,9)                  1.3697         estimate D2E/DX2                !
 ! R16   R(8,11)                 1.0814         estimate D2E/DX2                !
 ! R17   R(9,12)                 1.0813         estimate D2E/DX2                !
 ! A1    A(2,1,6)              121.1146         estimate D2E/DX2                !
 ! A2    A(2,1,15)             119.221          estimate D2E/DX2                !
 ! A3    A(6,1,15)             119.6644         estimate D2E/DX2                !
 ! A4    A(1,2,3)              121.1973         estimate D2E/DX2                !
 ! A5    A(1,2,13)             119.4296         estimate D2E/DX2                !
 ! A6    A(3,2,13)             119.3731         estimate D2E/DX2                !
 ! A7    A(2,3,4)              117.4922         estimate D2E/DX2                !
 ! A8    A(2,3,14)             121.1516         estimate D2E/DX2                !
 ! A9    A(4,3,14)             121.3562         estimate D2E/DX2                !
 ! A10   A(3,4,5)              122.348          estimate D2E/DX2                !
 ! A11   A(3,4,7)              130.5063         estimate D2E/DX2                !
 ! A12   A(5,4,7)              107.1457         estimate D2E/DX2                !
 ! A13   A(4,5,6)              118.6898         estimate D2E/DX2                !
 ! A14   A(4,5,8)              106.8696         estimate D2E/DX2                !
 ! A15   A(6,5,8)              134.4406         estimate D2E/DX2                !
 ! A16   A(1,6,5)              119.1581         estimate D2E/DX2                !
 ! A17   A(1,6,16)             120.5398         estimate D2E/DX2                !
 ! A18   A(5,6,16)             120.3021         estimate D2E/DX2                !
 ! A19   A(4,7,9)              109.3098         estimate D2E/DX2                !
 ! A20   A(4,7,10)             125.4054         estimate D2E/DX2                !
 ! A21   A(9,7,10)             125.2847         estimate D2E/DX2                !
 ! A22   A(5,8,9)              107.1379         estimate D2E/DX2                !
 ! A23   A(5,8,11)             126.9153         estimate D2E/DX2                !
 ! A24   A(9,8,11)             125.9467         estimate D2E/DX2                !
 ! A25   A(7,9,8)              109.5369         estimate D2E/DX2                !
 ! A26   A(7,9,12)             120.3254         estimate D2E/DX2                !
 ! A27   A(8,9,12)             130.1377         estimate D2E/DX2                !
 ! D1    D(6,1,2,3)              0.0131         estimate D2E/DX2                !
 ! D2    D(6,1,2,13)           179.9933         estimate D2E/DX2                !
 ! D3    D(15,1,2,3)          -179.994          estimate D2E/DX2                !
 ! D4    D(15,1,2,13)           -0.0138         estimate D2E/DX2                !
 ! D5    D(2,1,6,5)             -0.0143         estimate D2E/DX2                !
 ! D6    D(2,1,6,16)          -179.991          estimate D2E/DX2                !
 ! D7    D(15,1,6,5)           179.9928         estimate D2E/DX2                !
 ! D8    D(15,1,6,16)            0.0162         estimate D2E/DX2                !
 ! D9    D(1,2,3,4)             -0.0029         estimate D2E/DX2                !
 ! D10   D(1,2,3,14)           180.0            estimate D2E/DX2                !
 ! D11   D(13,2,3,4)          -179.9831         estimate D2E/DX2                !
 ! D12   D(13,2,3,14)            0.0198         estimate D2E/DX2                !
 ! D13   D(2,3,4,5)             -0.0057         estimate D2E/DX2                !
 ! D14   D(2,3,4,7)           -179.9877         estimate D2E/DX2                !
 ! D15   D(14,3,4,5)           179.9914         estimate D2E/DX2                !
 ! D16   D(14,3,4,7)             0.0093         estimate D2E/DX2                !
 ! D17   D(3,4,5,6)              0.0043         estimate D2E/DX2                !
 ! D18   D(3,4,5,8)           -179.9957         estimate D2E/DX2                !
 ! D19   D(7,4,5,6)            179.9901         estimate D2E/DX2                !
 ! D20   D(7,4,5,8)             -0.01           estimate D2E/DX2                !
 ! D21   D(3,4,7,9)           -179.9844         estimate D2E/DX2                !
 ! D22   D(3,4,7,10)            -0.0882         estimate D2E/DX2                !
 ! D23   D(5,4,7,9)              0.0315         estimate D2E/DX2                !
 ! D24   D(5,4,7,10)           179.9277         estimate D2E/DX2                !
 ! D25   D(4,5,6,1)              0.0057         estimate D2E/DX2                !
 ! D26   D(4,5,6,16)           179.9824         estimate D2E/DX2                !
 ! D27   D(8,5,6,1)           -179.9942         estimate D2E/DX2                !
 ! D28   D(8,5,6,16)            -0.0175         estimate D2E/DX2                !
 ! D29   D(4,5,8,9)             -0.0151         estimate D2E/DX2                !
 ! D30   D(4,5,8,11)           179.9849         estimate D2E/DX2                !
 ! D31   D(6,5,8,9)            179.9849         estimate D2E/DX2                !
 ! D32   D(6,5,8,11)            -0.0151         estimate D2E/DX2                !
 ! D33   D(4,7,9,8)             -0.0422         estimate D2E/DX2                !
 ! D34   D(4,7,9,12)           179.9865         estimate D2E/DX2                !
 ! D35   D(10,7,9,8)          -179.9385         estimate D2E/DX2                !
 ! D36   D(10,7,9,12)            0.0902         estimate D2E/DX2                !
 ! D37   D(5,8,9,7)              0.0348         estimate D2E/DX2                !
 ! D38   D(5,8,9,12)          -179.9976         estimate D2E/DX2                !
 ! D39   D(11,8,9,7)          -179.9652         estimate D2E/DX2                !
 ! D40   D(11,8,9,12)            0.0024         estimate D2E/DX2                !
 --------------------------------------------------------------------------------
 Trust Radius=3.00D-01 FncErr=1.00D-07 GrdErr=1.00D-06 EigMax=2.50D+02 EigMin=1.00D-04
 Number of steps in this run=     94 maximum allowed number of steps=    100.
 GradGradGradGradGradGradGradGradGradGradGradGradGradGradGradGradGradGrad

                          Input orientation:                          
 ---------------------------------------------------------------------
 Center     Atomic      Atomic             Coordinates (Angstroms)
 Number     Number       Type             X           Y           Z
 ---------------------------------------------------------------------
      1          6           0       -2.159360    0.691620    0.000110
      2          6           0       -2.135880   -0.718740   -0.000020
      3          6           0       -0.935120   -1.418820   -0.000050
      4          6           0        0.247910   -0.671970   -0.000010
      5          6           0        0.249990    0.751910   -0.000060
      6          6           0       -0.982690    1.428840   -0.000060
      7          7           0        1.566780   -1.080970   -0.000250
      8          6           0        1.625990    1.166980   -0.000100
      9          6           0        2.390380    0.030470    0.000270
     10          1           0        1.881170   -2.038540    0.000760
     11          1           0        1.998150    2.182340   -0.000370
     12          1           0        3.465330   -0.086570    0.000400
     13          1           0       -3.073240   -1.268320    0.000230
     14          1           0       -0.917890   -2.505820   -0.000150
     15          1           0       -3.116630    1.206350    0.000230
     16          1           0       -1.011690    2.515560    0.000190
 ---------------------------------------------------------------------
                    Distance matrix (angstroms):
                    1          2          3          4          5
     1  C    0.000000
     2  C    1.410555   0.000000
     3  C    2.439820   1.389941   0.000000
     4  C    2.766645   2.384249   1.399051   0.000000
     5  C    2.410104   2.802711   2.473167   1.423882   0.000000
     6  C    1.388541   2.437611   2.848057   2.434703   1.406319
     7  N    4.126281   3.720336   2.524608   1.380833   2.256853
     8  C    3.815081   4.208041   3.639457   2.298008   1.437240
     9  C    4.597527   4.587848   3.627588   2.254684   2.258704
    10  H    4.876439   4.228305   2.883668   2.129566   3.232238
    11  H    4.416688   5.050393   4.644613   3.348197   2.258804
    12  H    5.678267   5.636771   4.597701   3.270242   3.322869
    13  H    2.162531   1.086592   2.143410   3.374266   3.889111
    14  H    3.429996   2.162673   1.087137   2.173038   3.460744
    15  H    1.086882   2.160519   3.413283   3.853338   3.397153
    16  H    2.154972   3.424106   3.935125   3.427381   2.168478
                    6          7          8          9         10
     6  C    0.000000
     7  N    3.577561   0.000000
     8  C    2.621790   2.248730   0.000000
     9  C    3.651444   1.383335   1.369652   0.000000
    10  H    4.497157   1.007860   3.215661   2.130750   0.000000
    11  H    3.074601   3.291697   1.081415   2.187325   4.222501
    12  H    4.699080   2.143204   2.225884   1.081303   2.513911
    13  H    3.412488   4.643801   5.292773   5.615870   5.013922
    14  H    3.935194   2.864225   4.467749   4.168623   2.837796
    15  H    2.145507   5.212117   4.742783   5.631150   5.958802
    16  H    1.087107   4.425329   2.962435   4.213046   5.395226
                   11         12         13         14         15
    11  H    0.000000
    12  H    2.701957   0.000000
    13  H    6.134008   6.644504   0.000000
    14  H    5.521063   5.006535   2.485345   0.000000
    15  H    5.207066   6.707745   2.475050   4.314471   0.000000
    16  H    3.028229   5.178300   4.309030   5.022256   2.478871
                   16
    16  H    0.000000
 Stoichiometry    C8H7N
 Framework group  C1[X(C8H7N)]
 Deg. of freedom    42
 Full point group                 C1      NOp   1
 Largest Abelian subgroup         C1      NOp   1
 Largest concise Abelian subgroup C1      NOp   1
                         Standard orientation:                         
 ---------------------------------------------------------------------
 Center     Atomic      Atomic             Coordinates (Angstroms)
 Number     Number       Type             X           Y           Z
 ---------------------------------------------------------------------
      1          6           0       -2.159361    0.691618    0.000110
      2          6           0       -2.135879   -0.718742   -0.000020
      3          6           0       -0.935118   -1.418820   -0.000050
      4          6           0        0.247911   -0.671969   -0.000010
      5          6           0        0.249989    0.751911   -0.000060
      6          6           0       -0.982691    1.428840   -0.000060
      7          7           0        1.566782   -1.080967   -0.000250
      8          6           0        1.625989    1.166983   -0.000100
      9          6           0        2.390380    0.030474    0.000270
     10          1           0        1.881173   -2.038537    0.000760
     11          1           0        1.998148    2.182343   -0.000370
     12          1           0        3.465330   -0.086565    0.000400
     13          1           0       -3.073238   -1.268323    0.000230
     14          1           0       -0.917887   -2.505820   -0.000150
     15          1           0       -3.116631    1.206347    0.000230
     16          1           0       -1.011693    2.515560    0.000190
 ---------------------------------------------------------------------
 Rotational constants (GHZ):           3.8785006           1.6312482           1.1482914
 Standard basis: 6-31G(d) (6D, 7F)
 There are   149 symmetry adapted cartesian basis functions of A   symmetry.
 There are   149 symmetry adapted basis functions of A   symmetry.
   149 basis functions,   280 primitive gaussians,   149 cartesian basis functions
    31 alpha electrons       31 beta electrons
       nuclear repulsion energy       399.8542490966 Hartrees.
 NAtoms=   16 NActive=   16 NUniq=   16 SFac= 1.00D+00 NAtFMM=   60 NAOKFM=F Big=F
 Integral buffers will be    131072 words long.
 Regular integral format.
 Two-electron integral symmetry is turned on.
 R6APFD:  NTU= -4 IXU= 1 FactS= 1.050
 Nuclear repulsion after empirical dispersion term =      399.8468435641 Hartrees.
 One-electron integrals computed using PRISM.
 NBasis=   149 RedAO= T EigKep=  4.06D-04  NBF=   149
 NBsUse=   149 1.00D-06 EigRej= -1.00D+00 NBFU=   149
 ExpMin= 1.61D-01 ExpMax= 4.17D+03 ExpMxC= 6.27D+02 IAcc=3 IRadAn=         5 AccDes= 0.00D+00
 Harris functional with IExCor= 3731 and IRadAn=       5 diagonalized for initial guess.
 HarFok:  IExCor= 3731 AccDes= 0.00D+00 IRadAn=         5 IDoV= 1 UseB2=F ITyADJ=14
 ICtDFT=  3500011 ScaDFX=  1.000000  1.000000  1.000000  1.000000
 FoFCou: FMM=F IPFlag=           0 FMFlag=      100000 FMFlg1=           0
         NFxFlg=           0 DoJE=T BraDBF=F KetDBF=T FulRan=T
         wScrn=  0.000000 ICntrl=       500 IOpCl=  0 I1Cent=   200000004 NGrid=           0
         NMat0=    1 NMatS0=      1 NMatT0=    0 NMatD0=    1 NMtDS0=    0 NMtDT0=    0
 Petite list used in FoFCou.
 Keep R1 ints in memory in canonical form, NReq=64400683.
 Requested convergence on RMS density matrix=1.00D-08 within 128 cycles.
 Requested convergence on MAX density matrix=1.00D-06.
 Requested convergence on             energy=1.00D-06.
 No special actions if energy rises.
 Integral accuracy reduced to 1.0D-05 until final iterations.
 Initial convergence to 1.0D-05 achieved.  Increase integral accuracy.
 SCF Done:  E(RAPFD) =  -363.518094167     A.U. after   14 cycles
            NFock= 14  Conv=0.48D-08     -V/T= 2.0095
 DoSCS=F DFT=T ScalE2(SS,OS)=  1.000000  1.000000
 ExpMin= 1.61D-01 ExpMax= 4.17D+03 ExpMxC= 6.27D+02 IAcc=3 IRadAn=         5 AccDes= 0.00D+00
 HarFok:  IExCor=  205 AccDes= 0.00D+00 IRadAn=         5 IDoV=-2 UseB2=F ITyADJ=14
 ICtDFT= 12500011 ScaDFX=  1.000000  1.000000  1.000000  1.000000
 Range of M.O.s used for correlation:    10   149
 NBasis=   149 NAE=    31 NBE=    31 NFC=     9 NFV=     0
 NROrb=    140 NOA=    22 NOB=    22 NVA=   118 NVB=   118

 **** Warning!!: The largest alpha MO coefficient is  0.10540633D+02

 Orbital symmetries:
       Occupied  (A) (A) (A) (A) (A) (A) (A) (A) (A) (A) (A) (A)
                 (A) (A) (A) (A) (A) (A) (A) (A) (A) (A) (A) (A)
                 (A) (A) (A) (A) (A) (A) (A)
       Virtual   (A) (A) (A) (A) (A) (A) (A) (A) (A) (A) (A) (A)
                 (A) (A) (A) (A) (A) (A) (A) (A) (A) (A) (A) (A)
                 (A) (A) (A) (A) (A) (A) (A) (A) (A) (A) (A) (A)
                 (A) (A) (A) (A) (A) (A) (A) (A) (A) (A) (A) (A)
                 (A) (A) (A) (A) (A) (A) (A) (A) (A) (A) (A) (A)
                 (A) (A) (A) (A) (A) (A) (A) (A) (A) (A) (A) (A)
                 (A) (A) (A) (A) (A) (A) (A) (A) (A) (A) (A) (A)
                 (A) (A) (A) (A) (A) (A) (A) (A) (A) (A) (A) (A)
                 (A) (A) (A) (A) (A) (A) (A) (A) (A) (A) (A) (A)
                 (A) (A) (A) (A) (A) (A) (A) (A) (A) (A)
    24 initial guesses have been made.
 Convergence on wavefunction:    0.000001000000000
 Iteration     1 Dimension    24 NMult     0 NNew     24
 CISAX will form    24 AO SS matrices at one time.
 New state      1 was old state      2
 New state      2 was old state      1
 New state      3 was old state      5
 New state      4 was old state      7
 New state      5 was old state     10
 New state      6 was old state      9
 Iteration     2 Dimension    36 NMult    24 NNew     12
 New state      4 was old state      5
 New state      5 was old state      4
 New state      6 was old state      7
 Iteration     3 Dimension    48 NMult    36 NNew     12
 New state      5 was old state      6
 New state      6 was old state      5
 Iteration     4 Dimension    60 NMult    48 NNew     12
 Iteration     5 Dimension    72 NMult    60 NNew     12
 Iteration     6 Dimension    84 NMult    72 NNew     12
 Iteration     7 Dimension    96 NMult    84 NNew     12
 Iteration     8 Dimension   108 NMult    96 NNew     12
 Iteration     9 Dimension   116 NMult   108 NNew      8
 Iteration    10 Dimension   124 NMult   116 NNew      8
 Iteration    11 Dimension   128 NMult   124 NNew      4
 Iteration    12 Dimension   130 NMult   128 NNew      2
 ***********************************************************************
 Excited states from <AA,BB:AA,BB> singles matrix:
 ***********************************************************************
 
 Ground to excited state transition densities written to RWF  633
 Ground to excited state transition electric dipole moments (Au):
       state          X           Y           Z        Dip. S.      Osc.
         1        -0.3825      0.6310     -0.0001      0.5445      0.0661
         2        -0.5883      0.0215     -0.0002      0.3465      0.0431
         3        -1.4535     -0.5243     -0.0001      2.3876      0.3704
         4         1.4792      0.1244     -0.0001      2.2036      0.3589
         5         0.6677     -0.9573      0.0001      1.3623      0.2309
         6        -0.0038      0.0016      0.0259      0.0007      0.0001
 Ground to excited state transition velocity dipole moments (Au):
       state          X           Y           Z        Dip. S.      Osc.
         1         0.0629     -0.1263      0.0000      0.0199      0.0728
         2         0.1045     -0.0056      0.0000      0.0110      0.0392
         3         0.3346      0.1262      0.0000      0.1279      0.3664
         4        -0.3530     -0.0293      0.0000      0.1255      0.3424
         5        -0.1713      0.2460     -0.0001      0.0899      0.2356
         6         0.0010     -0.0004     -0.0197      0.0004      0.0010
 Ground to excited state transition magnetic dipole moments (Au):
       state          X           Y           Z
         1         0.0002      0.0001      0.0724
         2        -0.0000     -0.0001     -0.0235
         3        -0.0001     -0.0001     -0.4714
         4         0.0001      0.0001      0.2196
         5         0.0004      0.0002     -0.0002
         6         0.1966      0.0117      0.0011
 Ground to excited state transition velocity quadrupole moments (Au):
       state          XX          YY          ZZ          XY          XZ          YZ
         1         0.1495     -0.0785     -0.0088     -0.0240     -0.0000      0.0001
         2         0.1049     -0.1564      0.0062      0.0010      0.0001     -0.0000
         3         0.1501     -0.0887     -0.0053     -0.3294      0.0001     -0.0001
         4         0.2713     -0.0319      0.0340      0.0528     -0.0001      0.0001
         5         0.3469      0.0381      0.0250     -0.2037     -0.0003      0.0003
         6        -0.0018     -0.0000     -0.0001      0.0011     -0.0629      0.1230
 <0|del|b> * <b|rxdel|0> + <0|del|b> * <b|delr+rdel|0>
 Rotatory Strengths (R) in cgs (10**-40 erg-esu-cm/Gauss)
       state          XX          YY          ZZ    R(velocity)    E-M Angle
         1        -0.0453      0.0338     -0.0116     -0.0077       90.00
         2         0.0006     -0.0126     -0.0058     -0.0059       90.00
         3        -0.0764     -0.1003     -0.0149     -0.0639       90.00
         4        -0.0011     -0.0941      0.0412     -0.0180       90.00
         5         0.1723     -0.1891     -0.0458     -0.0208       90.00
         6        -0.1017      0.4418      0.1306      0.1569       87.48
 1/2[<0|r|b>*<b|rxdel|0> + (<0|rxdel|b>*<b|r|0>)*]
 Rotatory Strengths (R) in cgs (10**-40 erg-esu-cm/Gauss)
       state          XX          YY          ZZ     R(length)
         1         0.0543     -0.0664      0.0037     -0.0028
         2        -0.0179      0.0015     -0.0027     -0.0064
         3        -0.1062     -0.0369     -0.0287     -0.0573
         4        -0.0582     -0.0050      0.0131     -0.0167
         5        -0.1802      0.1180      0.0000     -0.0207
         6         0.5346     -0.0133     -0.0194      0.1673
  1/2[<0|del|b>*<b|r|0> + (<0|r|b>*<b|del|0>)*] (Au)
       state          X           Y           Z        Dip. S.   Osc.(frdel)
         1        -0.0241     -0.0797     -0.0000      0.1038      0.0692
         2        -0.0615     -0.0001     -0.0000      0.0616      0.0411
         3        -0.4863     -0.0662     -0.0000      0.5525      0.3683
         4        -0.5222     -0.0036     -0.0000      0.5258      0.3505
         5        -0.1144     -0.2355     -0.0000      0.3499      0.2333
         6        -0.0000     -0.0000     -0.0005      0.0005      0.0003

 Excitation energies and oscillator strengths:
 
 Excited State   1:      Singlet-A      4.9579 eV  250.07 nm  f=0.0661  <S**2>=0.000
      30 -> 32        -0.24942
      30 -> 33         0.15651
      31 -> 32         0.62249
 This state for optimization and/or second-order correction.
 Total Energy, E(TD-HF/TD-DFT) =  -363.335895086    
 Copying the excited state density for this state as the 1-particle RhoCI density.
 
 Excited State   2:      Singlet-A      5.0723 eV  244.43 nm  f=0.0431  <S**2>=0.000
      30 -> 32         0.51825
      31 -> 32         0.24495
      31 -> 33        -0.40149
 
 Excited State   3:      Singlet-A      6.3318 eV  195.81 nm  f=0.3704  <S**2>=0.000
      29 -> 32        -0.24931
      30 -> 32         0.31968
      30 -> 33         0.25443
      31 -> 33         0.48609
      31 -> 34        -0.14148
 
 Excited State   4:      Singlet-A      6.6475 eV  186.51 nm  f=0.3589  <S**2>=0.000
      29 -> 32        -0.38544
      29 -> 33        -0.10988
      30 -> 32        -0.21243
      30 -> 33         0.39173
      31 -> 33        -0.29234
      31 -> 34        -0.20447
 
 Excited State   5:      Singlet-A      6.9184 eV  179.21 nm  f=0.2309  <S**2>=0.000
      29 -> 32         0.33124
      29 -> 34        -0.12185
      30 -> 33         0.47310
      31 -> 32        -0.17121
      31 -> 34         0.32870
 
 Excited State   6:      Singlet-A      6.9775 eV  177.69 nm  f=0.0001  <S**2>=0.000
      31 -> 35         0.70164
 SavETr:  write IOETrn=   770 NScale= 10 NData=  16 NLR=1 NState=    6 LETran=     118.
          IDoAtm=1111111111111111
          Differentiating once with respect to electric field.
                with respect to dipole field.
          Differentiating once with respect to nuclear coordinates.
 Keep R1 ints in memory in canonical form, NReq=64412969.
          There are     1 degrees of freedom in the 1st order CPHF.  IDoFFX=0 NUNeed=     1.
 LinEq1:  Iter=  0 NonCon=     1 RMS=1.18D-02 Max=3.19D-01 NDo=     1
 AX will form     1 AO Fock derivatives at one time.
 LinEq1:  Iter=  1 NonCon=     1 RMS=4.54D-03 Max=1.28D-01 NDo=     1
 LinEq1:  Iter=  2 NonCon=     1 RMS=3.67D-03 Max=9.48D-02 NDo=     1
 LinEq1:  Iter=  3 NonCon=     1 RMS=1.33D-03 Max=2.81D-02 NDo=     1
 LinEq1:  Iter=  4 NonCon=     1 RMS=8.87D-04 Max=2.84D-02 NDo=     1
 LinEq1:  Iter=  5 NonCon=     1 RMS=3.84D-04 Max=6.76D-03 NDo=     1
 LinEq1:  Iter=  6 NonCon=     1 RMS=2.47D-04 Max=6.44D-03 NDo=     1
 LinEq1:  Iter=  7 NonCon=     1 RMS=1.31D-04 Max=3.05D-03 NDo=     1
 LinEq1:  Iter=  8 NonCon=     1 RMS=8.12D-05 Max=1.61D-03 NDo=     1
 LinEq1:  Iter=  9 NonCon=     1 RMS=3.61D-05 Max=5.99D-04 NDo=     1
 LinEq1:  Iter= 10 NonCon=     1 RMS=2.00D-05 Max=4.20D-04 NDo=     1
 LinEq1:  Iter= 11 NonCon=     1 RMS=6.18D-06 Max=9.41D-05 NDo=     1
 LinEq1:  Iter= 12 NonCon=     1 RMS=3.84D-06 Max=6.90D-05 NDo=     1
 LinEq1:  Iter= 13 NonCon=     1 RMS=1.33D-06 Max=3.17D-05 NDo=     1
 LinEq1:  Iter= 14 NonCon=     1 RMS=9.06D-07 Max=2.64D-05 NDo=     1
 LinEq1:  Iter= 15 NonCon=     1 RMS=2.27D-07 Max=3.63D-06 NDo=     1
 LinEq1:  Iter= 16 NonCon=     1 RMS=4.07D-08 Max=4.23D-07 NDo=     1
 LinEq1:  Iter= 17 NonCon=     1 RMS=1.24D-08 Max=2.04D-07 NDo=     1
 LinEq1:  Iter= 18 NonCon=     1 RMS=7.07D-09 Max=1.19D-07 NDo=     1
 LinEq1:  Iter= 19 NonCon=     1 RMS=1.71D-09 Max=3.57D-08 NDo=     1
 LinEq1:  Iter= 20 NonCon=     1 RMS=2.46D-10 Max=4.08D-09 NDo=     1
 LinEq1:  Iter= 21 NonCon=     0 RMS=3.18D-11 Max=4.87D-10 NDo=     1
 Linear equations converged to 1.000D-10 1.000D-09 after    21 iterations.
 End of Minotr F.D. properties file   721 does not exist.
 End of Minotr F.D. properties file   722 does not exist.
 End of Minotr F.D. properties file   788 does not exist.

 **********************************************************************

            Population analysis using the CI Density.

 **********************************************************************

 Orbital symmetries:
       Occupied  (A) (A) (A) (A) (A) (A) (A) (A) (A) (A) (A) (A)
                 (A) (A) (A) (A) (A) (A) (A) (A) (A) (A) (A) (A)
                 (A) (A) (A) (A) (A) (A) (A)
       Virtual   (A) (A) (A) (A) (A) (A) (A) (A) (A) (A) (A) (A)
                 (A) (A) (A) (A) (A) (A) (A) (A) (A) (A) (A) (A)
                 (A) (A) (A) (A) (A) (A) (A) (A) (A) (A) (A) (A)
                 (A) (A) (A) (A) (A) (A) (A) (A) (A) (A) (A) (A)
                 (A) (A) (A) (A) (A) (A) (A) (A) (A) (A) (A) (A)
                 (A) (A) (A) (A) (A) (A) (A) (A) (A) (A) (A) (A)
                 (A) (A) (A) (A) (A) (A) (A) (A) (A) (A) (A) (A)
                 (A) (A) (A) (A) (A) (A) (A) (A) (A) (A) (A) (A)
                 (A) (A) (A) (A) (A) (A) (A) (A) (A) (A) (A) (A)
                 (A) (A) (A) (A) (A) (A) (A) (A) (A) (A)
 The electronic state is 1-A.
 Alpha  occ. eigenvalues --  -14.41267 -10.24075 -10.23809 -10.20844 -10.20400
 Alpha  occ. eigenvalues --  -10.20309 -10.20295 -10.19814 -10.19544  -0.99269
 Alpha  occ. eigenvalues --   -0.84772  -0.79113  -0.74319  -0.72491  -0.63037
 Alpha  occ. eigenvalues --   -0.60133  -0.58698  -0.54444  -0.48710  -0.47438
 Alpha  occ. eigenvalues --   -0.43970  -0.43160  -0.42439  -0.41299  -0.39369
 Alpha  occ. eigenvalues --   -0.35647  -0.33593  -0.33587  -0.27952  -0.22284
 Alpha  occ. eigenvalues --   -0.20602
 Alpha virt. eigenvalues --   -0.00162   0.03630   0.07965   0.09204   0.11716
 Alpha virt. eigenvalues --    0.14728   0.15811   0.17986   0.19284   0.19432
 Alpha virt. eigenvalues --    0.20201   0.23325   0.26125   0.27875   0.31382
 Alpha virt. eigenvalues --    0.34589   0.36063   0.40009   0.43902   0.51475
 Alpha virt. eigenvalues --    0.53388   0.54134   0.54441   0.57569   0.57866
 Alpha virt. eigenvalues --    0.58720   0.60391   0.61149   0.62010   0.63247
 Alpha virt. eigenvalues --    0.64170   0.64225   0.64410   0.66193   0.67199
 Alpha virt. eigenvalues --    0.71582   0.73163   0.79422   0.83139   0.83340
 Alpha virt. eigenvalues --    0.84240   0.86111   0.87067   0.87314   0.88419
 Alpha virt. eigenvalues --    0.90732   0.92776   0.95812   0.99206   0.99569
 Alpha virt. eigenvalues --    0.99755   1.06513   1.08336   1.13535   1.14828
 Alpha virt. eigenvalues --    1.21860   1.24277   1.27184   1.31351   1.33259
 Alpha virt. eigenvalues --    1.35257   1.38883   1.42548   1.44989   1.47050
 Alpha virt. eigenvalues --    1.47894   1.51065   1.51085   1.51565   1.56710
 Alpha virt. eigenvalues --    1.61856   1.76041   1.81460   1.83321   1.89928
 Alpha virt. eigenvalues --    1.90551   1.92743   1.95833   1.97294   2.01022
 Alpha virt. eigenvalues --    2.01330   2.06291   2.10991   2.14235   2.15346
 Alpha virt. eigenvalues --    2.17777   2.23635   2.25546   2.26656   2.27301
 Alpha virt. eigenvalues --    2.29054   2.38841   2.39794   2.41457   2.49649
 Alpha virt. eigenvalues --    2.56981   2.60012   2.63265   2.67976   2.68201
 Alpha virt. eigenvalues --    2.73351   2.78357   2.81161   2.85053   2.90974
 Alpha virt. eigenvalues --    2.97627   3.08866   3.23804   3.44925   4.01708
 Alpha virt. eigenvalues --    4.12421   4.13800   4.18451   4.23329   4.35135
 Alpha virt. eigenvalues --    4.42884   4.48284   4.78840
          Condensed to atoms (all electrons):
               1          2          3          4          5          6
     1  C    4.934641   0.566139  -0.040310  -0.038651  -0.009536   0.448907
     2  C    0.566139   5.019748   0.408132  -0.002423  -0.026398  -0.052081
     3  C   -0.040310   0.408132   5.213901   0.500762  -0.071547  -0.034200
     4  C   -0.038651  -0.002423   0.500762   4.747687   0.518327  -0.047057
     5  C   -0.009536  -0.026398  -0.071547   0.518327   4.762282   0.460481
     6  C    0.448907  -0.052081  -0.034200  -0.047057   0.460481   5.232426
     7  N   -0.000124   0.005868  -0.084786   0.224203  -0.035135   0.009323
     8  C    0.007937   0.000063   0.011329  -0.039060   0.439425  -0.090303
     9  C   -0.000386  -0.000227   0.005658  -0.116835  -0.053069   0.011774
    10  H   -0.000002  -0.000043  -0.002435  -0.022100   0.005554  -0.000103
    11  H   -0.000002   0.000003  -0.000121   0.005743  -0.027057  -0.004040
    12  H    0.000004   0.000001  -0.000090   0.005432   0.001735  -0.000148
    13  H   -0.036346   0.365023  -0.039029   0.002737   0.001054   0.004058
    14  H    0.004250  -0.036109   0.358021  -0.042618   0.003975   0.000553
    15  H    0.364068  -0.036135   0.004157   0.000982   0.002493  -0.039414
    16  H   -0.041828   0.004338   0.000534   0.004666  -0.041662   0.363177
               7          8          9         10         11         12
     1  C   -0.000124   0.007937  -0.000386  -0.000002  -0.000002   0.000004
     2  C    0.005868   0.000063  -0.000227  -0.000043   0.000003   0.000001
     3  C   -0.084786   0.011329   0.005658  -0.002435  -0.000121  -0.000090
     4  C    0.224203  -0.039060  -0.116835  -0.022100   0.005743   0.005432
     5  C   -0.035135   0.439425  -0.053069   0.005554  -0.027057   0.001735
     6  C    0.009323  -0.090303   0.011774  -0.000103  -0.004040  -0.000148
     7  N    6.994987  -0.061234   0.328165   0.315442   0.003792  -0.044264
     8  C   -0.061234   5.140201   0.459108   0.004367   0.367554  -0.027551
     9  C    0.328165   0.459108   5.059976  -0.028298  -0.046305   0.374680
    10  H    0.315442   0.004367  -0.028298   0.352373  -0.000060  -0.001604
    11  H    0.003792   0.367554  -0.046305  -0.000060   0.503291  -0.000667
    12  H   -0.044264  -0.027551   0.374680  -0.001604  -0.000667   0.499900
    13  H   -0.000111   0.000010   0.000003  -0.000002  -0.000000  -0.000000
    14  H   -0.005900  -0.000297  -0.000015   0.002588   0.000002   0.000003
    15  H    0.000004  -0.000159   0.000004  -0.000000  -0.000002  -0.000000
    16  H   -0.000129  -0.005996  -0.000045   0.000004   0.001982  -0.000000
              13         14         15         16
     1  C   -0.036346   0.004250   0.364068  -0.041828
     2  C    0.365023  -0.036109  -0.036135   0.004338
     3  C   -0.039029   0.358021   0.004157   0.000534
     4  C    0.002737  -0.042618   0.000982   0.004666
     5  C    0.001054   0.003975   0.002493  -0.041662
     6  C    0.004058   0.000553  -0.039414   0.363177
     7  N   -0.000111  -0.005900   0.000004  -0.000129
     8  C    0.000010  -0.000297  -0.000159  -0.005996
     9  C    0.000003  -0.000015   0.000004  -0.000045
    10  H   -0.000002   0.002588  -0.000000   0.000004
    11  H   -0.000000   0.000002  -0.000002   0.001982
    12  H   -0.000000   0.000003  -0.000000  -0.000000
    13  H    0.567175  -0.005162  -0.004675  -0.000173
    14  H   -0.005162   0.579877  -0.000167   0.000017
    15  H   -0.004675  -0.000167   0.560027  -0.004924
    16  H   -0.000173   0.000017  -0.004924   0.572585
 Mulliken charges:
               1
     1  C   -0.158760
     2  C   -0.215899
     3  C   -0.229975
     4  C    0.298204
     5  C    0.069077
     6  C   -0.263352
     7  N   -0.650101
     8  C   -0.205394
     9  C    0.005814
    10  H    0.374319
    11  H    0.195886
    12  H    0.192570
    13  H    0.145437
    14  H    0.140980
    15  H    0.153740
    16  H    0.147454
 Sum of Mulliken charges =  -0.00000
 Mulliken charges with hydrogens summed into heavy atoms:
               1
     1  C   -0.005020
     2  C   -0.070462
     3  C   -0.088995
     4  C    0.298204
     5  C    0.069077
     6  C   -0.115898
     7  N   -0.275783
     8  C   -0.009508
     9  C    0.198384
 Electronic spatial extent (au):  <R**2>=           1008.1579
 Charge=             -0.0000 electrons
 Dipole moment (field-independent basis, Debye):
    X=              3.6445    Y=             -1.1956    Z=              0.0017  Tot=              3.8356
 Quadrupole moment (field-independent basis, Debye-Ang):
   XX=            -43.6916   YY=            -43.1699   ZZ=            -56.9152
   XY=             -3.3845   XZ=              0.0019   YZ=             -0.0033
 Traceless Quadrupole moment (field-independent basis, Debye-Ang):
   XX=              4.2339   YY=              4.7557   ZZ=             -8.9896
   XY=             -3.3845   XZ=              0.0019   YZ=             -0.0033
 Octapole moment (field-independent basis, Debye-Ang**2):
  XXX=             22.4641  YYY=             -9.4295  ZZZ=              0.0008  XYY=             13.9554
  XXY=             -5.6156  XXZ=              0.0104  XZZ=              3.7149  YZZ=             -1.2431
  YYZ=              0.0064  XYZ=             -0.0082
 Hexadecapole moment (field-independent basis, Debye-Ang**3):
 XXXX=           -797.7756 YYYY=           -358.9239 ZZZZ=            -58.8290 XXXY=            -22.6989
 XXXZ=              0.0083 YYYX=            -18.5764 YYYZ=             -0.0138 ZZZX=             -0.0006
 ZZZY=             -0.0018 XXYY=           -183.2387 XXZZ=           -178.1660 YYZZ=            -87.2281
 XXYZ=             -0.0149 YYXZ=              0.0075 ZZXY=             -3.2057
 N-N= 3.998468435641D+02 E-N=-1.642631403504D+03  KE= 3.602829012540D+02
 R6APFD:  NTU= -4 IXU= 1 FactS= 1.050
 Calling FoFJK, ICntrl=  10005127 FMM=F ISym2X=0 I1Cent= 0 IOpClX= 0 NMat=1 NMatS=1 NMatT=0.
 ***** Axes restored to original set *****
 -------------------------------------------------------------------
 Center     Atomic                   Forces (Hartrees/Bohr)
 Number     Number              X              Y              Z
 -------------------------------------------------------------------
      1        6          -0.020564663   -0.037070243   -0.000016973
      2        6          -0.040612460    0.037949165    0.000025741
      3        6           0.037821231   -0.026882935   -0.000004321
      4        6          -0.012953040    0.010391177   -0.000032379
      5        6           0.008109965   -0.014725251   -0.000014383
      6        6           0.013947689    0.028889942    0.000011761
      7        7           0.001871844    0.025547128    0.000072618
      8        6          -0.027229603    0.013871359    0.000008215
      9        6           0.038222415   -0.036889592   -0.000029142
     10        1           0.000890475   -0.001960484   -0.000011544
     11        1           0.000599004    0.000313023    0.000006476
     12        1          -0.001011267   -0.000323394   -0.000006835
     13        1          -0.000160758    0.000693629   -0.000006218
     14        1           0.000756174    0.000198958   -0.000000961
     15        1          -0.000220030    0.000087473    0.000000772
     16        1           0.000533024   -0.000089954   -0.000002828
 -------------------------------------------------------------------
 Cartesian Forces:  Max     0.040612460 RMS     0.016486612

 GradGradGradGradGradGradGradGradGradGradGradGradGradGradGradGradGradGrad
 Berny optimization.
 FormGI is forming the generalized inverse of G from B-inverse, IUseBI=4.
 Internal  Forces:  Max     0.043012171 RMS     0.008085000
 Search for a local minimum.
 Step number   1 out of a maximum of   94
 All quantities printed in internal units (Hartrees-Bohrs-Radians)
 Mixed Optimization -- RFO/linear search
 Second derivative matrix not updated -- first step.
 ITU=  0
     Eigenvalues ---    0.01790   0.01867   0.01928   0.01947   0.02010
     Eigenvalues ---    0.02041   0.02076   0.02089   0.02098   0.02135
     Eigenvalues ---    0.02159   0.02173   0.02275   0.16000   0.16000
     Eigenvalues ---    0.16000   0.16000   0.16000   0.16000   0.16000
     Eigenvalues ---    0.22000   0.22188   0.22662   0.24010   0.24651
     Eigenvalues ---    0.35146   0.35149   0.35175   0.35209   0.35824
     Eigenvalues ---    0.35837   0.36510   0.37931   0.41898   0.42676
     Eigenvalues ---    0.44901   0.45975   0.46333   0.46561   0.46716
     Eigenvalues ---    0.47115   0.50040
 RFO step:  Lambda=-1.32418958D-02 EMin= 1.79046333D-02
 Linear search not attempted -- first point.
 Iteration  1 RMS(Cart)=  0.02536536 RMS(Int)=  0.00034624
 Iteration  2 RMS(Cart)=  0.00043801 RMS(Int)=  0.00013930
 Iteration  3 RMS(Cart)=  0.00000007 RMS(Int)=  0.00013930
 Variable       Old X    -DE/DX   Delta X   Delta X   Delta X     New X
                                 (Linear)    (Quad)   (Total)
    R1        2.66556  -0.01744   0.00000  -0.03647  -0.03644   2.62912
    R2        2.62396   0.03088   0.00000   0.06414   0.06417   2.68813
    R3        2.05391   0.00024   0.00000   0.00064   0.00064   2.05455
    R4        2.62661   0.04301   0.00000   0.08941   0.08942   2.71602
    R5        2.05336  -0.00021   0.00000  -0.00058  -0.00058   2.05278
    R6        2.64382   0.00190   0.00000   0.00300   0.00297   2.64679
    R7        2.05439  -0.00019   0.00000  -0.00051  -0.00051   2.05388
    R8        2.69075  -0.00848   0.00000  -0.02540  -0.02570   2.66505
    R9        2.60940   0.00928   0.00000   0.01580   0.01600   2.62539
   R10        2.65756   0.01292   0.00000   0.02711   0.02711   2.68467
   R11        2.71599   0.00157   0.00000   0.00485   0.00450   2.72049
   R12        2.05433  -0.00010   0.00000  -0.00029  -0.00029   2.05405
   R13        2.61412  -0.01133   0.00000  -0.02134  -0.02095   2.59317
   R14        1.90458   0.00214   0.00000   0.00449   0.00449   1.90907
   R15        2.58827   0.03050   0.00000   0.06170   0.06174   2.65001
   R16        2.04358   0.00050   0.00000   0.00135   0.00135   2.04493
   R17        2.04337  -0.00097   0.00000  -0.00261  -0.00261   2.04076
    A1        2.11385   0.00225   0.00000   0.01466   0.01465   2.12850
    A2        2.08080  -0.00116   0.00000  -0.00749  -0.00749   2.07331
    A3        2.08854  -0.00110   0.00000  -0.00717  -0.00716   2.08137
    A4        2.11529  -0.00368   0.00000  -0.01077  -0.01079   2.10450
    A5        2.08444   0.00114   0.00000   0.00136   0.00137   2.08581
    A6        2.08345   0.00254   0.00000   0.00941   0.00942   2.09287
    A7        2.05063  -0.00279   0.00000  -0.01301  -0.01309   2.03753
    A8        2.11449   0.00217   0.00000   0.01101   0.01105   2.12554
    A9        2.11807   0.00061   0.00000   0.00200   0.00204   2.12011
   A10        2.13538   0.00568   0.00000   0.02129   0.02122   2.15660
   A11        2.27776  -0.00473   0.00000  -0.00874  -0.00864   2.26913
   A12        1.87005  -0.00095   0.00000  -0.01255  -0.01258   1.85746
   A13        2.07153   0.00254   0.00000   0.00608   0.00629   2.07781
   A14        1.86523  -0.00147   0.00000  -0.00817  -0.00873   1.85650
   A15        2.34643  -0.00106   0.00000   0.00210   0.00244   2.34888
   A16        2.07970  -0.00401   0.00000  -0.01824  -0.01828   2.06142
   A17        2.10382   0.00255   0.00000   0.01227   0.01228   2.11610
   A18        2.09967   0.00146   0.00000   0.00598   0.00600   2.10567
   A19        1.90782   0.01409   0.00000   0.05578   0.05627   1.96409
   A20        2.18874  -0.00682   0.00000  -0.02660  -0.02685   2.16189
   A21        2.18663  -0.00727   0.00000  -0.02918  -0.02942   2.15721
   A22        1.86991   0.00649   0.00000   0.03491   0.03462   1.90453
   A23        2.21509  -0.00278   0.00000  -0.01478  -0.01463   2.20046
   A24        2.19819  -0.00371   0.00000  -0.02014  -0.01999   2.17819
   A25        1.91178  -0.01815   0.00000  -0.06997  -0.06958   1.84220
   A26        2.10007   0.00863   0.00000   0.03244   0.03225   2.13232
   A27        2.27133   0.00952   0.00000   0.03752   0.03733   2.30866
    D1        0.00023  -0.00000   0.00000  -0.00016  -0.00016   0.00007
    D2        3.14148   0.00000   0.00000   0.00001   0.00000   3.14148
    D3       -3.14149  -0.00000   0.00000  -0.00006  -0.00006  -3.14154
    D4       -0.00024   0.00000   0.00000   0.00010   0.00011  -0.00014
    D5       -0.00025   0.00001   0.00000   0.00017   0.00017  -0.00008
    D6       -3.14143  -0.00000   0.00000   0.00003   0.00003  -3.14140
    D7        3.14147   0.00000   0.00000   0.00007   0.00007   3.14154
    D8        0.00028  -0.00000   0.00000  -0.00007  -0.00007   0.00021
    D9       -0.00005   0.00000   0.00000   0.00007   0.00006   0.00001
   D10        3.14159   0.00000   0.00000   0.00005   0.00005  -3.14154
   D11       -3.14130  -0.00000   0.00000  -0.00010  -0.00010  -3.14140
   D12        0.00035  -0.00000   0.00000  -0.00011  -0.00011   0.00024
   D13       -0.00010  -0.00000   0.00000   0.00000   0.00001  -0.00009
   D14       -3.14138  -0.00001   0.00000  -0.00013  -0.00013  -3.14151
   D15        3.14144  -0.00000   0.00000   0.00001   0.00002   3.14146
   D16        0.00016  -0.00000   0.00000  -0.00012  -0.00012   0.00004
   D17        0.00008   0.00000   0.00000   0.00001   0.00001   0.00009
   D18       -3.14152   0.00000   0.00000   0.00002   0.00001  -3.14151
   D19        3.14142   0.00000   0.00000   0.00012   0.00012   3.14154
   D20       -0.00017   0.00001   0.00000   0.00012   0.00012  -0.00006
   D21       -3.14132  -0.00000   0.00000  -0.00030  -0.00032   3.14155
   D22       -0.00154   0.00002   0.00000   0.00036   0.00035  -0.00119
   D23        0.00055  -0.00001   0.00000  -0.00043  -0.00044   0.00011
   D24        3.14033   0.00001   0.00000   0.00024   0.00023   3.14056
   D25        0.00010  -0.00000   0.00000  -0.00010  -0.00010  -0.00000
   D26        3.14129   0.00000   0.00000   0.00004   0.00004   3.14133
   D27       -3.14149  -0.00001   0.00000  -0.00010  -0.00009  -3.14159
   D28       -0.00031  -0.00000   0.00000   0.00004   0.00005  -0.00026
   D29       -0.00026   0.00001   0.00000   0.00025   0.00026  -0.00000
   D30        3.14133  -0.00000   0.00000  -0.00001  -0.00000   3.14133
   D31        3.14133   0.00001   0.00000   0.00025   0.00025   3.14158
   D32       -0.00026   0.00000   0.00000  -0.00001  -0.00001  -0.00027
   D33       -0.00074   0.00002   0.00000   0.00064   0.00063  -0.00011
   D34        3.14136   0.00001   0.00000   0.00038   0.00038  -3.14144
   D35       -3.14052   0.00000   0.00000  -0.00003  -0.00004  -3.14056
   D36        0.00157  -0.00001   0.00000  -0.00028  -0.00029   0.00129
   D37        0.00061  -0.00002   0.00000  -0.00055  -0.00054   0.00007
   D38       -3.14155  -0.00001   0.00000  -0.00027  -0.00027   3.14137
   D39       -3.14099  -0.00001   0.00000  -0.00029  -0.00028  -3.14127
   D40        0.00004  -0.00000   0.00000  -0.00001  -0.00001   0.00003
         Item               Value     Threshold  Converged?
 Maximum Force            0.043012     0.000450     NO 
 RMS     Force            0.008085     0.000300     NO 
 Maximum Displacement     0.097705     0.001800     NO 
 RMS     Displacement     0.025368     0.001200     NO 
 Predicted change in Energy=-6.853709D-03
 GradGradGradGradGradGradGradGradGradGradGradGradGradGradGradGradGradGrad

                          Input orientation:                          
 ---------------------------------------------------------------------
 Center     Atomic      Atomic             Coordinates (Angstroms)
 Number     Number       Type             X           Y           Z
 ---------------------------------------------------------------------
      1          6           0       -2.188547    0.679100    0.000031
      2          6           0       -2.171053   -0.712061   -0.000026
      3          6           0       -0.924582   -1.427618   -0.000015
      4          6           0        0.244736   -0.656618    0.000071
      5          6           0        0.248790    0.753660    0.000037
      6          6           0       -0.991162    1.447062    0.000016
      7          7           0        1.576205   -1.053280    0.000014
      8          6           0        1.631216    1.155414    0.000038
      9          6           0        2.442083    0.011296    0.000079
     10          1           0        1.876251   -2.017930    0.000892
     11          1           0        1.999060    2.173103   -0.000217
     12          1           0        3.514069   -0.119384   -0.000088
     13          1           0       -3.109630   -1.258949    0.000095
     14          1           0       -0.888056   -2.513869   -0.000110
     15          1           0       -3.147871    1.190716    0.000067
     16          1           0       -1.018308    2.533679    0.000237
 ---------------------------------------------------------------------
                    Distance matrix (angstroms):
                    1          2          3          4          5
     1  C    0.000000
     2  C    1.391270   0.000000
     3  C    2.456800   1.437258   0.000000
     4  C    2.775789   2.416424   1.400623   0.000000
     5  C    2.438477   2.829129   2.476847   1.410283   0.000000
     6  C    1.422497   2.460478   2.875451   2.439859   1.420664
     7  N    4.144213   3.762761   2.528649   1.389299   2.242111
     8  C    3.849346   4.236119   3.633753   2.281619   1.439621
     9  C    4.678536   4.669504   3.661272   2.296616   2.315522
    10  H    4.878172   4.252760   2.862366   2.124857   3.214085
    11  H    4.446133   5.070898   4.638198   3.329410   2.253501
    12  H    5.758247   5.715931   4.627429   3.313180   3.379978
    13  H    2.145793   1.086285   2.191548   3.408016   3.915300
    14  H    3.447656   2.211921   1.086865   2.175454   3.459648
    15  H    1.087223   2.138863   3.434921   3.862955   3.424664
    16  H    2.192926   3.444364   3.962405   3.431220   2.184949
                    6          7          8          9         10
     6  C    0.000000
     7  N    3.583725   0.000000
     8  C    2.638546   2.209379   0.000000
     9  C    3.721371   1.372249   1.402324   0.000000
    10  H    4.497581   1.010237   3.182791   2.106638   0.000000
    11  H    3.077103   3.253975   1.082128   2.206735   4.192832
    12  H    4.769786   2.151157   2.273817   1.079921   2.507374
    13  H    3.436626   4.690347   5.320222   5.695177   5.043319
    14  H    3.962273   2.864594   4.450884   4.179268   2.808443
    15  H    2.171891   5.229954   4.779217   5.713023   5.961310
    16  H    1.086956   4.426937   2.986568   4.282140   5.394035
                   11         12         13         14         15
    11  H    0.000000
    12  H    2.747862   0.000000
    13  H    6.154486   6.721011   0.000000
    14  H    5.504829   5.011213   2.551513   0.000000
    15  H    5.239846   6.789537   2.449963   4.339438   0.000000
    16  H    3.038836   5.251778   4.331010   5.049228   2.517656
                   16
    16  H    0.000000
 Stoichiometry    C8H7N
 Framework group  C1[X(C8H7N)]
 Deg. of freedom    42
 Full point group                 C1      NOp   1
 Largest Abelian subgroup         C1      NOp   1
 Largest concise Abelian subgroup C1      NOp   1
                         Standard orientation:                         
 ---------------------------------------------------------------------
 Center     Atomic      Atomic             Coordinates (Angstroms)
 Number     Number       Type             X           Y           Z
 ---------------------------------------------------------------------
      1          6           0       -2.191024    0.669589   -0.000007
      2          6           0       -2.168674   -0.721502   -0.000064
      3          6           0       -0.919714   -1.432705   -0.000053
      4          6           0        0.246906   -0.657628    0.000033
      5          6           0        0.246038    0.752655   -0.000001
      6          6           0       -0.996326    1.441725   -0.000022
      7          7           0        1.579752   -1.049640   -0.000024
      8          6           0        1.627053    1.159232    0.000000
      9          6           0        2.441909    0.017951    0.000041
     10          1           0        1.883163   -2.013238    0.000854
     11          1           0        1.991343    2.178199   -0.000255
     12          1           0        3.514344   -0.108986   -0.000126
     13          1           0       -3.105337   -1.271663    0.000056
     14          1           0       -0.879396   -2.518822   -0.000148
     15          1           0       -3.152128    1.177853    0.000029
     16          1           0       -1.027265    2.528241    0.000199
 ---------------------------------------------------------------------
 Rotational constants (GHZ):           3.9028657           1.5921359           1.1308264
 Standard basis: 6-31G(d) (6D, 7F)
 There are   149 symmetry adapted cartesian basis functions of A   symmetry.
 There are   149 symmetry adapted basis functions of A   symmetry.
   149 basis functions,   280 primitive gaussians,   149 cartesian basis functions
    31 alpha electrons       31 beta electrons
       nuclear repulsion energy       397.5611698450 Hartrees.
 NAtoms=   16 NActive=   16 NUniq=   16 SFac= 1.00D+00 NAtFMM=   60 NAOKFM=F Big=F
 Integral buffers will be    131072 words long.
 Regular integral format.
 Two-electron integral symmetry is turned on.
 R6APFD:  NTU= -4 IXU= 1 FactS= 1.050
 Nuclear repulsion after empirical dispersion term =      397.5537016048 Hartrees.
 One-electron integrals computed using PRISM.
 NBasis=   149 RedAO= T EigKep=  4.41D-04  NBF=   149
 NBsUse=   149 1.00D-06 EigRej= -1.00D+00 NBFU=   149
 Initial guess from the checkpoint file:  "FuncsAPFD.chk"
 B after Tr=    -0.000000   -0.000000   -0.000000
         Rot=    0.999998    0.000005    0.000005   -0.001942 Ang=   0.22 deg.
 ExpMin= 1.61D-01 ExpMax= 4.17D+03 ExpMxC= 6.27D+02 IAcc=3 IRadAn=         5 AccDes= 0.00D+00
 Harris functional with IExCor= 3731 and IRadAn=       5 diagonalized for initial guess.
 HarFok:  IExCor= 3731 AccDes= 0.00D+00 IRadAn=         5 IDoV= 1 UseB2=F ITyADJ=14
 ICtDFT=  3500011 ScaDFX=  1.000000  1.000000  1.000000  1.000000
 FoFCou: FMM=F IPFlag=           0 FMFlag=      100000 FMFlg1=           0
         NFxFlg=           0 DoJE=T BraDBF=F KetDBF=T FulRan=T
         wScrn=  0.000000 ICntrl=       500 IOpCl=  0 I1Cent=   200000004 NGrid=           0
         NMat0=    1 NMatS0=      1 NMatT0=    0 NMatD0=    1 NMtDS0=    0 NMtDT0=    0
 Petite list used in FoFCou.
 Keep R1 ints in memory in canonical form, NReq=64400683.
 Requested convergence on RMS density matrix=1.00D-08 within 128 cycles.
 Requested convergence on MAX density matrix=1.00D-06.
 Requested convergence on             energy=1.00D-06.
 No special actions if energy rises.
 Integral accuracy reduced to 1.0D-05 until final iterations.
 Initial convergence to 1.0D-05 achieved.  Increase integral accuracy.
 SCF Done:  E(RAPFD) =  -363.511453421     A.U. after   12 cycles
            NFock= 12  Conv=0.74D-08     -V/T= 2.0101
 DoSCS=F DFT=T ScalE2(SS,OS)=  1.000000  1.000000
 ExpMin= 1.61D-01 ExpMax= 4.17D+03 ExpMxC= 6.27D+02 IAcc=3 IRadAn=         5 AccDes= 0.00D+00
 HarFok:  IExCor=  205 AccDes= 0.00D+00 IRadAn=         5 IDoV=-2 UseB2=F ITyADJ=14
 ICtDFT= 12500011 ScaDFX=  1.000000  1.000000  1.000000  1.000000
 Range of M.O.s used for correlation:    10   149
 NBasis=   149 NAE=    31 NBE=    31 NFC=     9 NFV=     0
 NROrb=    140 NOA=    22 NOB=    22 NVA=   118 NVB=   118

 **** Warning!!: The largest alpha MO coefficient is  0.10260206D+02

 Orbital symmetries:
       Occupied  (A) (A) (A) (A) (A) (A) (A) (A) (A) (A) (A) (A)
                 (A) (A) (A) (A) (A) (A) (A) (A) (A) (A) (A) (A)
                 (A) (A) (A) (A) (A) (A) (A)
       Virtual   (A) (A) (A) (A) (A) (A) (A) (A) (A) (A) (A) (A)
                 (A) (A) (A) (A) (A) (A) (A) (A) (A) (A) (A) (A)
                 (A) (A) (A) (A) (A) (A) (A) (A) (A) (A) (A) (A)
                 (A) (A) (A) (A) (A) (A) (A) (A) (A) (A) (A) (A)
                 (A) (A) (A) (A) (A) (A) (A) (A) (A) (A) (A) (A)
                 (A) (A) (A) (A) (A) (A) (A) (A) (A) (A) (A) (A)
                 (A) (A) (A) (A) (A) (A) (A) (A) (A) (A) (A) (A)
                 (A) (A) (A) (A) (A) (A) (A) (A) (A) (A) (A) (A)
                 (A) (A) (A) (A) (A) (A) (A) (A) (A) (A) (A) (A)
                 (A) (A) (A) (A) (A) (A) (A) (A) (A) (A)
 Generating guess from densities on rwf.
 Convergence on wavefunction:    0.000001000000000
 Iteration     1 Dimension    12 NMult     0 NNew     12
 CISAX will form    12 AO SS matrices at one time.
 New state      5 was old state      6
 New state      6 was old state      5
 Iteration     2 Dimension    24 NMult    12 NNew     12
 Iteration     3 Dimension    36 NMult    24 NNew     12
 Iteration     4 Dimension    48 NMult    36 NNew     12
 Iteration     5 Dimension    60 NMult    48 NNew     12
 Iteration     6 Dimension    72 NMult    60 NNew     12
 Iteration     7 Dimension    84 NMult    72 NNew     12
 Iteration     8 Dimension    92 NMult    84 NNew      8
 Iteration     9 Dimension   100 NMult    92 NNew      8
 Iteration    10 Dimension   106 NMult   100 NNew      6
 Iteration    11 Dimension   108 NMult   106 NNew      2
 ***********************************************************************
 Excited states from <AA,BB:AA,BB> singles matrix:
 ***********************************************************************
 
 Ground to excited state transition densities written to RWF  633
 Ground to excited state transition electric dipole moments (Au):
       state          X           Y           Z        Dip. S.      Osc.
         1        -0.5432      0.6927     -0.0000      0.7748      0.0866
         2        -0.4365     -0.1178     -0.0001      0.2044      0.0248
         3        -1.4177     -0.1218     -0.0001      2.0248      0.3072
         4         1.4975      0.5801      0.0000      2.5790      0.4055
         5        -0.0006     -0.0025      0.0306      0.0009      0.0002
         6         0.5448     -0.7369     -0.0001      0.8399      0.1418
 Ground to excited state transition velocity dipole moments (Au):
       state          X           Y           Z        Dip. S.      Osc.
         1         0.0830     -0.1284     -0.0000      0.0234      0.0930
         2         0.0757      0.0228      0.0000      0.0062      0.0229
         3         0.3195      0.0315      0.0000      0.1031      0.3020
         4        -0.3434     -0.1369     -0.0000      0.1366      0.3863
         5         0.0002      0.0006     -0.0209      0.0004      0.0012
         6        -0.1378      0.1924      0.0001      0.0560      0.1475
 Ground to excited state transition magnetic dipole moments (Au):
       state          X           Y           Z
         1         0.0001      0.0001      0.0341
         2        -0.0001     -0.0001      0.0085
         3        -0.0001     -0.0000     -0.3797
         4         0.0001      0.0000      0.3661
         5         0.1984      0.0293      0.0023
         6        -0.0008     -0.0001      0.3357
 Ground to excited state transition velocity quadrupole moments (Au):
       state          XX          YY          ZZ          XY          XZ          YZ
         1         0.1523     -0.1080     -0.0066      0.0018     -0.0000      0.0000
         2         0.0680     -0.1288      0.0108      0.0091      0.0000     -0.0000
         3         0.0630     -0.0889     -0.0075     -0.2116      0.0000     -0.0001
         4         0.0465      0.0100      0.0226      0.2451     -0.0000      0.0001
         5        -0.0007      0.0006      0.0000      0.0012     -0.0679      0.1196
         6         0.1593      0.0995      0.0335      0.0677      0.0002     -0.0004
 <0|del|b> * <b|rxdel|0> + <0|del|b> * <b|delr+rdel|0>
 Rotatory Strengths (R) in cgs (10**-40 erg-esu-cm/Gauss)
       state          XX          YY          ZZ    R(velocity)    E-M Angle
         1        -0.0357      0.0159     -0.0100     -0.0100       90.00
         2        -0.0032     -0.0127     -0.0108     -0.0089       90.00
         3        -0.0220     -0.0876      0.0055     -0.0347       90.00
         4        -0.0225     -0.0823      0.0184     -0.0288       90.00
         5        -0.0134      0.0357     -0.0179      0.0014       90.00
         6        -0.0333      0.2533      0.1133      0.1111       89.91
 1/2[<0|r|b>*<b|rxdel|0> + (<0|rxdel|b>*<b|r|0>)*]
 Rotatory Strengths (R) in cgs (10**-40 erg-esu-cm/Gauss)
       state          XX          YY          ZZ     R(length)
         1         0.0291     -0.0501      0.0005     -0.0068
         2        -0.0228     -0.0049      0.0004     -0.0091
         3        -0.0776     -0.0014     -0.0138     -0.0309
         4        -0.0643     -0.0143     -0.0051     -0.0279
         5         0.0860      0.0519     -0.0502      0.0293
         6         0.3148     -0.0439      0.0303      0.1004
  1/2[<0|del|b>*<b|r|0> + (<0|r|b>*<b|del|0>)*] (Au)
       state          X           Y           Z        Dip. S.   Osc.(frdel)
         1        -0.0451     -0.0889      0.0000      0.1340      0.0893
         2        -0.0330     -0.0027     -0.0000      0.0357      0.0238
         3        -0.4530     -0.0038     -0.0000      0.4568      0.3045
         4        -0.5142     -0.0794     -0.0000      0.5936      0.3957
         5        -0.0000     -0.0000     -0.0006      0.0006      0.0004
         6        -0.0751     -0.1418     -0.0000      0.2169      0.1446

 Excitation energies and oscillator strengths:
 
 Excited State   1:      Singlet-A      4.5610 eV  271.84 nm  f=0.0866  <S**2>=0.000
      29 -> 32         0.11695
      30 -> 33         0.11713
      31 -> 32         0.67713
 This state for optimization and/or second-order correction.
 Total Energy, E(TD-HF/TD-DFT) =  -363.343840815    
 Copying the excited state density for this state as the 1-particle RhoCI density.
 
 Excited State   2:      Singlet-A      4.9508 eV  250.43 nm  f=0.0248  <S**2>=0.000
      30 -> 32         0.55937
      31 -> 33        -0.42024
 
 Excited State   3:      Singlet-A      6.1921 eV  200.23 nm  f=0.3072  <S**2>=0.000
      29 -> 32        -0.41076
      30 -> 32         0.26240
      30 -> 33         0.19282
      31 -> 33         0.40127
      31 -> 34        -0.21989
 
 Excited State   4:      Singlet-A      6.4172 eV  193.21 nm  f=0.4055  <S**2>=0.000
      29 -> 32        -0.41841
      29 -> 33        -0.12303
      30 -> 32        -0.30117
      30 -> 33         0.12834
      31 -> 33        -0.38982
      31 -> 34        -0.21647
 
 Excited State   5:      Singlet-A      6.8075 eV  182.13 nm  f=0.0002  <S**2>=0.000
      31 -> 35         0.70200
 
 Excited State   6:      Singlet-A      6.8930 eV  179.87 nm  f=0.1418  <S**2>=0.000
      29 -> 34        -0.13156
      30 -> 33         0.55234
      31 -> 32        -0.10353
      31 -> 34         0.38723
 SavETr:  write IOETrn=   770 NScale= 10 NData=  16 NLR=1 NState=    6 LETran=     118.
          IDoAtm=1111111111111111
          Differentiating once with respect to electric field.
                with respect to dipole field.
          Differentiating once with respect to nuclear coordinates.
 Keep R1 ints in memory in canonical form, NReq=64412969.
          There are     1 degrees of freedom in the 1st order CPHF.  IDoFFX=0 NUNeed=     1.
 LinEq1:  Iter=  0 NonCon=     1 RMS=1.52D-02 Max=4.13D-01 NDo=     1
 AX will form     1 AO Fock derivatives at one time.
 LinEq1:  Iter=  1 NonCon=     1 RMS=5.59D-03 Max=1.71D-01 NDo=     1
 LinEq1:  Iter=  2 NonCon=     1 RMS=4.75D-03 Max=1.35D-01 NDo=     1
 LinEq1:  Iter=  3 NonCon=     1 RMS=1.83D-03 Max=3.39D-02 NDo=     1
 LinEq1:  Iter=  4 NonCon=     1 RMS=1.33D-03 Max=3.94D-02 NDo=     1
 LinEq1:  Iter=  5 NonCon=     1 RMS=5.70D-04 Max=1.09D-02 NDo=     1
 LinEq1:  Iter=  6 NonCon=     1 RMS=4.07D-04 Max=1.21D-02 NDo=     1
 LinEq1:  Iter=  7 NonCon=     1 RMS=1.60D-04 Max=3.79D-03 NDo=     1
 LinEq1:  Iter=  8 NonCon=     1 RMS=9.26D-05 Max=2.08D-03 NDo=     1
 LinEq1:  Iter=  9 NonCon=     1 RMS=3.87D-05 Max=6.79D-04 NDo=     1
 LinEq1:  Iter= 10 NonCon=     1 RMS=2.69D-05 Max=5.99D-04 NDo=     1
 LinEq1:  Iter= 11 NonCon=     1 RMS=1.21D-05 Max=2.22D-04 NDo=     1
 LinEq1:  Iter= 12 NonCon=     1 RMS=5.98D-06 Max=9.17D-05 NDo=     1
 LinEq1:  Iter= 13 NonCon=     1 RMS=2.69D-06 Max=4.52D-05 NDo=     1
 LinEq1:  Iter= 14 NonCon=     1 RMS=1.39D-06 Max=2.36D-05 NDo=     1
 LinEq1:  Iter= 15 NonCon=     1 RMS=2.82D-07 Max=5.14D-06 NDo=     1
 LinEq1:  Iter= 16 NonCon=     1 RMS=6.48D-08 Max=1.07D-06 NDo=     1
 LinEq1:  Iter= 17 NonCon=     1 RMS=4.34D-08 Max=9.91D-07 NDo=     1
 LinEq1:  Iter= 18 NonCon=     1 RMS=1.50D-08 Max=2.62D-07 NDo=     1
 LinEq1:  Iter= 19 NonCon=     1 RMS=2.75D-09 Max=5.04D-08 NDo=     1
 LinEq1:  Iter= 20 NonCon=     1 RMS=4.46D-10 Max=7.78D-09 NDo=     1
 LinEq1:  Iter= 21 NonCon=     0 RMS=6.61D-11 Max=8.72D-10 NDo=     1
 Linear equations converged to 1.000D-10 1.000D-09 after    21 iterations.
 End of Minotr F.D. properties file   721 does not exist.
 End of Minotr F.D. properties file   722 does not exist.
 End of Minotr F.D. properties file   788 does not exist.
 R6APFD:  NTU= -4 IXU= 1 FactS= 1.050
 Calling FoFJK, ICntrl=  10005127 FMM=F ISym2X=0 I1Cent= 0 IOpClX= 0 NMat=1 NMatS=1 NMatT=0.
 ***** Axes restored to original set *****
 -------------------------------------------------------------------
 Center     Atomic                   Forces (Hartrees/Bohr)
 Number     Number              X              Y              Z
 -------------------------------------------------------------------
      1        6          -0.001341808   -0.013540863   -0.000006408
      2        6          -0.002578762    0.016730933    0.000011859
      3        6           0.008567357   -0.011285945    0.000002373
      4        6          -0.008981849    0.013142702   -0.000009274
      5        6           0.003241353   -0.008608532    0.000001918
      6        6           0.002962225    0.009359584    0.000004745
      7        7           0.016721619    0.007086777    0.000031025
      8        6          -0.014555019    0.011546160   -0.000018636
      9        6          -0.003045065   -0.023499705   -0.000002496
     10        1          -0.000193284   -0.001447244   -0.000018581
     11        1           0.000445500    0.000715892    0.000005337
     12        1          -0.001208335    0.000205725    0.000004797
     13        1           0.000861624   -0.001267415   -0.000004380
     14        1          -0.000759295    0.000791773   -0.000001152
     15        1           0.000335739    0.001121835    0.000000781
     16        1          -0.000472000   -0.001051678   -0.000001910
 -------------------------------------------------------------------
 Cartesian Forces:  Max     0.023499705 RMS     0.007002977

 GradGradGradGradGradGradGradGradGradGradGradGradGradGradGradGradGradGrad
 Berny optimization.
 Using GEDIIS/GDIIS optimizer.
 FormGI is forming the generalized inverse of G from B-inverse, IUseBI=4.
 Internal  Forces:  Max     0.015453093 RMS     0.003140444
 Search for a local minimum.
 Step number   2 out of a maximum of   94
 All quantities printed in internal units (Hartrees-Bohrs-Radians)
 Mixed Optimization -- RFO/linear search
 Update second derivatives using D2CorX and points    1    2
 DE= -7.95D-03 DEPred=-6.85D-03 R= 1.16D+00
 TightC=F SS=  1.41D+00  RLast= 1.88D-01 DXNew= 5.0454D-01 5.6442D-01
 Trust test= 1.16D+00 RLast= 1.88D-01 DXMaxT set to 5.05D-01
 ITU=  1  0
 Use linear search instead of GDIIS.
     Eigenvalues ---    0.01789   0.01868   0.01928   0.01946   0.02009
     Eigenvalues ---    0.02041   0.02076   0.02083   0.02098   0.02136
     Eigenvalues ---    0.02160   0.02172   0.02278   0.15904   0.16000
     Eigenvalues ---    0.16000   0.16000   0.16000   0.16000   0.16021
     Eigenvalues ---    0.19405   0.22021   0.23897   0.24629   0.26205
     Eigenvalues ---    0.32819   0.35147   0.35174   0.35201   0.35212
     Eigenvalues ---    0.35827   0.35883   0.37785   0.38364   0.41989
     Eigenvalues ---    0.43175   0.45065   0.46100   0.46339   0.46713
     Eigenvalues ---    0.48220   0.55827
 RFO step:  Lambda=-2.41195055D-03 EMin= 1.78907915D-02
 Quartic linear search produced a step of  0.18174.
 Iteration  1 RMS(Cart)=  0.01159700 RMS(Int)=  0.00007565
 Iteration  2 RMS(Cart)=  0.00012165 RMS(Int)=  0.00003366
 Iteration  3 RMS(Cart)=  0.00000000 RMS(Int)=  0.00003366
 Variable       Old X    -DE/DX   Delta X   Delta X   Delta X     New X
                                 (Linear)    (Quad)   (Total)
    R1        2.62912  -0.00834  -0.00662  -0.02179  -0.02845   2.60067
    R2        2.68813   0.00229   0.01166   0.00459   0.01623   2.70436
    R3        2.05455   0.00023   0.00012   0.00076   0.00087   2.05543
    R4        2.71602   0.00581   0.01625   0.01294   0.02918   2.74520
    R5        2.05278  -0.00011  -0.00011  -0.00034  -0.00045   2.05233
    R6        2.64679  -0.00248   0.00054  -0.00634  -0.00578   2.64102
    R7        2.05388  -0.00082  -0.00009  -0.00271  -0.00281   2.05107
    R8        2.66505  -0.00452  -0.00467  -0.01234  -0.01701   2.64804
    R9        2.62539   0.00670   0.00291   0.01510   0.01807   2.64347
   R10        2.68467  -0.00001   0.00493  -0.00041   0.00453   2.68919
   R11        2.72049  -0.00701   0.00082  -0.01995  -0.01921   2.70128
   R12        2.05405  -0.00104  -0.00005  -0.00346  -0.00351   2.05053
   R13        2.59317  -0.01545  -0.00381  -0.03734  -0.04108   2.55210
   R14        1.90907   0.00132   0.00082   0.00329   0.00410   1.91317
   R15        2.65001   0.01408   0.01122   0.03212   0.04332   2.69333
   R16        2.04493   0.00082   0.00024   0.00267   0.00292   2.04784
   R17        2.04076  -0.00122  -0.00047  -0.00395  -0.00442   2.03633
    A1        2.12850   0.00117   0.00266   0.00577   0.00837   2.13688
    A2        2.07331   0.00059  -0.00136   0.00569   0.00436   2.07767
    A3        2.08137  -0.00176  -0.00130  -0.01147  -0.01274   2.06864
    A4        2.10450   0.00318  -0.00196   0.01743   0.01542   2.11993
    A5        2.08581  -0.00002   0.00025   0.00292   0.00319   2.08900
    A6        2.09287  -0.00316   0.00171  -0.02035  -0.01861   2.07426
    A7        2.03753  -0.00509  -0.00238  -0.02596  -0.02833   2.00921
    A8        2.12554   0.00179   0.00201   0.00726   0.00927   2.13481
    A9        2.12011   0.00330   0.00037   0.01869   0.01906   2.13917
   A10        2.15660   0.00198   0.00386   0.01003   0.01392   2.17052
   A11        2.26913  -0.00468  -0.00157  -0.02133  -0.02294   2.24618
   A12        1.85746   0.00270  -0.00229   0.01130   0.00902   1.86649
   A13        2.07781   0.00317   0.00114   0.01491   0.01614   2.09395
   A14        1.85650  -0.00044  -0.00159  -0.00105  -0.00276   1.85374
   A15        2.34888  -0.00273   0.00044  -0.01386  -0.01338   2.33550
   A16        2.06142  -0.00442  -0.00332  -0.02218  -0.02552   2.03589
   A17        2.11610   0.00170   0.00223   0.00720   0.00944   2.12554
   A18        2.10567   0.00272   0.00109   0.01499   0.01609   2.12175
   A19        1.96409  -0.00157   0.01023  -0.01205  -0.00170   1.96239
   A20        2.16189   0.00020  -0.00488   0.00169  -0.00325   2.15864
   A21        2.15721   0.00137  -0.00535   0.01036   0.00495   2.16215
   A22        1.90453  -0.00178   0.00629  -0.00785  -0.00164   1.90289
   A23        2.20046   0.00107  -0.00266   0.00508   0.00246   2.20292
   A24        2.17819   0.00071  -0.00363   0.00277  -0.00082   2.17737
   A25        1.84220   0.00110  -0.01265   0.00965  -0.00293   1.83927
   A26        2.13232  -0.00049   0.00586  -0.00425   0.00158   2.13390
   A27        2.30866  -0.00061   0.00678  -0.00540   0.00135   2.31001
    D1        0.00007  -0.00000  -0.00003  -0.00002  -0.00005   0.00002
    D2        3.14148   0.00000   0.00000   0.00008   0.00008   3.14156
    D3       -3.14154  -0.00000  -0.00001  -0.00003  -0.00004  -3.14159
    D4       -0.00014   0.00000   0.00002   0.00007   0.00009  -0.00005
    D5       -0.00008   0.00000   0.00003  -0.00001   0.00002  -0.00005
    D6       -3.14140  -0.00000   0.00001  -0.00003  -0.00003  -3.14143
    D7        3.14154   0.00000   0.00001   0.00000   0.00002   3.14156
    D8        0.00021  -0.00000  -0.00001  -0.00002  -0.00003   0.00018
    D9        0.00001   0.00000   0.00001   0.00004   0.00005   0.00007
   D10       -3.14154   0.00000   0.00001   0.00005   0.00006  -3.14148
   D11       -3.14140  -0.00000  -0.00002  -0.00007  -0.00008  -3.14148
   D12        0.00024  -0.00000  -0.00002  -0.00005  -0.00007   0.00017
   D13       -0.00009  -0.00000   0.00000  -0.00004  -0.00003  -0.00013
   D14       -3.14151  -0.00000  -0.00002  -0.00003  -0.00005  -3.14156
   D15        3.14146  -0.00000   0.00000  -0.00005  -0.00004   3.14141
   D16        0.00004  -0.00000  -0.00002  -0.00004  -0.00006  -0.00002
   D17        0.00009   0.00000   0.00000   0.00001   0.00001   0.00010
   D18       -3.14151   0.00000   0.00000   0.00004   0.00004  -3.14147
   D19        3.14154   0.00000   0.00002   0.00000   0.00003   3.14156
   D20       -0.00006   0.00000   0.00002   0.00004   0.00006  -0.00000
   D21        3.14155   0.00000  -0.00006   0.00018   0.00012  -3.14151
   D22       -0.00119   0.00001   0.00006   0.00027   0.00033  -0.00085
   D23        0.00011   0.00000  -0.00008   0.00019   0.00011   0.00021
   D24        3.14056   0.00001   0.00004   0.00028   0.00032   3.14087
   D25       -0.00000  -0.00000  -0.00002   0.00001  -0.00000  -0.00000
   D26        3.14133   0.00000   0.00001   0.00004   0.00004   3.14137
   D27       -3.14159  -0.00000  -0.00002  -0.00003  -0.00005   3.14155
   D28       -0.00026   0.00000   0.00001  -0.00001   0.00000  -0.00026
   D29       -0.00000  -0.00000   0.00005  -0.00024  -0.00019  -0.00020
   D30        3.14133   0.00000  -0.00000   0.00011   0.00011   3.14143
   D31        3.14158  -0.00000   0.00005  -0.00020  -0.00015   3.14143
   D32       -0.00027   0.00000  -0.00000   0.00015   0.00015  -0.00013
   D33       -0.00011  -0.00000   0.00011  -0.00033  -0.00022  -0.00033
   D34       -3.14144  -0.00000   0.00007  -0.00022  -0.00014  -3.14159
   D35       -3.14056  -0.00001  -0.00001  -0.00041  -0.00042  -3.14098
   D36        0.00129  -0.00001  -0.00005  -0.00030  -0.00035   0.00094
   D37        0.00007   0.00000  -0.00010   0.00035   0.00025   0.00032
   D38        3.14137   0.00000  -0.00005   0.00021   0.00017   3.14153
   D39       -3.14127  -0.00000  -0.00005   0.00001  -0.00004  -3.14131
   D40        0.00003  -0.00000  -0.00000  -0.00013  -0.00013  -0.00010
         Item               Value     Threshold  Converged?
 Maximum Force            0.015453     0.000450     NO 
 RMS     Force            0.003140     0.000300     NO 
 Maximum Displacement     0.037748     0.001800     NO 
 RMS     Displacement     0.011656     0.001200     NO 
 Predicted change in Energy=-1.475318D-03
 GradGradGradGradGradGradGradGradGradGradGradGradGradGradGradGradGradGrad

                          Input orientation:                          
 ---------------------------------------------------------------------
 Center     Atomic      Atomic             Coordinates (Angstroms)
 Number     Number       Type             X           Y           Z
 ---------------------------------------------------------------------
      1          6           0       -2.186153    0.675901    0.000064
      2          6           0       -2.161835   -0.700101    0.000050
      3          6           0       -0.909509   -1.436316    0.000005
      4          6           0        0.243219   -0.646120    0.000060
      5          6           0        0.241525    0.755162    0.000007
      6          6           0       -0.992054    1.464655    0.000009
      7          7           0        1.581865   -1.052128    0.000006
      8          6           0        1.613658    1.155898   -0.000079
      9          6           0        2.437419   -0.007183    0.000187
     10          1           0        1.874630   -2.021281    0.000636
     11          1           0        1.983185    2.174619   -0.000276
     12          1           0        3.506862   -0.139359    0.000172
     13          1           0       -3.095644   -1.254630    0.000120
     14          1           0       -0.874180   -2.521121   -0.000114
     15          1           0       -3.146260    1.187031    0.000102
     16          1           0       -1.023527    2.549294    0.000172
 ---------------------------------------------------------------------
                    Distance matrix (angstroms):
[...]
 ! A26   A(7,9,12)             122.8966         -DE/DX =    0.0                 !
 ! A27   A(8,9,12)             130.9803         -DE/DX =    0.0001              !
 ! D1    D(6,1,2,3)             -0.0006         -DE/DX =    0.0                 !
 ! D2    D(6,1,2,13)          -180.001          -DE/DX =    0.0                 !
 ! D3    D(15,1,2,3)           180.0015         -DE/DX =    0.0                 !
 ! D4    D(15,1,2,13)            0.0011         -DE/DX =    0.0                 !
 ! D5    D(2,1,6,5)              0.0011         -DE/DX =    0.0                 !
 ! D6    D(2,1,6,16)          -179.9933         -DE/DX =    0.0                 !
 ! D7    D(15,1,6,5)          -180.001          -DE/DX =    0.0                 !
 ! D8    D(15,1,6,16)            0.0046         -DE/DX =    0.0                 !
 ! D9    D(1,2,3,4)             -0.0009         -DE/DX =    0.0                 !
 ! D10   D(1,2,3,14)          -179.9953         -DE/DX =    0.0                 !
 ! D11   D(13,2,3,4)          -180.0005         -DE/DX =    0.0                 !
 ! D12   D(13,2,3,14)            0.0051         -DE/DX =    0.0                 !
 ! D13   D(2,3,4,5)              0.002          -DE/DX =    0.0                 !
 ! D14   D(2,3,4,7)            180.002          -DE/DX =    0.0                 !
 ! D15   D(14,3,4,5)           179.9964         -DE/DX =    0.0                 !
 ! D16   D(14,3,4,7)            -0.0036         -DE/DX =    0.0                 !
 ! D17   D(3,4,5,6)             -0.0015         -DE/DX =    0.0                 !
 ! D18   D(3,4,5,8)           -180.0016         -DE/DX =    0.0                 !
 ! D19   D(7,4,5,6)           -180.0016         -DE/DX =    0.0                 !
 ! D20   D(7,4,5,8)             -0.0017         -DE/DX =    0.0                 !
 ! D21   D(3,4,7,9)           -180.0124         -DE/DX =    0.0                 !
 ! D22   D(3,4,7,10)            -0.0068         -DE/DX =    0.0                 !
 ! D23   D(5,4,7,9)             -0.0124         -DE/DX =    0.0                 !
 ! D24   D(5,4,7,10)           179.9933         -DE/DX =    0.0                 !
 ! D25   D(4,5,6,1)             -0.0001         -DE/DX =    0.0                 !
 ! D26   D(4,5,6,16)           179.9943         -DE/DX =    0.0                 !
 ! D27   D(8,5,6,1)            180.0            -DE/DX =    0.0                 !
 ! D28   D(8,5,6,16)            -0.0055         -DE/DX =    0.0                 !
 ! D29   D(4,5,8,9)              0.0141         -DE/DX =    0.0                 !
 ! D30   D(4,5,8,11)          -180.0047         -DE/DX =    0.0                 !
 ! D31   D(6,5,8,9)            180.014          -DE/DX =    0.0                 !
 ! D32   D(6,5,8,11)            -0.0048         -DE/DX =    0.0                 !
 ! D33   D(4,7,9,8)              0.0208         -DE/DX =    0.0                 !
 ! D34   D(4,7,9,12)           180.0134         -DE/DX =    0.0                 !
 ! D35   D(10,7,9,8)           180.0151         -DE/DX =    0.0                 !
 ! D36   D(10,7,9,12)            0.0077         -DE/DX =    0.0                 !
 ! D37   D(5,8,9,7)             -0.0214         -DE/DX =    0.0                 !
 ! D38   D(5,8,9,12)          -180.0131         -DE/DX =    0.0                 !
 ! D39   D(11,8,9,7)          -180.0032         -DE/DX =    0.0                 !
 ! D40   D(11,8,9,12)            0.0051         -DE/DX =    0.0                 !
 --------------------------------------------------------------------------------
 GradGradGradGradGradGradGradGradGradGradGradGradGradGradGradGradGradGrad

                          Input orientation:                          
 ---------------------------------------------------------------------
 Center     Atomic      Atomic             Coordinates (Angstroms)
 Number     Number       Type             X           Y           Z
 ---------------------------------------------------------------------
      1          6           0       -2.181035    0.682391   -0.000044
      2          6           0       -2.149915   -0.698629    0.000038
      3          6           0       -0.916191   -1.447954    0.000161
      4          6           0        0.239581   -0.649759    0.000169
      5          6           0        0.235994    0.747607    0.000109
      6          6           0       -0.989727    1.469068    0.000001
      7          7           0        1.591414   -1.055005    0.000235
      8          6           0        1.605829    1.158114    0.000181
      9          6           0        2.428883   -0.009894   -0.000048
     10          1           0        1.882222   -2.023463    0.000386
     11          1           0        1.981776    2.173614    0.000091
     12          1           0        3.502639   -0.119139   -0.000261
     13          1           0       -3.086061   -1.252691    0.000017
     14          1           0       -0.894858   -2.531225    0.000151
     15          1           0       -3.143868    1.188467   -0.000110
     16          1           0       -1.013483    2.552816    0.000044
 ---------------------------------------------------------------------
                    Distance matrix (angstroms):
                    1          2          3          4          5
     1  C    0.000000
     2  C    1.381370   0.000000
     3  C    2.477538   1.443455   0.000000
     4  C    2.762970   2.389996   1.404609   0.000000
     5  C    2.417909   2.790011   2.479519   1.397370   0.000000
     6  C    1.427611   2.458647   2.917948   2.449618   1.422287
     7  N    4.153302   3.758264   2.538207   1.411268   2.255343
     8  C    3.816629   4.189644   3.626593   2.266062   1.430023
     9  C    4.661609   4.630307   3.641090   2.280892   2.320036
    10  H    4.881773   4.244210   2.856979   2.141339   3.223181
    11  H    4.421848   5.031963   4.638315   3.317631   2.254163
    12  H    5.739913   5.682181   4.614305   3.305919   3.379677
    13  H    2.136261   1.087821   2.178638   3.379856   3.877788
    14  H    3.461441   2.221166   1.083481   2.197013   3.468366
    15  H    1.087732   2.132855   3.451558   3.850558   3.408493
    16  H    2.204919   3.444325   4.001953   3.438990   2.195444
                    6          7          8          9         10
     6  C    0.000000
     7  N    3.610158   0.000000
     8  C    2.614117   2.213166   0.000000
     9  C    3.724812   1.339258   1.428867   0.000000
    10  H    4.521711   1.011177   3.193560   2.086456   0.000000
    11  H    3.053885   3.252133   1.082855   2.228815   4.198258
    12  H    4.764846   2.128057   2.286758   1.079299   2.500440
    13  H    3.435489   4.681651   5.275018   5.653242   5.027716
    14  H    4.001417   2.891500   4.456979   4.171854   2.823119
    15  H    2.172339   5.239853   4.749794   5.700142   5.964736
    16  H    1.084009   4.449929   2.967489   4.291546   5.415482
                   11         12         13         14         15
    11  H    0.000000
    12  H    2.751317   0.000000
    13  H    6.117396   6.685500   0.000000
    14  H    5.514575   5.015590   2.536931   0.000000
    15  H    5.219457   6.773912   2.441842   4.346740   0.000000
    16  H    3.019167   5.247352   4.333297   5.085425   2.529820
                   16
    16  H    0.000000
 Stoichiometry    C8H7N
 Framework group  C1[X(C8H7N)]
 Deg. of freedom    42
 Full point group                 C1      NOp   1
 Largest Abelian subgroup         C1      NOp   1
 Largest concise Abelian subgroup C1      NOp   1
                         Standard orientation:                         
 ---------------------------------------------------------------------
 Center     Atomic      Atomic             Coordinates (Angstroms)
 Number     Number       Type             X           Y           Z
 ---------------------------------------------------------------------
      1          6           0       -2.190560    0.649799   -0.000130
      2          6           0       -2.139964   -0.730644   -0.000048
      3          6           0       -0.895793   -1.462493    0.000075
      4          6           0        0.248606   -0.648075    0.000083
      5          6           0        0.225309    0.749101    0.000023
      6          6           0       -1.010467    1.453201   -0.000086
      7          7           0        1.606020   -1.034213    0.000148
      8          6           0        1.589218    1.178890    0.000094
      9          6           0        2.428664    0.022607   -0.000135
     10          1           0        1.910460   -1.998473    0.000299
     11          1           0        1.950802    2.199591    0.000005
     12          1           0        3.503854   -0.071482   -0.000348
     13          1           0       -3.068201   -1.297856   -0.000070
     14          1           0       -0.859182   -2.545355    0.000065
     15          1           0       -3.160435    1.142243   -0.000197
     16          1           0       -1.049507    2.536507   -0.000043
 ---------------------------------------------------------------------
 Rotational constants (GHZ):           3.8623179           1.6081298           1.1353931

 **********************************************************************

            Population analysis using the CI Density.

 **********************************************************************

 Orbital symmetries:
       Occupied  (A) (A) (A) (A) (A) (A) (A) (A) (A) (A) (A) (A)
                 (A) (A) (A) (A) (A) (A) (A) (A) (A) (A) (A) (A)
                 (A) (A) (A) (A) (A) (A) (A)
       Virtual   (A) (A) (A) (A) (A) (A) (A) (A) (A) (A) (A) (A)
                 (A) (A) (A) (A) (A) (A) (A) (A) (A) (A) (A) (A)
                 (A) (A) (A) (A) (A) (A) (A) (A) (A) (A) (A) (A)
                 (A) (A) (A) (A) (A) (A) (A) (A) (A) (A) (A) (A)
                 (A) (A) (A) (A) (A) (A) (A) (A) (A) (A) (A) (A)
                 (A) (A) (A) (A) (A) (A) (A) (A) (A) (A) (A) (A)
                 (A) (A) (A) (A) (A) (A) (A) (A) (A) (A) (A) (A)
                 (A) (A) (A) (A) (A) (A) (A) (A) (A) (A) (A) (A)
                 (A) (A) (A) (A) (A) (A) (A) (A) (A) (A) (A) (A)
                 (A) (A) (A) (A) (A) (A) (A) (A) (A) (A)
 The electronic state is 1-A.
 Alpha  occ. eigenvalues --  -14.41368 -10.24451 -10.24006 -10.21707 -10.20976
 Alpha  occ. eigenvalues --  -10.20666 -10.20487 -10.20266 -10.19397  -0.99581
 Alpha  occ. eigenvalues --   -0.84663  -0.78261  -0.74775  -0.71559  -0.63499
 Alpha  occ. eigenvalues --   -0.60007  -0.58168  -0.54566  -0.48720  -0.47608
 Alpha  occ. eigenvalues --   -0.43966  -0.43469  -0.42466  -0.40369  -0.39339
 Alpha  occ. eigenvalues --   -0.35155  -0.34409  -0.33614  -0.27200  -0.23217
 Alpha  occ. eigenvalues --   -0.19353
 Alpha virt. eigenvalues --   -0.01247   0.03853   0.07421   0.09117   0.11615
 Alpha virt. eigenvalues --    0.14689   0.15836   0.17930   0.18823   0.18860
 Alpha virt. eigenvalues --    0.19966   0.23398   0.25728   0.27893   0.29815
 Alpha virt. eigenvalues --    0.33599   0.35244   0.38939   0.44536   0.51936
 Alpha virt. eigenvalues --    0.52739   0.54536   0.54960   0.55654   0.58052
 Alpha virt. eigenvalues --    0.58816   0.59910   0.60994   0.61135   0.63209
 Alpha virt. eigenvalues --    0.63552   0.63680   0.64567   0.65053   0.67487
 Alpha virt. eigenvalues --    0.71078   0.73096   0.79310   0.82542   0.83220
 Alpha virt. eigenvalues --    0.83332   0.86079   0.87065   0.87680   0.88748
 Alpha virt. eigenvalues --    0.90780   0.92652   0.95325   0.97594   0.98359
 Alpha virt. eigenvalues --    0.99996   1.05788   1.07904   1.13306   1.14230
 Alpha virt. eigenvalues --    1.21122   1.24412   1.27246   1.30555   1.32752
 Alpha virt. eigenvalues --    1.35758   1.37804   1.41394   1.42595   1.47621
 Alpha virt. eigenvalues --    1.48868   1.50050   1.51062   1.51161   1.54552
 Alpha virt. eigenvalues --    1.60847   1.76815   1.79811   1.82474   1.89696
 Alpha virt. eigenvalues --    1.90318   1.92307   1.95512   1.96890   2.00301
 Alpha virt. eigenvalues --    2.00740   2.02684   2.10685   2.12760   2.15408
 Alpha virt. eigenvalues --    2.16625   2.22433   2.23554   2.24874   2.28057
 Alpha virt. eigenvalues --    2.28251   2.37380   2.40115   2.40815   2.47002
 Alpha virt. eigenvalues --    2.56187   2.59337   2.61630   2.64838   2.65807
 Alpha virt. eigenvalues --    2.73122   2.75524   2.79674   2.83526   2.90578
 Alpha virt. eigenvalues --    2.97332   3.05995   3.22602   3.41480   4.01844
 Alpha virt. eigenvalues --    4.10669   4.12529   4.16739   4.22746   4.34983
 Alpha virt. eigenvalues --    4.42468   4.48077   4.77680
          Condensed to atoms (all electrons):
               1          2          3          4          5          6
     1  C    4.939823   0.593822  -0.051514  -0.034049  -0.005581   0.433254
     2  C    0.593822   4.951948   0.411101   0.006048  -0.030579  -0.045787
     3  C   -0.051514   0.411101   5.270078   0.473446  -0.069705  -0.026740
     4  C   -0.034049   0.006048   0.473446   4.750095   0.555014  -0.061718
     5  C   -0.005581  -0.030579  -0.069705   0.555014   4.690109   0.477003
     6  C    0.433254  -0.045787  -0.026740  -0.061718   0.477003   5.244534
     7  N    0.000044   0.004983  -0.079339   0.218311  -0.034533   0.008235
     8  C    0.007542   0.000044   0.011101  -0.029954   0.427625  -0.084202
     9  C   -0.000386  -0.000217   0.006339  -0.112951  -0.057791   0.009979
    10  H    0.000001  -0.000048  -0.002207  -0.019604   0.004930  -0.000101
    11  H   -0.000002   0.000006  -0.000138   0.005781  -0.023523  -0.003613
    12  H    0.000003   0.000001  -0.000089   0.003962   0.001544  -0.000085
    13  H   -0.036812   0.362503  -0.040041   0.002431   0.001060   0.003969
    14  H    0.003627  -0.032626   0.361082  -0.041158   0.003832   0.000470
    15  H    0.363982  -0.039127   0.004207   0.000934   0.002433  -0.038375
    16  H   -0.038501   0.004088   0.000489   0.004561  -0.040951   0.364515
               7          8          9         10         11         12
     1  C    0.000044   0.007542  -0.000386   0.000001  -0.000002   0.000003
     2  C    0.004983   0.000044  -0.000217  -0.000048   0.000006   0.000001
     3  C   -0.079339   0.011101   0.006339  -0.002207  -0.000138  -0.000089
     4  C    0.218311  -0.029954  -0.112951  -0.019604   0.005781   0.003962
     5  C   -0.034533   0.427625  -0.057791   0.004930  -0.023523   0.001544
     6  C    0.008235  -0.084202   0.009979  -0.000101  -0.003613  -0.000085
     7  N    6.952349  -0.077062   0.372223   0.313770   0.004056  -0.040579
     8  C   -0.077062   5.226760   0.420123   0.005588   0.364025  -0.026334
     9  C    0.372223   0.420123   5.015058  -0.031626  -0.045479   0.375101
    10  H    0.313770   0.005588  -0.031626   0.353174  -0.000077  -0.002160
    11  H    0.004056   0.364025  -0.045479  -0.000077   0.494593  -0.000349
    12  H   -0.040579  -0.026334   0.375101  -0.002160  -0.000349   0.478585
    13  H   -0.000106   0.000009   0.000003  -0.000001  -0.000000  -0.000000
    14  H   -0.005286  -0.000271  -0.000030   0.002496   0.000002   0.000001
    15  H    0.000003  -0.000168   0.000004  -0.000000  -0.000002  -0.000000
    16  H   -0.000117  -0.005818  -0.000065   0.000004   0.001983  -0.000001
              13         14         15         16
     1  C   -0.036812   0.003627   0.363982  -0.038501
     2  C    0.362503  -0.032626  -0.039127   0.004088
     3  C   -0.040041   0.361082   0.004207   0.000489
     4  C    0.002431  -0.041158   0.000934   0.004561
     5  C    0.001060   0.003832   0.002433  -0.040951
     6  C    0.003969   0.000470  -0.038375   0.364515
     7  N   -0.000106  -0.005286   0.000003  -0.000117
     8  C    0.000009  -0.000271  -0.000168  -0.005818
     9  C    0.000003  -0.000030   0.000004  -0.000065
    10  H   -0.000001   0.002496  -0.000000   0.000004
    11  H   -0.000000   0.000002  -0.000002   0.001983
    12  H   -0.000000   0.000001  -0.000000  -0.000001
    13  H    0.570126  -0.003849  -0.005688  -0.000160
    14  H   -0.003849   0.572632  -0.000145   0.000013
    15  H   -0.005688  -0.000145   0.571972  -0.003852
    16  H   -0.000160   0.000013  -0.003852   0.573293
 Mulliken charges:
               1
     1  C   -0.175254
     2  C   -0.186160
     3  C   -0.268070
     4  C    0.278850
     5  C    0.099115
     6  C   -0.281340
     7  N   -0.636953
     8  C   -0.239008
     9  C    0.049716
    10  H    0.375863
    11  H    0.202736
    12  H    0.210400
    13  H    0.146556
    14  H    0.139208
    15  H    0.143822
    16  H    0.140520
 Sum of Mulliken charges =  -0.00000
 Mulliken charges with hydrogens summed into heavy atoms:
               1
     1  C   -0.031432
     2  C   -0.039603
     3  C   -0.128863
     4  C    0.278850
     5  C    0.099115
     6  C   -0.140820
     7  N   -0.261090
     8  C   -0.036272
     9  C    0.260116
 Electronic spatial extent (au):  <R**2>=           1017.4381
 Charge=             -0.0000 electrons
 Dipole moment (field-independent basis, Debye):
    X=              4.8219    Y=             -1.2678    Z=              0.0001  Tot=              4.9858
 Quadrupole moment (field-independent basis, Debye-Ang):
   XX=            -41.7062   YY=            -44.1248   ZZ=            -57.1043
   XY=             -2.4378   XZ=             -0.0002   YZ=             -0.0007
 Traceless Quadrupole moment (field-independent basis, Debye-Ang):
   XX=              5.9389   YY=              3.5203   ZZ=             -9.4592
   XY=             -2.4378   XZ=             -0.0002   YZ=             -0.0007
 Octapole moment (field-independent basis, Debye-Ang**2):
  XXX=             31.2625  YYY=             -8.8559  ZZZ=              0.0006  XYY=             15.1734
  XXY=             -6.9787  XXZ=             -0.0033  XZZ=              4.8841  YZZ=             -1.3223
  YYZ=              0.0021  XYZ=             -0.0018
 Hexadecapole moment (field-independent basis, Debye-Ang**3):
 XXXX=           -784.5207 YYYY=           -365.4093 ZZZZ=            -59.1770 XXXY=            -17.6375
 XXXZ=             -0.0169 YYYX=            -16.4014 YYYZ=              0.0035 ZZZX=             -0.0090
 ZZZY=              0.0085 XXYY=           -187.3672 XXZZ=           -178.9313 YYZZ=            -88.8238
 XXYZ=             -0.0013 YYXZ=              0.0012 ZZXY=             -2.3895
 N-N= 3.978874978228D+02 E-N=-1.638556950876D+03  KE= 3.600550499733D+02
 Unable to Open any file for archive entry.
 1\1\GINC-COMET-07-57\FOpt\RAPFD TD-FC\6-31G(d)\C8H7N1\SCAPARAS\15-Feb-
 2021\0\\# td= (nstates=6, root=1) APFD/6-31G(d) Opt density=current\\F
 uncsAPFD\\0,1\C,-2.1810349138,0.682390687,-0.0000436989\C,-2.149915260
 7,-0.6986287463,0.0000383786\C,-0.9161912348,-1.4479535393,0.000161484
 2\C,0.2395814012,-0.6497585455,0.0001693125\C,0.2359940006,0.747606850
 6,0.0001091967\C,-0.989727498,1.4690679018,0.0000005216\N,1.5914141992
 ,-1.0550051598,0.0002350457\C,1.6058294801,1.1581143809,0.0001806137\C
 ,2.4288828246,-0.0098941709,-0.000048268\H,1.882222484,-2.0234628966,0
 .0003859656\H,1.9817755314,2.1736144903,0.0000911211\H,3.5026388933,-0
 .1191387257,-0.0002612889\H,-3.0860611526,-1.2526905846,0.0000166803\H
 ,-0.8948580821,-2.5312247956,0.0001512173\H,-3.1438678023,1.188466608,
 -0.000109952\H,-1.0134828702,2.5528162458,0.0000436705\\Version=ES64L-
 G16RevC.01\State=1-A\HF=-363.5064031\RMSD=7.333e-09\RMSF=1.462e-04\Dip
 ole=1.8970816,-0.4987873,0.0000317\Quadrupole=4.4154504,2.6172292,-7.0
 326796,-1.8124215,-0.0001211,-0.0005136\PG=C01 [X(C8H7N1)]\\@
 The archive entry for this job was punched.


 MUD THROWN IS GROUND LOST -- FROM A TEA BAG
 Job cpu time:       0 days  1 hours  2 minutes 14.5 seconds.
 Elapsed time:       0 days  0 hours 31 minutes 19.7 seconds.
 File lengths (MBytes):  RWF=    202 Int=      0 D2E=      0 Chk=      8 Scr=      1
 Normal termination of Gaussian 16 at Mon Feb 15 04:26:40 2021.
