 Entering Gaussian System, Link 0=/cm/shared/apps/spack/cpu/opt/spack/linux-centos8-zen/gcc-8.3.1/gaussian-16.C.01-po5bqktfeugvmjyga3v7eigbecnokxng/g16/g16
 Initial command:
 /cm/shared/apps/spack/cpu/opt/spack/linux-centos8-zen/gcc-8.3.1/gaussian-16.C.01-po5bqktfeugvmjyga3v7eigbecnokxng/g16/l1.exe "/scratch/cwaldt/job_3581096/Gau-70070.inp" -scrdir="/scratch/cwaldt/job_3581096/"
 Entering Link 1 = /cm/shared/apps/spack/cpu/opt/spack/linux-centos8-zen/gcc-8.3.1/gaussian-16.C.01-po5bqktfeugvmjyga3v7eigbecnokxng/g16/l1.exe PID=     70072.
  
 Copyright (c) 1988-2019, Gaussian, Inc.  All Rights Reserved.
  
 This is part of the Gaussian(R) 16 program.  It is based on
 the Gaussian(R) 09 system (copyright 2009, Gaussian, Inc.),
 the Gaussian(R) 03 system (copyright 2003, Gaussian, Inc.),
 the Gaussian(R) 98 system (copyright 1998, Gaussian, Inc.),
 the Gaussian(R) 94 system (copyright 1995, Gaussian, Inc.),
 the Gaussian 92(TM) system (copyright 1992, Gaussian, Inc.),
 the Gaussian 90(TM) system (copyright 1990, Gaussian, Inc.),
 the Gaussian 88(TM) system (copyright 1988, Gaussian, Inc.),
 the Gaussian 86(TM) system (copyright 1986, Carnegie Mellon
 University), and the Gaussian 82(TM) system (copyright 1983,
 Carnegie Mellon University). Gaussian is a federally registered
 trademark of Gaussian, Inc.
  
 This software contains proprietary and confidential information,
 including trade secrets, belonging to Gaussian, Inc.
  
 This software is provided under written license and may be
 used, copied, transmitted, or stored only in accord with that
 written license.
  
 The following legend is applicable only to US Government
 contracts under FAR:
  
                    RESTRICTED RIGHTS LEGEND
  
 Use, reproduction and disclosure by the US Government is
 subject to restrictions as set forth in subparagraphs (a)
 and (c) of the Commercial Computer Software - Restricted
 Rights clause in FAR 52.227-19.
  
 Gaussian, Inc.
 340 Quinnipiac St., Bldg. 40, Wallingford CT 06492
  
  
 ---------------------------------------------------------------
 Warning -- This program may not be used in any manner that
 competes with the business of Gaussian, Inc. or will provide
 assistance to any competitor of Gaussian, Inc.  The licensee
 of this program is prohibited from giving any competitor of
 Gaussian, Inc. access to this program.  By using this program,
 the user acknowledges that Gaussian, Inc. is engaged in the
 business of creating and licensing software in the field of
 computational chemistry and represents and warrants to the
 licensee that it is not a competitor of Gaussian, Inc. and that
 it will not use this program in any manner prohibited above.
 ---------------------------------------------------------------
  

 Cite this work as:
 Gaussian 16, Revision C.01,
 M. J. Frisch, G. W. Trucks, H. B. Schlegel, G. E. Scuseria, 
 M. A. Robb, J. R. Cheeseman, G. Scalmani, V. Barone, 
 G. A. Petersson, H. Nakatsuji, X. Li, M. Caricato, A. V. Marenich, 
 J. Bloino, B. G. Janesko, R. Gomperts, B. Mennucci, H. P. Hratchian, 
 J. V. Ortiz, A. F. Izmaylov, J. L. Sonnenberg, D. Williams-Young, 
 F. Ding, F. Lipparini, F. Egidi, J. Goings, B. Peng, A. Petrone, 
 T. Henderson, D. Ranasinghe, V. G. Zakrzewski, J. Gao, N. Rega, 
 G. Zheng, W. Liang, M. Hada, M. Ehara, K. Toyota, R. Fukuda, 
 J. Hasegawa, M. Ishida, T. Nakajima, Y. Honda, O. Kitao, H. Nakai, 
 T. Vreven, K. Throssell, J. A. Montgomery, Jr., J. E. Peralta, 
 F. Ogliaro, M. J. Bearpark, J. J. Heyd, E. N. Brothers, K. N. Kudin, 
 V. N. Staroverov, T. A. Keith, R. Kobayashi, J. Normand, 
 K. Raghavachari, A. P. Rendell, J. C. Burant, S. S. Iyengar, 
 J. Tomasi, M. Cossi, J. M. Millam, M. Klene, C. Adamo, R. Cammi, 
 J. W. Ochterski, R. L. Martin, K. Morokuma, O. Farkas, 
 J. B. Foresman, and D. J. Fox, Gaussian, Inc., Wallingford CT, 2019.
 
 ******************************************
 Gaussian 16:  AS64L-G16RevC.01  3-Jul-2019
                23-Jun-2021 
 ******************************************
 %nprocshared=4
 Will use up to    4 processors via shared memory.
 %chk=FuncsBHandHLYP-V-2nd.chk
 %Mem=3GB
 ---------------------------------------------------------------
 # td= (nstates=6, root=2) BHandHLYP/6-31+G* Opt density=current
 ---------------------------------------------------------------
 1/18=20,19=15,26=3,38=1/1,3;
 2/9=110,12=2,17=6,18=5,40=1/2;
 3/5=1,6=6,7=11,11=9,25=1,30=1,71=1,74=-3/1,2,3,8;
 4//1;
 5/5=2,38=5/2;
 8/6=1,10=2,107=2,108=6/1;
 9/8=2,15=2,41=6,42=1,70=2/14;
 10/5=4,28=2/2;
 6/7=2,8=2,9=2,10=2,22=-1/1;
 7/12=6,13=5,14=2/1,2,3,16;
 1/18=20,19=15,26=3/3(2);
 2/9=110/2;
 99//99;
 2/9=110/2;
 3/5=1,6=6,7=11,11=9,25=1,30=1,71=1,74=-3/1,2,3,8;
 4/5=5,16=3,69=1/1;
 5/5=2,38=5/2;
 8/6=1,10=2,107=2,108=6/1;
 9/8=2,15=2,41=6,42=1,49=4,70=2/14;
 10/5=4,28=2/2;
 7/12=6,13=5,14=2/1,2,3,16;
 1/18=20,19=15,26=3/3(-8);
 2/9=110/2;
 6/7=2,8=2,9=2,10=2,22=-1/1;
 99/9=10/99;
 --------------------
 FuncsBHandHLYP-V-2nd
 --------------------
 Symbolic Z-matrix:
 Charge =  0 Multiplicity = 1
 C                    -2.15106   0.68921   0.00009 
 C                    -2.12793  -0.71582   0.00008 
 C                    -0.9323   -1.4131   -0.00001 
 C                     0.24691  -0.6702   -0.00004 
 C                     0.24819   0.7483    0. 
 C                    -0.97947   1.42353   0.00003 
 N                     1.56177  -1.07759  -0.00029 
 C                     1.62013   1.1629   -0.00016 
 C                     2.38201   0.03081   0.00025 
 H                     1.87632  -2.03001   0.00044 
 H                     1.99217   2.17301  -0.00035 
 H                     3.45255  -0.08243   0.00041 
 H                    -3.06159  -1.26202   0.00009 
 H                    -0.91725  -2.49534  -0.00007 
 H                    -3.1042    1.20079   0.00009 
 H                    -1.00935   2.50542  -0.00002 
 

 GradGradGradGradGradGradGradGradGradGradGradGradGradGradGradGradGradGrad
 Berny optimization.
 Initialization pass.
                           ----------------------------
                           !    Initial Parameters    !
                           ! (Angstroms and Degrees)  !
 --------------------------                            --------------------------
 ! Name  Definition              Value          Derivative Info.                !
 --------------------------------------------------------------------------------
 ! R1    R(1,2)                  1.4052         estimate D2E/DX2                !
 ! R2    R(1,6)                  1.3827         estimate D2E/DX2                !
 ! R3    R(1,15)                 1.0818         estimate D2E/DX2                !
 ! R4    R(2,3)                  1.3841         estimate D2E/DX2                !
 ! R5    R(2,13)                 1.0817         estimate D2E/DX2                !
 ! R6    R(3,4)                  1.3937         estimate D2E/DX2                !
 ! R7    R(3,14)                 1.0823         estimate D2E/DX2                !
 ! R8    R(4,5)                  1.4185         estimate D2E/DX2                !
 ! R9    R(4,7)                  1.3765         estimate D2E/DX2                !
 ! R10   R(5,6)                  1.4011         estimate D2E/DX2                !
 ! R11   R(5,8)                  1.4332         estimate D2E/DX2                !
 ! R12   R(6,16)                 1.0823         estimate D2E/DX2                !
 ! R13   R(7,9)                  1.3789         estimate D2E/DX2                !
 ! R14   R(7,10)                 1.003          estimate D2E/DX2                !
 ! R15   R(8,9)                  1.3646         estimate D2E/DX2                !
 ! R16   R(8,11)                 1.0764         estimate D2E/DX2                !
 ! R17   R(9,12)                 1.0765         estimate D2E/DX2                !
 ! A1    A(2,1,6)              121.1349         estimate D2E/DX2                !
 ! A2    A(2,1,15)             119.1671         estimate D2E/DX2                !
 ! A3    A(6,1,15)             119.698          estimate D2E/DX2                !
 ! A4    A(1,2,3)              121.1938         estimate D2E/DX2                !
 ! A5    A(1,2,13)             119.3846         estimate D2E/DX2                !
 ! A6    A(3,2,13)             119.4217         estimate D2E/DX2                !
 ! A7    A(2,3,4)              117.5387         estimate D2E/DX2                !
 ! A8    A(2,3,14)             121.0469         estimate D2E/DX2                !
 ! A9    A(4,3,14)             121.4144         estimate D2E/DX2                !
 ! A10   A(3,4,5)              122.2626         estimate D2E/DX2                !
 ! A11   A(3,4,7)              130.5743         estimate D2E/DX2                !
 ! A12   A(5,4,7)              107.163          estimate D2E/DX2                !
 ! A13   A(4,5,6)              118.7594         estimate D2E/DX2                !
 ! A14   A(4,5,8)              106.8666         estimate D2E/DX2                !
 ! A15   A(6,5,8)              134.374          estimate D2E/DX2                !
 ! A16   A(1,6,5)              119.1105         estimate D2E/DX2                !
 ! A17   A(1,6,16)             120.4966         estimate D2E/DX2                !
 ! A18   A(5,6,16)             120.3928         estimate D2E/DX2                !
 ! A19   A(4,7,9)              109.2874         estimate D2E/DX2                !
 ! A20   A(4,7,10)             125.4909         estimate D2E/DX2                !
 ! A21   A(9,7,10)             125.2217         estimate D2E/DX2                !
 ! A22   A(5,8,9)              107.125          estimate D2E/DX2                !
 ! A23   A(5,8,11)             127.0344         estimate D2E/DX2                !
 ! A24   A(9,8,11)             125.8405         estimate D2E/DX2                !
 ! A25   A(7,9,8)              109.5578         estimate D2E/DX2                !
 ! A26   A(7,9,12)             120.4645         estimate D2E/DX2                !
 ! A27   A(8,9,12)             129.9776         estimate D2E/DX2                !
 ! D1    D(6,1,2,3)             -0.0008         estimate D2E/DX2                !
 ! D2    D(6,1,2,13)          -179.9981         estimate D2E/DX2                !
 ! D3    D(15,1,2,3)           179.996          estimate D2E/DX2                !
 ! D4    D(15,1,2,13)           -0.0013         estimate D2E/DX2                !
 ! D5    D(2,1,6,5)             -0.0018         estimate D2E/DX2                !
 ! D6    D(2,1,6,16)           179.9965         estimate D2E/DX2                !
 ! D7    D(15,1,6,5)          -179.9986         estimate D2E/DX2                !
 ! D8    D(15,1,6,16)           -0.0003         estimate D2E/DX2                !
 ! D9    D(1,2,3,4)              0.002          estimate D2E/DX2                !
 ! D10   D(1,2,3,14)          -179.9968         estimate D2E/DX2                !
 ! D11   D(13,2,3,4)           179.9992         estimate D2E/DX2                !
 ! D12   D(13,2,3,14)            0.0005         estimate D2E/DX2                !
 ! D13   D(2,3,4,5)             -0.0005         estimate D2E/DX2                !
 ! D14   D(2,3,4,7)           -179.9911         estimate D2E/DX2                !
 ! D15   D(14,3,4,5)           179.9982         estimate D2E/DX2                !
 ! D16   D(14,3,4,7)             0.0076         estimate D2E/DX2                !
 ! D17   D(3,4,5,6)             -0.002          estimate D2E/DX2                !
 ! D18   D(3,4,5,8)           -179.9955         estimate D2E/DX2                !
 ! D19   D(7,4,5,6)            179.9905         estimate D2E/DX2                !
 ! D20   D(7,4,5,8)             -0.003          estimate D2E/DX2                !
 ! D21   D(3,4,7,9)           -179.98           estimate D2E/DX2                !
 ! D22   D(3,4,7,10)            -0.0649         estimate D2E/DX2                !
 ! D23   D(5,4,7,9)              0.0284         estimate D2E/DX2                !
 ! D24   D(5,4,7,10)           179.9434         estimate D2E/DX2                !
 ! D25   D(4,5,6,1)              0.0031         estimate D2E/DX2                !
 ! D26   D(4,5,6,16)          -179.9951         estimate D2E/DX2                !
 ! D27   D(8,5,6,1)            179.9944         estimate D2E/DX2                !
 ! D28   D(8,5,6,16)            -0.0038         estimate D2E/DX2                !
 ! D29   D(4,5,8,9)             -0.0234         estimate D2E/DX2                !
 ! D30   D(4,5,8,11)           179.9883         estimate D2E/DX2                !
 ! D31   D(6,5,8,9)            179.9846         estimate D2E/DX2                !
 ! D32   D(6,5,8,11)            -0.0037         estimate D2E/DX2                !
 ! D33   D(4,7,9,8)             -0.0444         estimate D2E/DX2                !
 ! D34   D(4,7,9,12)           179.9847         estimate D2E/DX2                !
 ! D35   D(10,7,9,8)          -179.9597         estimate D2E/DX2                !
 ! D36   D(10,7,9,12)            0.0693         estimate D2E/DX2                !
 ! D37   D(5,8,9,7)              0.0414         estimate D2E/DX2                !
 ! D38   D(5,8,9,12)          -179.9913         estimate D2E/DX2                !
 ! D39   D(11,8,9,7)          -179.9702         estimate D2E/DX2                !
 ! D40   D(11,8,9,12)           -0.0029         estimate D2E/DX2                !
 --------------------------------------------------------------------------------
 Trust Radius=3.00D-01 FncErr=1.00D-07 GrdErr=1.00D-06 EigMax=2.50D+02 EigMin=1.00D-04
 Number of steps in this run=     94 maximum allowed number of steps=    100.
 GradGradGradGradGradGradGradGradGradGradGradGradGradGradGradGradGradGrad

                          Input orientation:                          
 ---------------------------------------------------------------------
 Center     Atomic      Atomic             Coordinates (Angstroms)
 Number     Number       Type             X           Y           Z
 ---------------------------------------------------------------------
      1          6           0       -2.151063    0.689208    0.000088
      2          6           0       -2.127927   -0.715818    0.000075
      3          6           0       -0.932297   -1.413100   -0.000011
      4          6           0        0.246911   -0.670201   -0.000042
      5          6           0        0.248193    0.748299    0.000000
      6          6           0       -0.979474    1.423526    0.000032
      7          7           0        1.561774   -1.077592   -0.000285
      8          6           0        1.620133    1.162900   -0.000157
      9          6           0        2.382013    0.030806    0.000248
     10          1           0        1.876315   -2.030011    0.000438
     11          1           0        1.992173    2.173010   -0.000348
     12          1           0        3.452549   -0.082425    0.000408
     13          1           0       -3.061594   -1.262020    0.000088
     14          1           0       -0.917252   -2.495342   -0.000073
     15          1           0       -3.104203    1.200785    0.000090
     16          1           0       -1.009348    2.505421   -0.000015
 ---------------------------------------------------------------------
                    Distance matrix (angstroms):
                    1          2          3          4          5
     1  C    0.000000
     2  C    1.405216   0.000000
     3  C    2.430039   1.384100   0.000000
     4  C    2.756496   2.375276   1.393711   0.000000
     5  C    2.399984   2.790983   2.462763   1.418501   0.000000
     6  C    1.382694   2.428114   2.837018   2.426461   1.401106
     7  N    4.111781   3.707395   2.516536   1.376529   2.249305
     8  C    3.800829   4.192557   3.626386   2.290414   1.433218
     9  C    4.580641   4.571324   3.615178   2.247236   2.251218
    10  H    4.859416   4.214387   2.875566   2.122273   3.220216
    11  H    4.400917   5.031953   4.627387   3.336134   2.251948
    12  H    5.656491   5.616307   4.582311   3.259079   3.310287
    13  H    2.153220   1.081698   2.134650   3.361020   3.872476
    14  H    3.415208   2.152310   1.082347   2.164813   3.446661
    15  H    1.081752   2.150926   3.398466   3.838040   3.382795
    16  H    2.145261   3.409927   3.919278   3.415079   2.160761
                    6          7          8          9         10
     6  C    0.000000
     7  N    3.565604   0.000000
     8  C    2.612639   2.241252   0.000000
     9  C    3.638580   1.378890   1.364587   0.000000
    10  H    4.481345   1.003015   3.203172   2.121956   0.000000
    11  H    3.064704   3.278972   1.076446   2.177387   4.204618
    12  H    4.680888   2.136677   2.215532   1.076508   2.505515
    13  H    3.398144   4.627045   5.272457   5.595021   4.997275
    14  H    3.919362   2.855798   4.452085   4.155307   2.832058
    15  H    2.136372   5.192528   4.724488   5.609583   5.936632
    16  H    1.082307   4.410062   2.952378   4.198220   5.375611
                   11         12         13         14         15
    11  H    0.000000
    12  H    2.686947   0.000000
    13  H    6.110646   6.620083   0.000000
    14  H    5.500751   4.991726   2.473719   0.000000
    15  H    5.188282   6.681139   2.463174   4.294661   0.000000
    16  H    3.019872   5.158049   4.290143   5.001611   2.467892
                   16
    16  H    0.000000
 Stoichiometry    C8H7N
 Framework group  C1[X(C8H7N)]
 Deg. of freedom    42
 Full point group                 C1      NOp   1
 Largest Abelian subgroup         C1      NOp   1
 Largest concise Abelian subgroup C1      NOp   1
                         Standard orientation:                         
 ---------------------------------------------------------------------
 Center     Atomic      Atomic             Coordinates (Angstroms)
 Number     Number       Type             X           Y           Z
 ---------------------------------------------------------------------
      1          6           0       -2.151063    0.689208    0.000088
      2          6           0       -2.127927   -0.715818    0.000075
      3          6           0       -0.932297   -1.413100   -0.000011
      4          6           0        0.246911   -0.670201   -0.000042
      5          6           0        0.248193    0.748299    0.000000
      6          6           0       -0.979474    1.423526    0.000032
      7          7           0        1.561774   -1.077592   -0.000285
      8          6           0        1.620133    1.162900   -0.000157
      9          6           0        2.382013    0.030806    0.000248
     10          1           0        1.876315   -2.030011    0.000438
     11          1           0        1.992173    2.173010   -0.000348
     12          1           0        3.452549   -0.082425    0.000408
     13          1           0       -3.061594   -1.262020    0.000088
     14          1           0       -0.917252   -2.495342   -0.000073
     15          1           0       -3.104203    1.200785    0.000090
     16          1           0       -1.009348    2.505421   -0.000015
 ---------------------------------------------------------------------
 Rotational constants (GHZ):           3.9080822           1.6429452           1.1566805
 Standard basis: 6-31+G(d) (6D, 7F)
 There are   185 symmetry adapted cartesian basis functions of A   symmetry.
 There are   185 symmetry adapted basis functions of A   symmetry.
   185 basis functions,   316 primitive gaussians,   185 cartesian basis functions
    31 alpha electrons       31 beta electrons
       nuclear repulsion energy       401.3368668897 Hartrees.
 NAtoms=   16 NActive=   16 NUniq=   16 SFac= 1.00D+00 NAtFMM=   60 NAOKFM=F Big=F
 Integral buffers will be    131072 words long.
 Regular integral format.
 Two-electron integral symmetry is turned on.
 One-electron integrals computed using PRISM.
 NBasis=   185 RedAO= T EigKep=  1.26D-06  NBF=   185
 NBsUse=   185 1.00D-06 EigRej= -1.00D+00 NBFU=   185
 ExpMin= 4.38D-02 ExpMax= 4.17D+03 ExpMxC= 6.27D+02 IAcc=3 IRadAn=         5 AccDes= 0.00D+00
 Harris functional with IExCor=  402 and IRadAn=       5 diagonalized for initial guess.
 HarFok:  IExCor=  402 AccDes= 0.00D+00 IRadAn=         5 IDoV= 1 UseB2=F ITyADJ=14
 ICtDFT=  3500011 ScaDFX=  1.000000  1.000000  1.000000  1.000000
 FoFCou: FMM=F IPFlag=           0 FMFlag=      100000 FMFlg1=           0
         NFxFlg=           0 DoJE=T BraDBF=F KetDBF=T FulRan=T
         wScrn=  0.000000 ICntrl=       500 IOpCl=  0 I1Cent=   200000004 NGrid=           0
         NMat0=    1 NMatS0=      1 NMatT0=    0 NMatD0=    1 NMtDS0=    0 NMtDT0=    0
 Petite list used in FoFCou.
 Keep R1 ints in memory in canonical form, NReq=152071459.
 Requested convergence on RMS density matrix=1.00D-08 within 128 cycles.
 Requested convergence on MAX density matrix=1.00D-06.
 Requested convergence on             energy=1.00D-06.
 No special actions if energy rises.
 SCF Done:  E(RBHandHLYP) =  -363.604797963     A.U. after   15 cycles
            NFock= 15  Conv=0.50D-08     -V/T= 2.0079
 DoSCS=F DFT=T ScalE2(SS,OS)=  1.000000  1.000000
 ExpMin= 4.38D-02 ExpMax= 4.17D+03 ExpMxC= 6.27D+02 IAcc=3 IRadAn=         5 AccDes= 0.00D+00
 HarFok:  IExCor=  205 AccDes= 0.00D+00 IRadAn=         5 IDoV=-2 UseB2=F ITyADJ=14
 ICtDFT= 12500011 ScaDFX=  1.000000  1.000000  1.000000  1.000000
 Range of M.O.s used for correlation:    10   185
 NBasis=   185 NAE=    31 NBE=    31 NFC=     9 NFV=     0
 NROrb=    176 NOA=    22 NOB=    22 NVA=   154 NVB=   154

 **** Warning!!: The largest alpha MO coefficient is  0.21430993D+03

 Orbital symmetries:
       Occupied  (A) (A) (A) (A) (A) (A) (A) (A) (A) (A) (A) (A)
                 (A) (A) (A) (A) (A) (A) (A) (A) (A) (A) (A) (A)
                 (A) (A) (A) (A) (A) (A) (A)
       Virtual   (A) (A) (A) (A) (A) (A) (A) (A) (A) (A) (A) (A)
                 (A) (A) (A) (A) (A) (A) (A) (A) (A) (A) (A) (A)
                 (A) (A) (A) (A) (A) (A) (A) (A) (A) (A) (A) (A)
                 (A) (A) (A) (A) (A) (A) (A) (A) (A) (A) (A) (A)
                 (A) (A) (A) (A) (A) (A) (A) (A) (A) (A) (A) (A)
                 (A) (A) (A) (A) (A) (A) (A) (A) (A) (A) (A) (A)
                 (A) (A) (A) (A) (A) (A) (A) (A) (A) (A) (A) (A)
                 (A) (A) (A) (A) (A) (A) (A) (A) (A) (A) (A) (A)
                 (A) (A) (A) (A) (A) (A) (A) (A) (A) (A) (A) (A)
                 (A) (A) (A) (A) (A) (A) (A) (A) (A) (A) (A) (A)
                 (A) (A) (A) (A) (A) (A) (A) (A) (A) (A) (A) (A)
                 (A) (A) (A) (A) (A) (A) (A) (A) (A) (A) (A) (A)
                 (A) (A) (A) (A) (A) (A) (A) (A) (A) (A)
    24 initial guesses have been made.
 Convergence on wavefunction:    0.000001000000000
 Iteration     1 Dimension    24 NMult     0 NNew     24
 CISAX will form    24 AO SS matrices at one time.
 New state      2 was old state      5
 New state      3 was old state      2
 New state      4 was old state      3
 New state      5 was old state      4
 Iteration     2 Dimension    36 NMult    24 NNew     12
 New state      1 was old state      3
 New state      3 was old state      1
 Iteration     3 Dimension    48 NMult    36 NNew     12
 Iteration     4 Dimension    60 NMult    48 NNew     12
 Iteration     5 Dimension    72 NMult    60 NNew     12
 Iteration     6 Dimension    84 NMult    72 NNew     12
 Iteration     7 Dimension    96 NMult    84 NNew     12
 Iteration     8 Dimension   108 NMult    96 NNew     12
 Iteration     9 Dimension   120 NMult   108 NNew     12
 Iteration    10 Dimension   124 NMult   120 NNew      4
 Iteration    11 Dimension   126 NMult   124 NNew      2
 ***********************************************************************
 Excited states from <AA,BB:AA,BB> singles matrix:
 ***********************************************************************
 
 Ground to excited state transition densities written to RWF  633
 Ground to excited state transition electric dipole moments (Au):
       state          X           Y           Z        Dip. S.      Osc.
         1        -0.6978      0.6709     -0.0004      0.9370      0.1182
         2        -0.6441     -0.1556     -0.0002      0.4391      0.0559
         3         0.0020     -0.0012     -0.1696      0.0288      0.0037
         4        -0.0004      0.0001     -0.1585      0.0251      0.0035
         5         0.0004     -0.0000      0.0112      0.0001      0.0000
         6         0.0006      0.0002      0.1124      0.0126      0.0018
 Ground to excited state transition velocity dipole moments (Au):
       state          X           Y           Z        Dip. S.      Osc.
         1         0.1214     -0.1354      0.0001      0.0331      0.1166
         2         0.1167      0.0311      0.0000      0.0146      0.0509
         3        -0.0003      0.0002      0.0231      0.0005      0.0018
         4         0.0001     -0.0000      0.0357      0.0013      0.0040
         5        -0.0001      0.0000     -0.0016      0.0000      0.0000
         6        -0.0001     -0.0000     -0.0244      0.0006      0.0018
 Ground to excited state transition magnetic dipole moments (Au):
       state          X           Y           Z
         1         0.0005     -0.0003      0.1445
         2         0.0000     -0.0003     -0.1000
         3         0.1338     -0.1087     -0.0001
         4         0.0879     -0.2992     -0.0001
         5         0.3035     -0.2368      0.0002
         6         0.2193      0.3479      0.0006
 Ground to excited state transition velocity quadrupole moments (Au):
       state          XX          YY          ZZ          XY          XZ          YZ
         1         0.2678     -0.1503      0.0200      0.0113      0.0003      0.0002
         2         0.0779     -0.1269      0.0282     -0.0256      0.0002      0.0000
         3        -0.0007      0.0004      0.0000      0.0000      0.0944      0.0556
         4        -0.0000      0.0000     -0.0000     -0.0000      0.2238      0.0374
         5        -0.0003     -0.0000      0.0000      0.0002      0.2857      0.2940
         6         0.0001     -0.0001      0.0001      0.0003     -0.2939      0.0932
 <0|del|b> * <b|rxdel|0> + <0|del|b> * <b|delr+rdel|0>
 Rotatory Strengths (R) in cgs (10**-40 erg-esu-cm/Gauss)
       state          XX          YY          ZZ    R(velocity)    E-M Angle
         1         0.1483      0.1530      0.0698      0.1237       90.00
         2        -0.0390      0.0038     -0.0003     -0.0118       90.00
         3        -0.0893     -0.1228     -0.0554     -0.0892       90.00
         4         0.0078      0.0144      0.0092      0.0105       90.00
         5        -0.0033     -0.0811     -0.0011     -0.0285       90.00
         6        -0.0741     -0.0720     -0.0277     -0.0580       90.00
 1/2[<0|r|b>*<b|rxdel|0> + (<0|rxdel|b>*<b|r|0>)*]
 Rotatory Strengths (R) in cgs (10**-40 erg-esu-cm/Gauss)
       state          XX          YY          ZZ     R(length)
         1         0.2280      0.1226      0.0416      0.1307
         2         0.0176     -0.0360     -0.0173     -0.0119
         3        -0.1851     -0.0885     -0.0060     -0.0932
         4         0.0234      0.0127     -0.0094      0.0089
         5        -0.0843     -0.0043     -0.0014     -0.0300
         6        -0.0929     -0.0556     -0.0479     -0.0655
  1/2[<0|del|b>*<b|r|0> + (<0|r|b>*<b|del|0>)*] (Au)
       state          X           Y           Z        Dip. S.   Osc.(frdel)
         1        -0.0847     -0.0909     -0.0000      0.1756      0.1170
         2        -0.0752     -0.0048     -0.0000      0.0800      0.0533
         3        -0.0000     -0.0000     -0.0039      0.0039      0.0026
         4        -0.0000     -0.0000     -0.0057      0.0057      0.0038
         5        -0.0000     -0.0000     -0.0000      0.0000      0.0000
         6        -0.0000     -0.0000     -0.0027      0.0027      0.0018

 Excitation energies and oscillator strengths:
 
 Excited State   1:      Singlet-A      5.1466 eV  240.90 nm  f=0.1182  <S**2>=0.000
      30 -> 33        -0.13956
      30 -> 38         0.20546
      31 -> 33         0.65284
 
 Excited State   2:      Singlet-A      5.1982 eV  238.51 nm  f=0.0559  <S**2>=0.000
      30 -> 33         0.57613
      31 -> 33         0.13511
      31 -> 38        -0.35401
 This state for optimization and/or second-order correction.
 Total Energy, E(TD-HF/TD-DFT) =  -363.413768119    
 Copying the excited state density for this state as the 1-particle RhoCI density.
 
 Excited State   3:      Singlet-A      5.2758 eV  235.01 nm  f=0.0037  <S**2>=0.000
      31 -> 32         0.69043
 
 Excited State   4:      Singlet-A      5.7538 eV  215.48 nm  f=0.0035  <S**2>=0.000
      30 -> 32         0.64564
      31 -> 34         0.20078
      31 -> 35        -0.10510
 
 Excited State   5:      Singlet-A      5.9002 eV  210.14 nm  f=0.0000  <S**2>=0.000
      30 -> 32        -0.21437
      31 -> 34         0.64163
      31 -> 35        -0.11572
 
 Excited State   6:      Singlet-A      5.9572 eV  208.12 nm  f=0.0018  <S**2>=0.000
      31 -> 34         0.13459
      31 -> 35         0.65849
      31 -> 36         0.10265
 SavETr:  write IOETrn=   770 NScale= 10 NData=  16 NLR=1 NState=    6 LETran=     118.
          IDoAtm=1111111111111111
          Differentiating once with respect to electric field.
                with respect to dipole field.
          Differentiating once with respect to nuclear coordinates.
 Keep R1 ints in memory in canonical form, NReq=152083851.
          There are     1 degrees of freedom in the 1st order CPHF.  IDoFFX=0 NUNeed=     1.
 LinEq1:  Iter=  0 NonCon=     1 RMS=3.93D-03 Max=9.29D-02 NDo=     1
 AX will form     1 AO Fock derivatives at one time.
 LinEq1:  Iter=  1 NonCon=     1 RMS=1.34D-03 Max=4.64D-02 NDo=     1
 LinEq1:  Iter=  2 NonCon=     1 RMS=8.44D-04 Max=2.48D-02 NDo=     1
 LinEq1:  Iter=  3 NonCon=     1 RMS=3.39D-04 Max=9.03D-03 NDo=     1
 LinEq1:  Iter=  4 NonCon=     1 RMS=1.36D-04 Max=4.76D-03 NDo=     1
 LinEq1:  Iter=  5 NonCon=     1 RMS=8.18D-05 Max=3.56D-03 NDo=     1
 LinEq1:  Iter=  6 NonCon=     1 RMS=3.30D-05 Max=9.87D-04 NDo=     1
 LinEq1:  Iter=  7 NonCon=     1 RMS=1.64D-05 Max=2.94D-04 NDo=     1
 LinEq1:  Iter=  8 NonCon=     1 RMS=5.78D-06 Max=1.09D-04 NDo=     1
 LinEq1:  Iter=  9 NonCon=     1 RMS=2.77D-06 Max=3.84D-05 NDo=     1
 LinEq1:  Iter= 10 NonCon=     1 RMS=8.65D-07 Max=1.33D-05 NDo=     1
 LinEq1:  Iter= 11 NonCon=     1 RMS=5.21D-07 Max=7.79D-06 NDo=     1
 LinEq1:  Iter= 12 NonCon=     1 RMS=1.28D-07 Max=2.18D-06 NDo=     1
 LinEq1:  Iter= 13 NonCon=     1 RMS=5.60D-08 Max=7.90D-07 NDo=     1
 LinEq1:  Iter= 14 NonCon=     1 RMS=2.08D-08 Max=3.11D-07 NDo=     1
 LinEq1:  Iter= 15 NonCon=     1 RMS=8.89D-09 Max=2.67D-07 NDo=     1
 LinEq1:  Iter= 16 NonCon=     1 RMS=3.88D-09 Max=5.53D-08 NDo=     1
 LinEq1:  Iter= 17 NonCon=     1 RMS=1.16D-09 Max=2.70D-08 NDo=     1
 LinEq1:  Iter= 18 NonCon=     1 RMS=2.30D-10 Max=3.11D-09 NDo=     1
 LinEq1:  Iter= 19 NonCon=     1 RMS=1.03D-10 Max=1.54D-09 NDo=     1
 LinEq1:  Iter= 20 NonCon=     0 RMS=3.12D-11 Max=4.93D-10 NDo=     1
 Linear equations converged to 1.000D-10 1.000D-09 after    20 iterations.
 End of Minotr F.D. properties file   721 does not exist.
 End of Minotr F.D. properties file   722 does not exist.
 End of Minotr F.D. properties file   788 does not exist.

 **********************************************************************

            Population analysis using the CI Density.

 **********************************************************************

 Orbital symmetries:
       Occupied  (A) (A) (A) (A) (A) (A) (A) (A) (A) (A) (A) (A)
                 (A) (A) (A) (A) (A) (A) (A) (A) (A) (A) (A) (A)
                 (A) (A) (A) (A) (A) (A) (A)
       Virtual   (A) (A) (A) (A) (A) (A) (A) (A) (A) (A) (A) (A)
                 (A) (A) (A) (A) (A) (A) (A) (A) (A) (A) (A) (A)
                 (A) (A) (A) (A) (A) (A) (A) (A) (A) (A) (A) (A)
                 (A) (A) (A) (A) (A) (A) (A) (A) (A) (A) (A) (A)
                 (A) (A) (A) (A) (A) (A) (A) (A) (A) (A) (A) (A)
                 (A) (A) (A) (A) (A) (A) (A) (A) (A) (A) (A) (A)
                 (A) (A) (A) (A) (A) (A) (A) (A) (A) (A) (A) (A)
                 (A) (A) (A) (A) (A) (A) (A) (A) (A) (A) (A) (A)
                 (A) (A) (A) (A) (A) (A) (A) (A) (A) (A) (A) (A)
                 (A) (A) (A) (A) (A) (A) (A) (A) (A) (A) (A) (A)
                 (A) (A) (A) (A) (A) (A) (A) (A) (A) (A) (A) (A)
                 (A) (A) (A) (A) (A) (A) (A) (A) (A) (A) (A) (A)
                 (A) (A) (A) (A) (A) (A) (A) (A) (A) (A)
 The electronic state is 1-A.
 Alpha  occ. eigenvalues --  -14.86161 -10.63268 -10.62913 -10.59762 -10.59339
 Alpha  occ. eigenvalues --  -10.59286 -10.59236 -10.58695 -10.58405  -1.11299
 Alpha  occ. eigenvalues --   -0.96102  -0.89780  -0.84603  -0.82651  -0.71856
 Alpha  occ. eigenvalues --   -0.68658  -0.67213  -0.62351  -0.56187  -0.54972
 Alpha  occ. eigenvalues --   -0.51150  -0.50384  -0.49274  -0.48511  -0.46277
 Alpha  occ. eigenvalues --   -0.42410  -0.40149  -0.39369  -0.32927  -0.26259
 Alpha  occ. eigenvalues --   -0.24571
 Alpha virt. eigenvalues --    0.01952   0.02211   0.03761   0.04235   0.05718
 Alpha virt. eigenvalues --    0.05853   0.06074   0.07630   0.08083   0.08587
 Alpha virt. eigenvalues --    0.08731   0.08872   0.10775   0.11624   0.12596
 Alpha virt. eigenvalues --    0.12704   0.13510   0.15017   0.16319   0.16417
 Alpha virt. eigenvalues --    0.17799   0.18309   0.19007   0.19601   0.19905
 Alpha virt. eigenvalues --    0.21253   0.21469   0.21473   0.22543   0.23299
 Alpha virt. eigenvalues --    0.23796   0.24704   0.24848   0.25727   0.26205
 Alpha virt. eigenvalues --    0.26625   0.27631   0.27755   0.28755   0.29276
 Alpha virt. eigenvalues --    0.30520   0.30919   0.32531   0.33654   0.35209
 Alpha virt. eigenvalues --    0.36031   0.36369   0.37674   0.39996   0.42308
 Alpha virt. eigenvalues --    0.43378   0.46105   0.50672   0.51623   0.58054
 Alpha virt. eigenvalues --    0.65594   0.70369   0.74372   0.74893   0.77426
 Alpha virt. eigenvalues --    0.79093   0.79652   0.80758   0.81338   0.82232
 Alpha virt. eigenvalues --    0.83027   0.83845   0.85629   0.87113   0.88031
 Alpha virt. eigenvalues --    0.89292   0.93302   0.97571   0.98278   0.99312
 Alpha virt. eigenvalues --    1.01610   1.02496   1.03317   1.04834   1.06385
 Alpha virt. eigenvalues --    1.08723   1.11027   1.12508   1.14851   1.16894
 Alpha virt. eigenvalues --    1.19111   1.19792   1.24883   1.25893   1.28452
 Alpha virt. eigenvalues --    1.30279   1.32786   1.33665   1.40453   1.41756
 Alpha virt. eigenvalues --    1.43697   1.45189   1.50210   1.51450   1.53918
 Alpha virt. eigenvalues --    1.56188   1.56766   1.60006   1.60642   1.62692
 Alpha virt. eigenvalues --    1.68166   1.74513   1.89236   1.95269   1.99500
 Alpha virt. eigenvalues --    2.00212   2.02541   2.04886   2.10937   2.11191
 Alpha virt. eigenvalues --    2.11970   2.18005   2.21727   2.25795   2.29061
 Alpha virt. eigenvalues --    2.29211   2.31581   2.36986   2.38079   2.38633
 Alpha virt. eigenvalues --    2.40133   2.43212   2.50444   2.53318   2.56553
 Alpha virt. eigenvalues --    2.67071   2.68748   2.76022   2.78224   2.79952
 Alpha virt. eigenvalues --    2.82787   2.86437   2.93880   2.97335   2.98943
 Alpha virt. eigenvalues --    3.08504   3.10777   3.25134   3.38099   3.58903
 Alpha virt. eigenvalues --    4.30245   4.40597   4.43564   4.47119   4.50723
 Alpha virt. eigenvalues --    4.54448   4.62741   4.66691   4.93998
          Condensed to atoms (all electrons):
               1          2          3          4          5          6
     1  C    5.795923   0.335550   0.101316  -0.403944  -0.081775  -0.093442
     2  C    0.335550   5.971120  -0.042437   0.219175  -0.671646   0.567090
     3  C    0.101316  -0.042437  12.070829  -1.633085  -3.006308  -2.621289
     4  C   -0.403944   0.219175  -1.633085  11.959931  -3.101197  -0.895958
     5  C   -0.081775  -0.671646  -3.006308  -3.101197  13.153023  -0.200280
     6  C   -0.093442   0.567090  -2.621289  -0.895958  -0.200280  12.141977
     7  N   -0.033761   0.004365  -0.523347  -0.299256   0.855964   0.142509
     8  C    0.110467  -0.248439   2.711672   1.554159  -3.932117  -3.387177
     9  C   -0.072080   0.017480  -1.014592  -0.718435   1.576930   0.955790
    10  H   -0.002519  -0.009124  -0.128291  -0.072871   0.168679   0.029940
    11  H    0.000766   0.000945   0.004826   0.044603  -0.018418  -0.017140
    12  H    0.001034   0.000303   0.031452   0.094434  -0.094651  -0.021813
    13  H    0.012315   0.276509   0.004608   0.009799   0.013155  -0.003621
    14  H    0.012542   0.045498   0.259198   0.009718  -0.004216  -0.019387
    15  H    0.290226   0.008564   0.018191  -0.018447   0.030671  -0.021904
    16  H    0.015691   0.008660  -0.027133   0.027053   0.066912   0.238959
               7          8          9         10         11         12
     1  C   -0.033761   0.110467  -0.072080  -0.002519   0.000766   0.001034
     2  C    0.004365  -0.248439   0.017480  -0.009124   0.000945   0.000303
     3  C   -0.523347   2.711672  -1.014592  -0.128291   0.004826   0.031452
     4  C   -0.299256   1.554159  -0.718435  -0.072871   0.044603   0.094434
     5  C    0.855964  -3.932117   1.576930   0.168679  -0.018418  -0.094651
     6  C    0.142509  -3.387177   0.955790   0.029940  -0.017140  -0.021813
     7  N    7.339910  -0.726673   0.545554   0.285514   0.005940  -0.056360
     8  C   -0.726673  11.111739  -1.608819  -0.017180   0.316171   0.046182
     9  C    0.545554  -1.608819   6.295710  -0.008552  -0.027559   0.317708
    10  H    0.285514  -0.017180  -0.008552   0.307740  -0.000082  -0.001974
    11  H    0.005940   0.316171  -0.027559  -0.000082   0.470091  -0.000517
    12  H   -0.056360   0.046182   0.317708  -0.001974  -0.000517   0.461813
    13  H   -0.000420   0.000604   0.001042  -0.000001   0.000000  -0.000000
    14  H   -0.004678  -0.001070   0.005423   0.001621   0.000002   0.000002
    15  H    0.000268   0.006121  -0.000013  -0.000000  -0.000001  -0.000000
    16  H   -0.000881  -0.029752   0.003912   0.000003   0.001195  -0.000001
              13         14         15         16
     1  C    0.012315   0.012542   0.290226   0.015691
     2  C    0.276509   0.045498   0.008564   0.008660
     3  C    0.004608   0.259198   0.018191  -0.027133
     4  C    0.009799   0.009718  -0.018447   0.027053
     5  C    0.013155  -0.004216   0.030671   0.066912
     6  C   -0.003621  -0.019387  -0.021904   0.238959
     7  N   -0.000420  -0.004678   0.000268  -0.000881
     8  C    0.000604  -0.001070   0.006121  -0.029752
     9  C    0.001042   0.005423  -0.000013   0.003912
    10  H   -0.000001   0.001621  -0.000000   0.000003
    11  H    0.000000   0.000002  -0.000001   0.001195
    12  H   -0.000000   0.000002  -0.000000  -0.000001
    13  H    0.487504  -0.003134  -0.003185  -0.000130
    14  H   -0.003134   0.493567  -0.000130   0.000015
    15  H   -0.003185  -0.000130   0.485996  -0.003058
    16  H   -0.000130   0.000015  -0.003058   0.491669
 Mulliken charges:
               1
     1  C    0.011690
     2  C   -0.483613
     3  C   -0.205609
     4  C   -0.775678
     5  C    1.245273
     6  C   -0.794257
     7  N   -0.534650
     8  C    0.094113
     9  C   -0.269499
    10  H    0.447097
    11  H    0.219177
    12  H    0.222387
    13  H    0.204955
    14  H    0.205028
    15  H    0.206703
    16  H    0.206885
 Sum of Mulliken charges =  -0.00000
 Mulliken charges with hydrogens summed into heavy atoms:
               1
     1  C    0.218392
     2  C   -0.278658
     3  C   -0.000582
     4  C   -0.775678
     5  C    1.245273
     6  C   -0.587372
     7  N   -0.087553
     8  C    0.313290
     9  C   -0.047112
 Electronic spatial extent (au):  <R**2>=           1008.5779
 Charge=             -0.0000 electrons
 Dipole moment (field-independent basis, Debye):
    X=              1.9968    Y=             -1.3790    Z=             -0.0003  Tot=              2.4267
 Quadrupole moment (field-independent basis, Debye-Ang):
   XX=            -46.1565   YY=            -46.6106   ZZ=            -60.4170
   XY=             -3.1882   XZ=              0.0001   YZ=             -0.0008
 Traceless Quadrupole moment (field-independent basis, Debye-Ang):
   XX=              4.9049   YY=              4.4507   ZZ=             -9.3556
   XY=             -3.1882   XZ=              0.0001   YZ=             -0.0008
 Octapole moment (field-independent basis, Debye-Ang**2):
  XXX=             16.1834  YYY=             -9.3330  ZZZ=             -0.0098  XYY=             11.1330
  XXY=             -6.9246  XXZ=             -0.0021  XZZ=              2.8255  YZZ=             -1.2318
  YYZ=             -0.0067  XYZ=             -0.0039
 Hexadecapole moment (field-independent basis, Debye-Ang**3):
 XXXX=           -839.6233 YYYY=           -387.0405 ZZZZ=            -85.2449 XXXY=            -22.0857
 XXXZ=             -0.0160 YYYX=            -18.9419 YYYZ=              0.0059 ZZZX=             -0.0090
 ZZZY=              0.0093 XXYY=           -198.9186 XXZZ=           -201.2224 YYZZ=           -102.3490
 XXYZ=              0.0025 YYXZ=              0.0038 ZZXY=             -3.5970
 N-N= 4.013368668897D+02 E-N=-1.645132583819D+03  KE= 3.609496368599D+02
 Calling FoFJK, ICntrl=  10005127 FMM=F ISym2X=0 I1Cent= 0 IOpClX= 0 NMat=1 NMatS=1 NMatT=0.
 ***** Axes restored to original set *****
 -------------------------------------------------------------------
 Center     Atomic                   Forces (Hartrees/Bohr)
 Number     Number              X              Y              Z
 -------------------------------------------------------------------
      1        6          -0.020117919    0.000752970   -0.000005620
      2        6          -0.019980581   -0.006474381    0.000001995
      3        6           0.007132863   -0.028994673    0.000006910
      4        6           0.020603871   -0.021219089   -0.000022980
      5        6           0.016764348    0.025637422   -0.000027731
      6        6           0.013875940    0.029885496    0.000006845
      7        7          -0.019776043   -0.004149575    0.000041046
      8        6          -0.015820517    0.002971249    0.000034562
      9        6           0.016422312    0.000793139   -0.000044684
     10        1          -0.001353085    0.002826991    0.000002936
     11        1          -0.001154033   -0.002297486    0.000010213
     12        1          -0.002820513    0.000261012   -0.000003825
     13        1           0.002774790    0.001839399    0.000000847
     14        1           0.000274941    0.003614120   -0.000001148
     15        1           0.002726702   -0.001676011   -0.000000587
     16        1           0.000446924   -0.003770583    0.000001222
 -------------------------------------------------------------------
 Cartesian Forces:  Max     0.029885496 RMS     0.010847307

 GradGradGradGradGradGradGradGradGradGradGradGradGradGradGradGradGradGrad
 Berny optimization.
 FormGI is forming the generalized inverse of G from B-inverse, IUseBI=4.
 Internal  Forces:  Max     0.027929842 RMS     0.006170017
 Search for a local minimum.
 Step number   1 out of a maximum of   94
 All quantities printed in internal units (Hartrees-Bohrs-Radians)
 Mixed Optimization -- RFO/linear search
 Second derivative matrix not updated -- first step.
 ITU=  0
     Eigenvalues ---    0.01853   0.01931   0.01986   0.02012   0.02070
     Eigenvalues ---    0.02113   0.02148   0.02153   0.02172   0.02209
     Eigenvalues ---    0.02233   0.02248   0.02338   0.16000   0.16000
     Eigenvalues ---    0.16000   0.16000   0.16000   0.16000   0.16000
     Eigenvalues ---    0.22000   0.22188   0.22662   0.24011   0.24651
     Eigenvalues ---    0.35712   0.35717   0.35783   0.35790   0.36420
     Eigenvalues ---    0.36427   0.37009   0.38432   0.42633   0.43465
     Eigenvalues ---    0.45769   0.46692   0.47162   0.47468   0.47567
     Eigenvalues ---    0.48125   0.50955
 RFO step:  Lambda=-7.27311998D-03 EMin= 1.85287394D-02
 Linear search not attempted -- first point.
 Iteration  1 RMS(Cart)=  0.01697818 RMS(Int)=  0.00011231
 Iteration  2 RMS(Cart)=  0.00018042 RMS(Int)=  0.00001873
 Iteration  3 RMS(Cart)=  0.00000002 RMS(Int)=  0.00001873
 Variable       Old X    -DE/DX   Delta X   Delta X   Delta X     New X
                                 (Linear)    (Quad)   (Total)
    R1        2.65547   0.01793   0.00000   0.03960   0.03957   2.69505
    R2        2.61291   0.02616   0.00000   0.05310   0.05309   2.66600
    R3        2.04421  -0.00320   0.00000  -0.00875  -0.00875   2.03546
    R4        2.61557   0.02015   0.00000   0.04116   0.04114   2.65671
    R5        2.04411  -0.00332   0.00000  -0.00910  -0.00910   2.03501
    R6        2.63373   0.01332   0.00000   0.02802   0.02803   2.66176
    R7        2.04534  -0.00361   0.00000  -0.00991  -0.00991   2.03543
    R8        2.68058   0.02793   0.00000   0.06429   0.06428   2.74486
    R9        2.60126  -0.01452   0.00000  -0.02910  -0.02911   2.57216
   R10        2.64771   0.00762   0.00000   0.01639   0.01642   2.66412
   R11        2.70839  -0.01192   0.00000  -0.02839  -0.02840   2.67999
   R12        2.04526  -0.00378   0.00000  -0.01038  -0.01038   2.03489
   R13        2.60573   0.00988   0.00000   0.01939   0.01942   2.62514
   R14        1.89542  -0.00311   0.00000  -0.00649  -0.00649   1.88893
   R15        2.57870   0.00802   0.00000   0.01530   0.01532   2.59402
   R16        2.03419  -0.00255   0.00000  -0.00688  -0.00688   2.02731
   R17        2.03430  -0.00283   0.00000  -0.00762  -0.00762   2.02668
    A1        2.11420   0.00423   0.00000   0.01974   0.01970   2.13391
    A2        2.07986  -0.00231   0.00000  -0.01101  -0.01099   2.06886
    A3        2.08912  -0.00193   0.00000  -0.00873  -0.00871   2.08041
    A4        2.11523   0.00079   0.00000   0.00467   0.00461   2.11984
    A5        2.08365  -0.00059   0.00000  -0.00348  -0.00345   2.08021
    A6        2.08430  -0.00020   0.00000  -0.00119  -0.00116   2.08314
    A7        2.05144  -0.00552   0.00000  -0.02363  -0.02366   2.02778
    A8        2.11267   0.00309   0.00000   0.01380   0.01382   2.12648
    A9        2.11908   0.00243   0.00000   0.00983   0.00984   2.12892
   A10        2.13389   0.00455   0.00000   0.01799   0.01803   2.15192
   A11        2.27895  -0.00294   0.00000  -0.01112  -0.01112   2.26783
   A12        1.87035  -0.00160   0.00000  -0.00687  -0.00691   1.86344
   A13        2.07274   0.00186   0.00000   0.00675   0.00682   2.07956
   A14        1.86517  -0.00145   0.00000  -0.00485  -0.00491   1.86026
   A15        2.34527  -0.00040   0.00000  -0.00190  -0.00190   2.34337
   A16        2.07887  -0.00591   0.00000  -0.02552  -0.02551   2.05337
   A17        2.10306   0.00330   0.00000   0.01486   0.01485   2.11791
   A18        2.10125   0.00260   0.00000   0.01066   0.01066   2.11191
   A19        1.90743   0.00255   0.00000   0.00954   0.00957   1.91699
   A20        2.19023  -0.00166   0.00000  -0.00703  -0.00704   2.18319
   A21        2.18553  -0.00090   0.00000  -0.00251  -0.00253   2.18300
   A22        1.86968   0.00193   0.00000   0.00924   0.00926   1.87895
   A23        2.21717  -0.00126   0.00000  -0.00638  -0.00639   2.21078
   A24        2.19633  -0.00067   0.00000  -0.00287  -0.00288   2.19345
   A25        1.91215  -0.00143   0.00000  -0.00706  -0.00701   1.90514
   A26        2.10250   0.00067   0.00000   0.00330   0.00328   2.10578
   A27        2.26854   0.00075   0.00000   0.00376   0.00373   2.27227
    D1       -0.00001  -0.00000   0.00000  -0.00006  -0.00006  -0.00008
    D2       -3.14156  -0.00000   0.00000  -0.00009  -0.00009   3.14153
    D3        3.14152   0.00000   0.00000   0.00004   0.00004   3.14156
    D4       -0.00002   0.00000   0.00000   0.00001   0.00001  -0.00001
    D5       -0.00003   0.00000   0.00000   0.00016   0.00016   0.00013
    D6        3.14153   0.00000   0.00000   0.00012   0.00012  -3.14153
    D7       -3.14157   0.00000   0.00000   0.00006   0.00006  -3.14151
    D8       -0.00001   0.00000   0.00000   0.00002   0.00002   0.00001
    D9        0.00003  -0.00000   0.00000  -0.00008  -0.00008  -0.00004
   D10       -3.14154  -0.00000   0.00000  -0.00001  -0.00001  -3.14155
   D11        3.14158  -0.00000   0.00000  -0.00005  -0.00005   3.14153
   D12        0.00001   0.00000   0.00000   0.00002   0.00002   0.00003
   D13       -0.00001   0.00000   0.00000   0.00012   0.00012   0.00011
   D14       -3.14144  -0.00000   0.00000  -0.00005  -0.00005  -3.14149
   D15        3.14156   0.00000   0.00000   0.00005   0.00005  -3.14158
   D16        0.00013  -0.00000   0.00000  -0.00012  -0.00012   0.00001
   D17       -0.00004  -0.00000   0.00000  -0.00002  -0.00002  -0.00005
   D18       -3.14151  -0.00001   0.00000  -0.00020  -0.00020   3.14147
   D19        3.14143   0.00000   0.00000   0.00011   0.00011   3.14154
   D20       -0.00005  -0.00000   0.00000  -0.00007  -0.00007  -0.00012
   D21       -3.14124  -0.00001   0.00000  -0.00026  -0.00026  -3.14150
   D22       -0.00113   0.00000   0.00000   0.00009   0.00009  -0.00104
   D23        0.00049  -0.00001   0.00000  -0.00041  -0.00041   0.00009
   D24        3.14060  -0.00000   0.00000  -0.00005  -0.00006   3.14055
   D25        0.00005  -0.00000   0.00000  -0.00012  -0.00012  -0.00007
   D26       -3.14151  -0.00000   0.00000  -0.00008  -0.00008  -3.14159
   D27        3.14150   0.00000   0.00000   0.00012   0.00012  -3.14157
   D28       -0.00007   0.00000   0.00000   0.00016   0.00016   0.00010
   D29       -0.00041   0.00001   0.00000   0.00052   0.00052   0.00011
   D30        3.14139   0.00001   0.00000   0.00020   0.00020   3.14159
   D31        3.14132   0.00001   0.00000   0.00029   0.00029  -3.14157
   D32       -0.00006  -0.00000   0.00000  -0.00002  -0.00002  -0.00009
   D33       -0.00077   0.00002   0.00000   0.00075   0.00075  -0.00002
   D34        3.14133   0.00001   0.00000   0.00023   0.00023   3.14156
   D35       -3.14089   0.00001   0.00000   0.00041   0.00041  -3.14048
   D36        0.00121  -0.00000   0.00000  -0.00011  -0.00011   0.00110
   D37        0.00072  -0.00002   0.00000  -0.00078  -0.00078  -0.00006
   D38       -3.14144  -0.00001   0.00000  -0.00019  -0.00019   3.14155
   D39       -3.14107  -0.00001   0.00000  -0.00047  -0.00047  -3.14154
   D40       -0.00005   0.00000   0.00000   0.00011   0.00011   0.00006
         Item               Value     Threshold  Converged?
 Maximum Force            0.027930     0.000450     NO 
 RMS     Force            0.006170     0.000300     NO 
 Maximum Displacement     0.073228     0.001800     NO 
 RMS     Displacement     0.017019     0.001200     NO 
 Predicted change in Energy=-3.700006D-03
 GradGradGradGradGradGradGradGradGradGradGradGradGradGradGradGradGradGrad

                          Input orientation:                          
 ---------------------------------------------------------------------
 Center     Atomic      Atomic             Coordinates (Angstroms)
 Number     Number       Type             X           Y           Z
 ---------------------------------------------------------------------
      1          6           0       -2.154354    0.694651   -0.000029
      2          6           0       -2.136930   -0.731401    0.000030
      3          6           0       -0.928818   -1.450380    0.000058
      4          6           0        0.251698   -0.682022   -0.000032
      5          6           0        0.257705    0.770484   -0.000017
      6          6           0       -0.970683    1.462276    0.000027
      7          7           0        1.553322   -1.080069   -0.000141
      8          6           0        1.618557    1.169667    0.000041
      9          6           0        2.386236    0.031703   -0.000081
     10          1           0        1.863591   -2.030275    0.000678
     11          1           0        1.991110    2.175708    0.000065
     12          1           0        3.452461   -0.083892   -0.000120
     13          1           0       -3.070596   -1.268001    0.000039
     14          1           0       -0.908508   -2.527293    0.000060
     15          1           0       -3.106828    1.197624   -0.000076
     16          1           0       -1.001059    2.538665    0.000034
 ---------------------------------------------------------------------
                    Distance matrix (angstroms):
                    1          2          3          4          5
     1  C    0.000000
     2  C    1.426158   0.000000
     3  C    2.470445   1.405869   0.000000
     4  C    2.772059   2.389138   1.408543   0.000000
     5  C    2.413251   2.826648   2.517951   1.452518   0.000000
     6  C    1.410788   2.484422   2.912958   2.468244   1.409793
     7  N    4.110534   3.706687   2.509611   1.361127   2.259019
     8  C    3.802695   4.209244   3.654280   2.301532   1.418190
     9  C    4.588731   4.587086   3.631274   2.250701   2.253096
    10  H    4.854802   4.206096   2.851986   2.101425   3.228486
    11  H    4.402090   5.048960   4.655587   3.345470   2.231444
    12  H    5.660610   5.626772   4.589433   3.256170   3.307026
    13  H    2.165989   1.076881   2.149530   3.373576   3.902950
    14  H    3.454425   2.175833   1.077104   2.179703   3.497912
    15  H    1.077121   2.159129   3.428652   3.848736   3.391539
    16  H    2.174965   3.461724   3.989699   3.455752   2.170472
                    6          7          8          9         10
     6  C    0.000000
     7  N    3.582474   0.000000
     8  C    2.605721   2.250681   0.000000
     9  C    3.649034   1.389166   1.372696   0.000000
    10  H    4.497891   0.999580   3.209310   2.127184   0.000000
    11  H    3.046506   3.285079   1.072807   2.180111   4.207916
    12  H    4.685600   2.144551   2.221399   1.072473   2.512552
    13  H    3.444423   4.627735   5.284920   5.609479   4.992721
    14  H    3.990054   2.855707   4.478121   4.171786   2.816302
    15  H    2.152477   5.186991   4.725468   5.615437   5.926584
    16  H    1.076817   4.429458   2.955764   4.214099   5.392720
                   11         12         13         14         15
    11  H    0.000000
    12  H    2.690974   0.000000
    13  H    6.122091   6.629660   0.000000
    14  H    5.525034   4.998826   2.502087   0.000000
    15  H    5.190917   6.683305   2.465891   4.325230   0.000000
    16  H    3.014102   5.168331   4.332862   5.066803   2.496528
                   16
    16  H    0.000000
 Stoichiometry    C8H7N
 Framework group  C1[X(C8H7N)]
 Deg. of freedom    42
 Full point group                 C1      NOp   1
 Largest Abelian subgroup         C1      NOp   1
 Largest concise Abelian subgroup C1      NOp   1
                         Standard orientation:                         
 ---------------------------------------------------------------------
 Center     Atomic      Atomic             Coordinates (Angstroms)
 Number     Number       Type             X           Y           Z
 ---------------------------------------------------------------------
      1          6           0       -2.152090    0.702799   -0.000024
      2          6           0       -2.140404   -0.723311    0.000035
      3          6           0       -0.935193   -1.447145    0.000063
      4          6           0        0.248404   -0.683541   -0.000026
      5          6           0        0.260254    0.768929   -0.000011
      6          6           0       -0.965342    1.465657    0.000032
      7          7           0        1.548415   -1.086822   -0.000136
      8          6           0        1.622700    1.162633    0.000046
      9          6           0        2.385796    0.021590   -0.000075
     10          1           0        1.854859   -2.038268    0.000683
     11          1           0        1.999297    2.167168    0.000070
     12          1           0        3.451547   -0.098292   -0.000114
     13          1           0       -3.076221   -1.256151    0.000044
     14          1           0       -0.919216   -2.524130    0.000065
     15          1           0       -3.102534    1.209600   -0.000071
     16          1           0       -0.991387    2.542158    0.000039
 ---------------------------------------------------------------------
 Rotational constants (GHZ):           3.7852969           1.6417045           1.1450778
 Standard basis: 6-31+G(d) (6D, 7F)
 There are   185 symmetry adapted cartesian basis functions of A   symmetry.
 There are   185 symmetry adapted basis functions of A   symmetry.
   185 basis functions,   316 primitive gaussians,   185 cartesian basis functions
    31 alpha electrons       31 beta electrons
       nuclear repulsion energy       398.8535546465 Hartrees.
 NAtoms=   16 NActive=   16 NUniq=   16 SFac= 1.00D+00 NAtFMM=   60 NAOKFM=F Big=F
 Integral buffers will be    131072 words long.
 Regular integral format.
 Two-electron integral symmetry is turned on.
 One-electron integrals computed using PRISM.
 NBasis=   185 RedAO= T EigKep=  1.41D-06  NBF=   185
 NBsUse=   185 1.00D-06 EigRej= -1.00D+00 NBFU=   185
 Initial guess from the checkpoint file:  "FuncsBHandHLYP-V-2nd.chk"
 B after Tr=     0.000000   -0.000000    0.000000
         Rot=    0.999998    0.000005    0.000001    0.001968 Ang=   0.23 deg.
 ExpMin= 4.38D-02 ExpMax= 4.17D+03 ExpMxC= 6.27D+02 IAcc=3 IRadAn=         5 AccDes= 0.00D+00
 Harris functional with IExCor=  402 and IRadAn=       5 diagonalized for initial guess.
 HarFok:  IExCor=  402 AccDes= 0.00D+00 IRadAn=         5 IDoV= 1 UseB2=F ITyADJ=14
 ICtDFT=  3500011 ScaDFX=  1.000000  1.000000  1.000000  1.000000
 FoFCou: FMM=F IPFlag=           0 FMFlag=      100000 FMFlg1=           0
         NFxFlg=           0 DoJE=T BraDBF=F KetDBF=T FulRan=T
         wScrn=  0.000000 ICntrl=       500 IOpCl=  0 I1Cent=   200000004 NGrid=           0
         NMat0=    1 NMatS0=      1 NMatT0=    0 NMatD0=    1 NMtDS0=    0 NMtDT0=    0
 Petite list used in FoFCou.
 Keep R1 ints in memory in canonical form, NReq=152071459.
 Requested convergence on RMS density matrix=1.00D-08 within 128 cycles.
 Requested convergence on MAX density matrix=1.00D-06.
 Requested convergence on             energy=1.00D-06.
 No special actions if energy rises.
 SCF Done:  E(RBHandHLYP) =  -363.600524487     A.U. after   13 cycles
            NFock= 13  Conv=0.75D-08     -V/T= 2.0086
 DoSCS=F DFT=T ScalE2(SS,OS)=  1.000000  1.000000
 ExpMin= 4.38D-02 ExpMax= 4.17D+03 ExpMxC= 6.27D+02 IAcc=3 IRadAn=         5 AccDes= 0.00D+00
 HarFok:  IExCor=  205 AccDes= 0.00D+00 IRadAn=         5 IDoV=-2 UseB2=F ITyADJ=14
 ICtDFT= 12500011 ScaDFX=  1.000000  1.000000  1.000000  1.000000
 Range of M.O.s used for correlation:    10   185
 NBasis=   185 NAE=    31 NBE=    31 NFC=     9 NFV=     0
 NROrb=    176 NOA=    22 NOB=    22 NVA=   154 NVB=   154

 **** Warning!!: The largest alpha MO coefficient is  0.20432550D+03

 Orbital symmetries:
       Occupied  (A) (A) (A) (A) (A) (A) (A) (A) (A) (A) (A) (A)
                 (A) (A) (A) (A) (A) (A) (A) (A) (A) (A) (A) (A)
                 (A) (A) (A) (A) (A) (A) (A)
       Virtual   (A) (A) (A) (A) (A) (A) (A) (A) (A) (A) (A) (A)
                 (A) (A) (A) (A) (A) (A) (A) (A) (A) (A) (A) (A)
                 (A) (A) (A) (A) (A) (A) (A) (A) (A) (A) (A) (A)
                 (A) (A) (A) (A) (A) (A) (A) (A) (A) (A) (A) (A)
                 (A) (A) (A) (A) (A) (A) (A) (A) (A) (A) (A) (A)
                 (A) (A) (A) (A) (A) (A) (A) (A) (A) (A) (A) (A)
                 (A) (A) (A) (A) (A) (A) (A) (A) (A) (A) (A) (A)
                 (A) (A) (A) (A) (A) (A) (A) (A) (A) (A) (A) (A)
                 (A) (A) (A) (A) (A) (A) (A) (A) (A) (A) (A) (A)
                 (A) (A) (A) (A) (A) (A) (A) (A) (A) (A) (A) (A)
                 (A) (A) (A) (A) (A) (A) (A) (A) (A) (A) (A) (A)
                 (A) (A) (A) (A) (A) (A) (A) (A) (A) (A) (A) (A)
                 (A) (A) (A) (A) (A) (A) (A) (A) (A) (A)
 Generating guess from densities on rwf.
 Convergence on wavefunction:    0.000001000000000
 Iteration     1 Dimension    12 NMult     0 NNew     12
 CISAX will form    12 AO SS matrices at one time.
 New state      1 was old state      2
 New state      2 was old state      1
 New state      5 was old state      6
 New state      6 was old state      5
 Iteration     2 Dimension    24 NMult    12 NNew     12
 New state      5 was old state      6
 New state      6 was old state      5
 Iteration     3 Dimension    36 NMult    24 NNew     12
 Iteration     4 Dimension    48 NMult    36 NNew     12
 Iteration     5 Dimension    60 NMult    48 NNew     12
 Iteration     6 Dimension    72 NMult    60 NNew     12
 Iteration     7 Dimension    84 NMult    72 NNew     12
 Iteration     8 Dimension    96 NMult    84 NNew     12
 Iteration     9 Dimension   108 NMult    96 NNew     12
 Iteration    10 Dimension   118 NMult   108 NNew     10
 Iteration    11 Dimension   120 NMult   118 NNew      2
 ***********************************************************************
 Excited states from <AA,BB:AA,BB> singles matrix:
 ***********************************************************************
 
 Ground to excited state transition densities written to RWF  633
 Ground to excited state transition electric dipole moments (Au):
       state          X           Y           Z        Dip. S.      Osc.
         1        -0.7962      0.6417     -0.0001      1.0458      0.1286
         2        -0.6075     -0.3136     -0.0000      0.4674      0.0570
         3         0.0005     -0.0002     -0.1874      0.0351      0.0045
         4        -0.0002      0.0000     -0.1298      0.0169      0.0023
         5        -0.0001     -0.0001     -0.0253      0.0006      0.0001
         6         0.0000      0.0000      0.0904      0.0082      0.0012
 Ground to excited state transition velocity dipole moments (Au):
       state          X           Y           Z        Dip. S.      Osc.
         1         0.1354     -0.1257      0.0000      0.0341      0.1233
         2         0.1067      0.0603      0.0000      0.0150      0.0547
         3        -0.0001      0.0000      0.0266      0.0007      0.0024
         4         0.0000     -0.0000      0.0293      0.0009      0.0028
         5         0.0000      0.0000      0.0062      0.0000      0.0001
         6        -0.0000     -0.0000     -0.0194      0.0004      0.0012
 Ground to excited state transition magnetic dipole moments (Au):
       state          X           Y           Z
         1         0.0000      0.0000      0.1182
         2        -0.0001     -0.0001     -0.1712
         3         0.1152     -0.1229      0.0001
         4         0.0570     -0.2604     -0.0001
         5         0.2558     -0.3537      0.0000
         6         0.2815      0.3092      0.0002
 Ground to excited state transition velocity quadrupole moments (Au):
       state          XX          YY          ZZ          XY          XZ          YZ
         1         0.2815     -0.1735      0.0241      0.0089      0.0000     -0.0001
         2         0.0308     -0.1026      0.0212     -0.0436      0.0000     -0.0000
         3        -0.0002      0.0001      0.0001      0.0000      0.1075      0.0316
         4         0.0001     -0.0001     -0.0001     -0.0001      0.1683      0.0054
         5         0.0001     -0.0001     -0.0000     -0.0001      0.3823      0.2720
         6         0.0000      0.0000      0.0000      0.0001     -0.2365      0.1588
 <0|del|b> * <b|rxdel|0> + <0|del|b> * <b|delr+rdel|0>
 Rotatory Strengths (R) in cgs (10**-40 erg-esu-cm/Gauss)
       state          XX          YY          ZZ    R(velocity)    E-M Angle
         1         0.0054     -0.0012      0.0150      0.0064       90.00
         2        -0.0129     -0.0208     -0.0203     -0.0180       90.00
         3        -0.0092     -0.0218     -0.0149     -0.0153       90.00
         4        -0.0033      0.0043      0.0050      0.0020       90.00
         5        -0.0141      0.0104      0.0002     -0.0012       90.00
         6        -0.0093     -0.0041     -0.0006     -0.0047       90.00
 1/2[<0|r|b>*<b|rxdel|0> + (<0|rxdel|b>*<b|r|0>)*]
 Rotatory Strengths (R) in cgs (10**-40 erg-esu-cm/Gauss)
       state          XX          YY          ZZ     R(length)
         1         0.0259     -0.0070      0.0057      0.0082
         2        -0.0341     -0.0164     -0.0037     -0.0181
         3        -0.0424     -0.0159      0.0132     -0.0150
         4         0.0094      0.0054     -0.0065      0.0027
         5         0.0094     -0.0134      0.0001     -0.0013
         6        -0.0050     -0.0036     -0.0108     -0.0065
  1/2[<0|del|b>*<b|r|0> + (<0|r|b>*<b|del|0>)*] (Au)
       state          X           Y           Z        Dip. S.   Osc.(frdel)
         1        -0.1078     -0.0806     -0.0000      0.1884      0.1256
         2        -0.0648     -0.0189     -0.0000      0.0837      0.0558
         3        -0.0000     -0.0000     -0.0050      0.0050      0.0033
         4        -0.0000     -0.0000     -0.0038      0.0038      0.0025
         5        -0.0000     -0.0000     -0.0002      0.0002      0.0001
         6        -0.0000     -0.0000     -0.0018      0.0018      0.0012

 Excitation energies and oscillator strengths:
 
 Excited State   1:      Singlet-A      5.0206 eV  246.95 nm  f=0.1286  <S**2>=0.000
      30 -> 37         0.22708
      31 -> 32         0.65938
 
 Excited State   2:      Singlet-A      4.9779 eV  249.07 nm  f=0.0570  <S**2>=0.000
      30 -> 32         0.60594
      31 -> 37        -0.33313
 This state for optimization and/or second-order correction.
 Total Energy, E(TD-HF/TD-DFT) =  -363.417591693    
 Copying the excited state density for this state as the 1-particle RhoCI density.
 
 Excited State   3:      Singlet-A      5.2684 eV  235.33 nm  f=0.0045  <S**2>=0.000
      31 -> 33         0.69096
 
 Excited State   4:      Singlet-A      5.6108 eV  220.97 nm  f=0.0023  <S**2>=0.000
      30 -> 33         0.67292
      31 -> 34         0.11296
 
 Excited State   5:      Singlet-A      5.8780 eV  210.93 nm  f=0.0001  <S**2>=0.000
      30 -> 33        -0.11649
      31 -> 34         0.65431
      31 -> 35        -0.17869
 
 Excited State   6:      Singlet-A      5.9373 eV  208.82 nm  f=0.0012  <S**2>=0.000
      31 -> 34         0.17840
      31 -> 35         0.64656
 SavETr:  write IOETrn=   770 NScale= 10 NData=  16 NLR=1 NState=    6 LETran=     118.
          IDoAtm=1111111111111111
          Differentiating once with respect to electric field.
                with respect to dipole field.
          Differentiating once with respect to nuclear coordinates.
 Keep R1 ints in memory in canonical form, NReq=152083851.
          There are     1 degrees of freedom in the 1st order CPHF.  IDoFFX=0 NUNeed=     1.
 LinEq1:  Iter=  0 NonCon=     1 RMS=4.08D-03 Max=8.20D-02 NDo=     1
 AX will form     1 AO Fock derivatives at one time.
 LinEq1:  Iter=  1 NonCon=     1 RMS=1.30D-03 Max=4.33D-02 NDo=     1
 LinEq1:  Iter=  2 NonCon=     1 RMS=8.06D-04 Max=2.54D-02 NDo=     1
 LinEq1:  Iter=  3 NonCon=     1 RMS=3.44D-04 Max=9.56D-03 NDo=     1
 LinEq1:  Iter=  4 NonCon=     1 RMS=1.57D-04 Max=4.34D-03 NDo=     1
 LinEq1:  Iter=  5 NonCon=     1 RMS=8.52D-05 Max=3.61D-03 NDo=     1
 LinEq1:  Iter=  6 NonCon=     1 RMS=3.47D-05 Max=1.20D-03 NDo=     1
 LinEq1:  Iter=  7 NonCon=     1 RMS=1.93D-05 Max=3.90D-04 NDo=     1
 LinEq1:  Iter=  8 NonCon=     1 RMS=7.89D-06 Max=1.75D-04 NDo=     1
 LinEq1:  Iter=  9 NonCon=     1 RMS=3.83D-06 Max=5.88D-05 NDo=     1
 LinEq1:  Iter= 10 NonCon=     1 RMS=1.21D-06 Max=2.16D-05 NDo=     1
 LinEq1:  Iter= 11 NonCon=     1 RMS=6.71D-07 Max=1.11D-05 NDo=     1
 LinEq1:  Iter= 12 NonCon=     1 RMS=2.16D-07 Max=4.33D-06 NDo=     1
 LinEq1:  Iter= 13 NonCon=     1 RMS=1.17D-07 Max=2.13D-06 NDo=     1
 LinEq1:  Iter= 14 NonCon=     1 RMS=3.95D-08 Max=7.80D-07 NDo=     1
 LinEq1:  Iter= 15 NonCon=     1 RMS=1.93D-08 Max=3.82D-07 NDo=     1
 LinEq1:  Iter= 16 NonCon=     1 RMS=8.03D-09 Max=1.17D-07 NDo=     1
 LinEq1:  Iter= 17 NonCon=     1 RMS=1.68D-09 Max=2.35D-08 NDo=     1
 LinEq1:  Iter= 18 NonCon=     1 RMS=3.08D-10 Max=3.45D-09 NDo=     1
 LinEq1:  Iter= 19 NonCon=     1 RMS=1.35D-10 Max=2.01D-09 NDo=     1
 LinEq1:  Iter= 20 NonCon=     0 RMS=4.62D-11 Max=6.82D-10 NDo=     1
 Linear equations converged to 1.000D-10 1.000D-09 after    20 iterations.
 End of Minotr F.D. properties file   721 does not exist.
 End of Minotr F.D. properties file   722 does not exist.
 End of Minotr F.D. properties file   788 does not exist.
 Calling FoFJK, ICntrl=  10005127 FMM=F ISym2X=0 I1Cent= 0 IOpClX= 0 NMat=1 NMatS=1 NMatT=0.
 ***** Axes restored to original set *****
 -------------------------------------------------------------------
 Center     Atomic                   Forces (Hartrees/Bohr)
 Number     Number              X              Y              Z
 -------------------------------------------------------------------
      1        6          -0.000008828   -0.007565718    0.000004245
      2        6          -0.000934769    0.003023484   -0.000000664
      3        6          -0.001590636   -0.000359857    0.000001913
      4        6           0.006833373   -0.005149847    0.000000435
      5        6          -0.003808517    0.003718450    0.000002900
      6        6           0.006177212   -0.000024479   -0.000003850
      7        7          -0.016194871    0.003496889    0.000003562
      8        6           0.002044306   -0.006632034   -0.000013200
      9        6           0.008419137    0.009525210    0.000018123
     10        1           0.000218817   -0.000695310   -0.000009802
     11        1           0.000370702    0.000280662   -0.000001919
     12        1          -0.000332085   -0.000341041   -0.000000277
     13        1          -0.000227602    0.000900518   -0.000000348
     14        1           0.000050809    0.000520995   -0.000001351
     15        1          -0.000319078   -0.000068800   -0.000000079
     16        1          -0.000697970   -0.000629123    0.000000311
 -------------------------------------------------------------------
 Cartesian Forces:  Max     0.016194871 RMS     0.003810618

 GradGradGradGradGradGradGradGradGradGradGradGradGradGradGradGradGradGrad
 Berny optimization.
 Using GEDIIS/GDIIS optimizer.
 FormGI is forming the generalized inverse of G from B-inverse, IUseBI=4.
 Internal  Forces:  Max     0.009179709 RMS     0.001923472
 Search for a local minimum.
 Step number   2 out of a maximum of   94
 All quantities printed in internal units (Hartrees-Bohrs-Radians)
 Mixed Optimization -- RFO/linear search
 Update second derivatives using D2CorX and points    1    2
 DE= -3.82D-03 DEPred=-3.70D-03 R= 1.03D+00
 TightC=F SS=  1.41D+00  RLast= 1.32D-01 DXNew= 5.0454D-01 3.9600D-01
 Trust test= 1.03D+00 RLast= 1.32D-01 DXMaxT set to 3.96D-01
 ITU=  1  0
 Use linear search instead of GDIIS.
     Eigenvalues ---    0.01852   0.01932   0.01986   0.02011   0.02071
     Eigenvalues ---    0.02113   0.02148   0.02152   0.02171   0.02209
     Eigenvalues ---    0.02234   0.02248   0.02339   0.15936   0.16000
     Eigenvalues ---    0.16000   0.16000   0.16000   0.16000   0.16015
     Eigenvalues ---    0.19632   0.22025   0.23223   0.23965   0.24601
     Eigenvalues ---    0.35357   0.35714   0.35778   0.35795   0.36351
     Eigenvalues ---    0.36441   0.36702   0.38689   0.40161   0.42974
     Eigenvalues ---    0.44605   0.46623   0.46945   0.47200   0.47672
     Eigenvalues ---    0.48611   0.61242
 RFO step:  Lambda=-9.01076100D-04 EMin= 1.85241216D-02
 Quartic linear search produced a step of  0.05445.
 Iteration  1 RMS(Cart)=  0.00811675 RMS(Int)=  0.00004351
 Iteration  2 RMS(Cart)=  0.00004982 RMS(Int)=  0.00001697
 Iteration  3 RMS(Cart)=  0.00000000 RMS(Int)=  0.00001697
 Variable       Old X    -DE/DX   Delta X   Delta X   Delta X     New X
                                 (Linear)    (Quad)   (Total)
    R1        2.69505  -0.00530   0.00216  -0.00991  -0.00775   2.68730
    R2        2.66600   0.00302   0.00289   0.00998   0.01288   2.67889
    R3        2.03546   0.00025  -0.00048   0.00014  -0.00034   2.03513
    R4        2.65671  -0.00119   0.00224   0.00024   0.00248   2.65919
    R5        2.03501  -0.00025  -0.00050  -0.00136  -0.00185   2.03316
    R6        2.66176   0.00145   0.00153   0.00537   0.00689   2.66865
    R7        2.03543  -0.00052  -0.00054  -0.00220  -0.00274   2.03269
    R8        2.74486   0.00046   0.00350   0.00510   0.00855   2.75341
    R9        2.57216  -0.00918  -0.00158  -0.02198  -0.02357   2.54858
   R10        2.66412  -0.00444   0.00089  -0.00921  -0.00831   2.65581
   R11        2.67999   0.00216  -0.00155   0.00403   0.00246   2.68246
   R12        2.03489  -0.00061  -0.00057  -0.00250  -0.00306   2.03183
   R13        2.62514   0.00738   0.00106   0.01719   0.01829   2.64343
   R14        1.88893   0.00073  -0.00035   0.00118   0.00083   1.88976
   R15        2.59402  -0.00510   0.00083  -0.00865  -0.00777   2.58625
   R16        2.02731   0.00039  -0.00037   0.00066   0.00029   2.02760
   R17        2.02668  -0.00029  -0.00042  -0.00136  -0.00178   2.02490
    A1        2.13391   0.00218   0.00107   0.01073   0.01180   2.14571
    A2        2.06886  -0.00130  -0.00060  -0.00684  -0.00744   2.06143
    A3        2.08041  -0.00088  -0.00047  -0.00389  -0.00437   2.07605
    A4        2.11984  -0.00131   0.00025  -0.00642  -0.00618   2.11366
    A5        2.08021  -0.00025  -0.00019  -0.00283  -0.00301   2.07720
    A6        2.08314   0.00157  -0.00006   0.00925   0.00919   2.09233
    A7        2.02778  -0.00035  -0.00129  -0.00299  -0.00431   2.02347
    A8        2.12648   0.00024   0.00075   0.00203   0.00280   2.12928
    A9        2.12892   0.00011   0.00054   0.00096   0.00151   2.13043
   A10        2.15192   0.00126   0.00098   0.00801   0.00899   2.16091
   A11        2.26783   0.00046  -0.00061   0.00205   0.00148   2.26931
   A12        1.86344  -0.00172  -0.00038  -0.01005  -0.01048   1.85296
   A13        2.07956  -0.00183   0.00037  -0.00701  -0.00662   2.07294
   A14        1.86026   0.00045  -0.00027   0.00107   0.00075   1.86101
   A15        2.34337   0.00138  -0.00010   0.00594   0.00587   2.34924
   A16        2.05337   0.00004  -0.00139  -0.00230  -0.00369   2.04968
   A17        2.11791  -0.00075   0.00081  -0.00348  -0.00267   2.11524
   A18        2.11191   0.00071   0.00058   0.00578   0.00636   2.11827
   A19        1.91699   0.00429   0.00052   0.01998   0.02052   1.93751
   A20        2.18319  -0.00215  -0.00038  -0.01019  -0.01058   2.17260
   A21        2.18300  -0.00214  -0.00014  -0.00979  -0.00994   2.17307
   A22        1.87895   0.00116   0.00050   0.00798   0.00850   1.88745
   A23        2.21078  -0.00033  -0.00035  -0.00244  -0.00280   2.20798
   A24        2.19345  -0.00083  -0.00016  -0.00554  -0.00570   2.18775
   A25        1.90514  -0.00418  -0.00038  -0.01898  -0.01929   1.88584
   A26        2.10578   0.00171   0.00018   0.00698   0.00713   2.11291
   A27        2.27227   0.00247   0.00020   0.01200   0.01216   2.28443
    D1       -0.00008   0.00000  -0.00000   0.00005   0.00004  -0.00003
    D2        3.14153   0.00000  -0.00001   0.00006   0.00005   3.14159
    D3        3.14156  -0.00000   0.00000  -0.00001  -0.00001   3.14155
    D4       -0.00001   0.00000   0.00000  -0.00000  -0.00000  -0.00001
    D5        0.00013  -0.00000   0.00001  -0.00008  -0.00008   0.00005
    D6       -3.14153  -0.00000   0.00001  -0.00004  -0.00003  -3.14157
    D7       -3.14151  -0.00000   0.00000  -0.00002  -0.00002  -3.14153
    D8        0.00001   0.00000   0.00000   0.00002   0.00002   0.00004
    D9       -0.00004   0.00000  -0.00000   0.00003   0.00002  -0.00002
   D10       -3.14155   0.00000  -0.00000   0.00002   0.00002  -3.14152
   D11        3.14153   0.00000  -0.00000   0.00002   0.00001   3.14155
   D12        0.00003   0.00000   0.00000   0.00001   0.00001   0.00004
   D13        0.00011  -0.00000   0.00001  -0.00006  -0.00006   0.00005
   D14       -3.14149  -0.00000  -0.00000  -0.00002  -0.00002  -3.14151
   D15       -3.14158  -0.00000   0.00000  -0.00006  -0.00006   3.14155
   D16        0.00001  -0.00000  -0.00001  -0.00001  -0.00002  -0.00001
   D17       -0.00005   0.00000  -0.00000   0.00003   0.00002  -0.00003
   D18        3.14147   0.00000  -0.00001   0.00006   0.00005   3.14152
   D19        3.14154  -0.00000   0.00001  -0.00001  -0.00000   3.14154
   D20       -0.00012   0.00000  -0.00000   0.00003   0.00002  -0.00010
   D21       -3.14150   0.00000  -0.00001   0.00009   0.00008  -3.14142
   D22       -0.00104   0.00000   0.00000   0.00019   0.00020  -0.00085
   D23        0.00009   0.00000  -0.00002   0.00013   0.00011   0.00020
   D24        3.14055   0.00000  -0.00000   0.00023   0.00023   3.14078
   D25       -0.00007   0.00000  -0.00001   0.00005   0.00004  -0.00002
   D26       -3.14159   0.00000  -0.00000   0.00000  -0.00000  -3.14159
   D27       -3.14157  -0.00000   0.00001   0.00000   0.00001  -3.14156
   D28        0.00010  -0.00000   0.00001  -0.00005  -0.00004   0.00006
   D29        0.00011  -0.00000   0.00003  -0.00017  -0.00015  -0.00004
   D30        3.14159  -0.00000   0.00001  -0.00007  -0.00006   3.14153
   D31       -3.14157  -0.00000   0.00002  -0.00013  -0.00011   3.14150
   D32       -0.00009  -0.00000  -0.00000  -0.00002  -0.00002  -0.00011
   D33       -0.00002  -0.00001   0.00004  -0.00025  -0.00021  -0.00023
   D34        3.14156  -0.00000   0.00001  -0.00002  -0.00001   3.14155
   D35       -3.14048  -0.00001   0.00002  -0.00035  -0.00032  -3.14081
   D36        0.00110  -0.00000  -0.00001  -0.00011  -0.00012   0.00098
   D37       -0.00006   0.00001  -0.00004   0.00026   0.00021   0.00016
   D38        3.14155  -0.00000  -0.00001  -0.00000  -0.00002   3.14153
   D39       -3.14154   0.00000  -0.00003   0.00015   0.00012  -3.14142
   D40        0.00006  -0.00000   0.00001  -0.00011  -0.00010  -0.00004
         Item               Value     Threshold  Converged?
 Maximum Force            0.009180     0.000450     NO 
 RMS     Force            0.001923     0.000300     NO 
 Maximum Displacement     0.033103     0.001800     NO 
 RMS     Displacement     0.008117     0.001200     NO 
 Predicted change in Energy=-4.620129D-04
 GradGradGradGradGradGradGradGradGradGradGradGradGradGradGradGradGradGrad

                          Input orientation:                          
 ---------------------------------------------------------------------
 Center     Atomic      Atomic             Coordinates (Angstroms)
 Number     Number       Type             X           Y           Z
 ---------------------------------------------------------------------
      1          6           0       -2.149389    0.685301    0.000012
      2          6           0       -2.141018   -0.736734    0.000052
      3          6           0       -0.931886   -1.456565    0.000049
      4          6           0        0.248472   -0.681303   -0.000021
      5          6           0        0.261545    0.775681   -0.000027
      6          6           0       -0.964237    1.463131    0.000005
      7          7           0        1.540370   -1.068422   -0.000129
      8          6           0        1.625271    1.169655   -0.000011
      9          6           0        2.395651    0.038491    0.000055
     10          1           0        1.846073   -2.020568    0.000521
     11          1           0        1.999174    2.175360   -0.000061
     12          1           0        3.460012   -0.085255    0.000038
     13          1           0       -3.078801   -1.264110    0.000060
     14          1           0       -0.908756   -2.531969    0.000015
     15          1           0       -3.102262    1.187137   -0.000021
[...]
 ! D9    D(1,2,3,4)              0.0324         -DE/DX =    0.0                 !
 ! D10   D(1,2,3,14)           179.975          -DE/DX =    0.0                 !
 ! D11   D(13,2,3,4)          -179.9667         -DE/DX =    0.0                 !
 ! D12   D(13,2,3,14)           -0.0241         -DE/DX =    0.0                 !
 ! D13   D(2,3,4,5)             -0.0294         -DE/DX =    0.0                 !
 ! D14   D(2,3,4,7)            179.971          -DE/DX =    0.0                 !
 ! D15   D(14,3,4,5)          -179.9709         -DE/DX =    0.0                 !
 ! D16   D(14,3,4,7)             0.0295         -DE/DX =    0.0                 !
 ! D17   D(3,4,5,6)             -0.0041         -DE/DX =    0.0                 !
 ! D18   D(3,4,5,8)            179.9933         -DE/DX =    0.0                 !
 ! D19   D(7,4,5,6)           -180.0044         -DE/DX =    0.0                 !
 ! D20   D(7,4,5,8)             -0.007          -DE/DX =    0.0                 !
 ! D21   D(3,4,7,9)           -179.9984         -DE/DX =    0.0                 !
 ! D22   D(3,4,7,10)             0.1003         -DE/DX =    0.0                 !
 ! D23   D(5,4,7,9)              0.002          -DE/DX =    0.0                 !
 ! D24   D(5,4,7,10)          -179.8993         -DE/DX =    0.0                 !
 ! D25   D(4,5,6,1)              0.0356         -DE/DX =    0.0                 !
 ! D26   D(4,5,6,16)          -179.9789         -DE/DX =    0.0                 !
 ! D27   D(8,5,6,1)           -179.9611         -DE/DX =    0.0                 !
 ! D28   D(8,5,6,16)             0.0245         -DE/DX =    0.0                 !
 ! D29   D(4,5,8,9)              0.0094         -DE/DX =    0.0                 !
 ! D30   D(4,5,8,11)          -179.9785         -DE/DX =    0.0                 !
 ! D31   D(6,5,8,9)           -179.9937         -DE/DX =    0.0                 !
 ! D32   D(6,5,8,11)             0.0184         -DE/DX =    0.0                 !
 ! D33   D(4,7,9,8)              0.0038         -DE/DX =    0.0                 !
 ! D34   D(4,7,9,12)          -179.9665         -DE/DX =    0.0                 !
 ! D35   D(10,7,9,8)           179.9046         -DE/DX =    0.0                 !
 ! D36   D(10,7,9,12)           -0.0657         -DE/DX =    0.0                 !
 ! D37   D(5,8,9,7)             -0.0082         -DE/DX =    0.0                 !
 ! D38   D(5,8,9,12)           179.9588         -DE/DX =    0.0                 !
 ! D39   D(11,8,9,7)           179.9802         -DE/DX =    0.0                 !
 ! D40   D(11,8,9,12)           -0.0529         -DE/DX =    0.0                 !
 --------------------------------------------------------------------------------
 GradGradGradGradGradGradGradGradGradGradGradGradGradGradGradGradGradGrad

                          Input orientation:                          
 ---------------------------------------------------------------------
 Center     Atomic      Atomic             Coordinates (Angstroms)
 Number     Number       Type             X           Y           Z
 ---------------------------------------------------------------------
      1          6           0       -2.173053    0.684900    0.000036
      2          6           0       -2.144023   -0.690467    0.000298
      3          6           0       -0.899810   -1.430595   -0.000054
      4          6           0        0.249018   -0.661505    0.000039
      5          6           0        0.251117    0.747423   -0.000156
      6          6           0       -0.989175    1.456729   -0.000560
      7          7           0        1.581965   -1.063477    0.000320
      8          6           0        1.589502    1.155147    0.000177
      9          6           0        2.408537   -0.009639    0.000357
     10          1           0        1.880470   -2.020503   -0.000955
     11          1           0        1.965587    2.161166    0.000467
     12          1           0        3.475241   -0.112850    0.000030
     13          1           0       -3.068682   -1.244263    0.000792
     14          1           0       -0.887715   -2.506763    0.000555
     15          1           0       -3.125807    1.189352    0.000244
     16          1           0       -1.016268    2.532791   -0.001055
 ---------------------------------------------------------------------
                    Distance matrix (angstroms):
                    1          2          3          4          5
     1  C    0.000000
     2  C    1.375673   0.000000
     3  C    2.469103   1.447708   0.000000
     4  C    2.771143   2.393217   1.382500   0.000000
     5  C    2.424977   2.793605   2.463412   1.408930   0.000000
     6  C    1.413255   2.438058   2.888707   2.453576   1.428789
     7  N    4.142099   3.744613   2.508781   1.392239   2.247335
     8  C    3.791827   4.164793   3.589253   2.257680   1.399111
     9  C    4.633935   4.603187   3.600594   2.255759   2.286395
    10  H    4.873424   4.238579   2.842174   2.123326   3.211886
    11  H    4.394053   5.002070   4.594698   3.303646   2.222178
    12  H    5.704352   5.648874   4.569193   3.272543   3.336921
    13  H    2.126927   1.077815   2.176862   3.368493   3.871419
    14  H    3.440756   2.208448   1.076235   2.167288   3.447704
    15  H    1.078060   2.120759   3.437905   3.849041   3.405719
    16  H    2.180104   3.414853   3.965097   3.435764   2.189476
                    6          7          8          9         10
     6  C    0.000000
     7  N    3.600305   0.000000
     8  C    2.596252   2.218637   0.000000
     9  C    3.700632   1.339327   1.423918   0.000000
    10  H    4.508437   1.002500   3.188952   2.079046   0.000000
    11  H    3.037573   3.247381   1.074018   2.215535   4.182535
    12  H    4.732292   2.118535   2.272406   1.071686   2.486451
    13  H    3.408770   4.654160   5.239832   5.614644   5.009657
    14  H    3.964790   2.860488   4.421106   4.135324   2.810570
    15  H    2.153297   5.219038   4.715433   5.662733   5.946931
    16  H    1.076403   4.436661   2.947531   4.265353   5.396627
                   11         12         13         14         15
    11  H    0.000000
    12  H    2.729506   0.000000
    13  H    6.077895   6.641011   0.000000
    14  H    5.470913   4.976566   2.520024   0.000000
    15  H    5.183311   6.728267   2.434286   4.320917   0.000000
    16  H    3.004924   5.212780   4.298667   5.041193   2.500996
                   16
    16  H    0.000000
 Stoichiometry    C8H7N
 Framework group  C1[X(C8H7N)]
 Deg. of freedom    42
 Full point group                 C1      NOp   1
 Largest Abelian subgroup         C1      NOp   1
 Largest concise Abelian subgroup C1      NOp   1
                         Standard orientation:                         
 ---------------------------------------------------------------------
 Center     Atomic      Atomic             Coordinates (Angstroms)
 Number     Number       Type             X           Y           Z
 ---------------------------------------------------------------------
      1          6           0       -2.186798    0.641208   -0.000014
      2          6           0       -2.130892   -0.733329    0.000247
      3          6           0       -0.872450   -1.448998   -0.000105
      4          6           0        0.261126   -0.657600   -0.000011
      5          6           0        0.235688    0.751100   -0.000207
      6          6           0       -1.018231    1.436028   -0.000611
      7          7           0        1.601675   -1.033443    0.000270
      8          6           0        1.565847    1.184904    0.000127
      9          6           0        2.407492    0.036350    0.000306
     10          1           0        1.918829   -1.984452   -0.001005
     11          1           0        1.922198    2.198082    0.000416
     12          1           0        3.476010   -0.045993   -0.000021
     13          1           0       -3.044550   -1.305092    0.000741
     14          1           0       -0.839324   -2.524723    0.000504
     15          1           0       -3.149229    1.126942    0.000193
     16          1           0       -1.066351    2.511355   -0.001105
 ---------------------------------------------------------------------
 Rotational constants (GHZ):           3.8958108           1.6269427           1.1476633

 **********************************************************************

            Population analysis using the CI Density.

 **********************************************************************

 Orbital symmetries:
       Occupied  (A) (A) (A) (A) (A) (A) (A) (A) (A) (A) (A) (A)
                 (A) (A) (A) (A) (A) (A) (A) (A) (A) (A) (A) (A)
                 (A) (A) (A) (A) (A) (A) (A)
       Virtual   (A) (A) (A) (A) (A) (A) (A) (A) (A) (A) (A) (A)
                 (A) (A) (A) (A) (A) (A) (A) (A) (A) (A) (A) (A)
                 (A) (A) (A) (A) (A) (A) (A) (A) (A) (A) (A) (A)
                 (A) (A) (A) (A) (A) (A) (A) (A) (A) (A) (A) (A)
                 (A) (A) (A) (A) (A) (A) (A) (A) (A) (A) (A) (A)
                 (A) (A) (A) (A) (A) (A) (A) (A) (A) (A) (A) (A)
                 (A) (A) (A) (A) (A) (A) (A) (A) (A) (A) (A) (A)
                 (A) (A) (A) (A) (A) (A) (A) (A) (A) (A) (A) (A)
                 (A) (A) (A) (A) (A) (A) (A) (A) (A) (A) (A) (A)
                 (A) (A) (A) (A) (A) (A) (A) (A) (A) (A) (A) (A)
                 (A) (A) (A) (A) (A) (A) (A) (A) (A) (A) (A) (A)
                 (A) (A) (A) (A) (A) (A) (A) (A) (A) (A) (A) (A)
                 (A) (A) (A) (A) (A) (A) (A) (A) (A) (A)
 The electronic state is 1-A.
 Alpha  occ. eigenvalues --  -14.86507 -10.63787 -10.62954 -10.60439 -10.59824
 Alpha  occ. eigenvalues --  -10.59531 -10.59384 -10.58984 -10.58208  -1.12070
 Alpha  occ. eigenvalues --   -0.95803  -0.89309  -0.85264  -0.81473  -0.72435
 Alpha  occ. eigenvalues --   -0.68961  -0.66831  -0.62474  -0.56480  -0.55086
 Alpha  occ. eigenvalues --   -0.51360  -0.50639  -0.49576  -0.47597  -0.46419
 Alpha  occ. eigenvalues --   -0.41628  -0.41191  -0.39256  -0.32387  -0.27276
 Alpha  occ. eigenvalues --   -0.23083
 Alpha virt. eigenvalues --    0.01100   0.01824   0.03750   0.04290   0.05678
 Alpha virt. eigenvalues --    0.05869   0.06220   0.07663   0.08037   0.08552
 Alpha virt. eigenvalues --    0.08631   0.08873   0.10870   0.11435   0.12576
 Alpha virt. eigenvalues --    0.12658   0.13497   0.15101   0.16228   0.16251
 Alpha virt. eigenvalues --    0.17691   0.18085   0.18931   0.19602   0.20009
 Alpha virt. eigenvalues --    0.21067   0.21538   0.21602   0.22572   0.23295
 Alpha virt. eigenvalues --    0.23860   0.24673   0.24747   0.25607   0.26197
 Alpha virt. eigenvalues --    0.26544   0.27206   0.27539   0.28500   0.29393
 Alpha virt. eigenvalues --    0.30530   0.30703   0.32610   0.33552   0.34687
 Alpha virt. eigenvalues --    0.35947   0.36326   0.37884   0.40112   0.41206
 Alpha virt. eigenvalues --    0.43230   0.45100   0.49398   0.52009   0.58174
 Alpha virt. eigenvalues --    0.65208   0.68744   0.73814   0.74912   0.77326
 Alpha virt. eigenvalues --    0.79065   0.79875   0.80479   0.81005   0.81777
 Alpha virt. eigenvalues --    0.83315   0.84600   0.85362   0.87127   0.87129
 Alpha virt. eigenvalues --    0.88674   0.93200   0.96995   0.97524   0.99006
 Alpha virt. eigenvalues --    1.02423   1.02843   1.03678   1.04637   1.06944
 Alpha virt. eigenvalues --    1.08205   1.10817   1.12724   1.14639   1.16193
 Alpha virt. eigenvalues --    1.18938   1.20395   1.25002   1.25380   1.28650
 Alpha virt. eigenvalues --    1.30249   1.32813   1.32821   1.40531   1.41369
 Alpha virt. eigenvalues --    1.44094   1.44526   1.49550   1.50209   1.53002
 Alpha virt. eigenvalues --    1.56813   1.57183   1.59400   1.60054   1.63102
 Alpha virt. eigenvalues --    1.67632   1.73162   1.88989   1.92562   2.00120
 Alpha virt. eigenvalues --    2.00842   2.01401   2.05680   2.11345   2.11747
 Alpha virt. eigenvalues --    2.11781   2.15268   2.18840   2.24630   2.27289
 Alpha virt. eigenvalues --    2.28131   2.32077   2.34160   2.36360   2.39621
 Alpha virt. eigenvalues --    2.39797   2.43089   2.49229   2.52823   2.57996
 Alpha virt. eigenvalues --    2.65398   2.68739   2.73865   2.77666   2.77812
 Alpha virt. eigenvalues --    2.79756   2.85512   2.92734   2.96195   2.97911
 Alpha virt. eigenvalues --    3.07965   3.10446   3.23802   3.38107   3.55753
 Alpha virt. eigenvalues --    4.30672   4.39478   4.42537   4.45839   4.50637
 Alpha virt. eigenvalues --    4.55264   4.62524   4.66411   4.93016
          Condensed to atoms (all electrons):
               1          2          3          4          5          6
     1  C    5.520549   0.466752   0.316246  -0.420987  -0.110085  -0.134447
     2  C    0.466752   5.854305  -0.419800   0.282662  -0.417885   0.580506
     3  C    0.316246  -0.419800  12.721306  -0.988291  -4.136257  -2.692667
     4  C   -0.420987   0.282662  -0.988291  11.764507  -3.669741  -1.487252
     5  C   -0.110085  -0.417885  -4.136257  -3.669741  14.419298   0.604109
     6  C   -0.134447   0.580506  -2.692667  -1.487252   0.604109  12.286276
     7  N   -0.018698   0.013657  -0.577239  -0.239518   0.911692   0.104636
     8  C    0.149933  -0.341360   2.910510   2.401465  -4.658655  -3.624160
     9  C   -0.087116   0.029997  -0.933239  -0.865018   1.573840   0.943766
    10  H   -0.003287  -0.004025  -0.129923  -0.065465   0.171114   0.023507
    11  H    0.001519   0.000914   0.006563   0.032573  -0.033532   0.000862
    12  H    0.001104  -0.000205   0.027400   0.080108  -0.084756  -0.015938
    13  H    0.018848   0.282077  -0.010079   0.005331   0.012240   0.001964
    14  H    0.014828   0.029806   0.283780  -0.003033  -0.001915  -0.017823
    15  H    0.280695   0.017742   0.016162  -0.015741   0.028233  -0.021266
    16  H    0.009171   0.010699  -0.028853   0.033489   0.059376   0.255101
               7          8          9         10         11         12
     1  C   -0.018698   0.149933  -0.087116  -0.003287   0.001519   0.001104
     2  C    0.013657  -0.341360   0.029997  -0.004025   0.000914  -0.000205
     3  C   -0.577239   2.910510  -0.933239  -0.129923   0.006563   0.027400
     4  C   -0.239518   2.401465  -0.865018  -0.065465   0.032573   0.080108
     5  C    0.911692  -4.658655   1.573840   0.171114  -0.033532  -0.084756
     6  C    0.104636  -3.624160   0.943766   0.023507   0.000862  -0.015938
     7  N    7.201507  -0.714726   0.547476   0.277631   0.006561  -0.051436
     8  C   -0.714726  11.046731  -1.572773  -0.024417   0.333978   0.036419
     9  C    0.547476  -1.572773   6.352187  -0.005457  -0.040305   0.330460
    10  H    0.277631  -0.024417  -0.005457   0.304404  -0.000071  -0.001919
    11  H    0.006561   0.333978  -0.040305  -0.000071   0.456654  -0.000280
    12  H   -0.051436   0.036419   0.330460  -0.001919  -0.000280   0.441933
    13  H   -0.000391   0.000773   0.001015  -0.000001   0.000000  -0.000000
    14  H   -0.004222  -0.001855   0.005380   0.001796   0.000002   0.000002
    15  H    0.000252   0.005760   0.000070  -0.000000  -0.000002  -0.000000
    16  H   -0.000831  -0.038267   0.003511   0.000003   0.001276  -0.000001
              13         14         15         16
     1  C    0.018848   0.014828   0.280695   0.009171
     2  C    0.282077   0.029806   0.017742   0.010699
     3  C   -0.010079   0.283780   0.016162  -0.028853
     4  C    0.005331  -0.003033  -0.015741   0.033489
     5  C    0.012240  -0.001915   0.028233   0.059376
     6  C    0.001964  -0.017823  -0.021266   0.255101
     7  N   -0.000391  -0.004222   0.000252  -0.000831
     8  C    0.000773  -0.001855   0.005760  -0.038267
     9  C    0.001015   0.005380   0.000070   0.003511
    10  H   -0.000001   0.001796  -0.000000   0.000003
    11  H    0.000000   0.000002  -0.000002   0.001276
    12  H   -0.000000   0.000002  -0.000000  -0.000001
    13  H    0.497804  -0.002598  -0.003763  -0.000131
    14  H   -0.002598   0.494235  -0.000122   0.000013
    15  H   -0.003763  -0.000122   0.501046  -0.002709
    16  H   -0.000131   0.000013  -0.002709   0.491619
 Mulliken charges:
               1
     1  C   -0.005026
     2  C   -0.385842
     3  C   -0.365617
     4  C   -0.845089
     5  C    1.332923
     6  C   -0.807174
     7  N   -0.456351
     8  C    0.090645
     9  C   -0.283792
    10  H    0.456109
    11  H    0.233289
    12  H    0.237111
    13  H    0.196911
    14  H    0.201725
    15  H    0.193645
    16  H    0.206534
 Sum of Mulliken charges =  -0.00000
 Mulliken charges with hydrogens summed into heavy atoms:
               1
     1  C    0.188619
     2  C   -0.188931
     3  C   -0.163892
     4  C   -0.845089
     5  C    1.332923
     6  C   -0.600640
     7  N   -0.000242
     8  C    0.323933
     9  C   -0.046681
 Electronic spatial extent (au):  <R**2>=           1015.4698
 Charge=             -0.0000 electrons
 Dipole moment (field-independent basis, Debye):
    X=              3.6941    Y=             -1.3593    Z=              0.0028  Tot=              3.9363
 Quadrupole moment (field-independent basis, Debye-Ang):
   XX=            -45.4342   YY=            -46.7307   ZZ=            -61.4563
   XY=             -2.2979   XZ=             -0.0010   YZ=             -0.0027
 Traceless Quadrupole moment (field-independent basis, Debye-Ang):
   XX=              5.7728   YY=              4.4764   ZZ=            -10.2492
   XY=             -2.2979   XZ=             -0.0010   YZ=             -0.0027
 Octapole moment (field-independent basis, Debye-Ang**2):
  XXX=             23.5924  YYY=             -9.5804  ZZZ=              0.0266  XYY=             14.1060
  XXY=             -7.2903  XXZ=              0.0121  XZZ=              3.7091  YZZ=             -1.6338
  YYZ=              0.0163  XYZ=              0.0078
 Hexadecapole moment (field-independent basis, Debye-Ang**3):
 XXXX=           -850.0851 YYYY=           -397.8232 ZZZZ=            -93.4852 XXXY=            -18.3897
 XXXZ=              0.0293 YYYX=            -14.7568 YYYZ=             -0.0223 ZZZX=              0.0051
 ZZZY=              0.0043 XXYY=           -198.4582 XXZZ=           -206.0509 YYZZ=           -107.0452
 XXYZ=              0.0030 YYXZ=             -0.0175 ZZXY=             -1.7496
 N-N= 4.000227263466D+02 E-N=-1.642208530185D+03  KE= 3.607389908687D+02
 Unable to Open any file for archive entry.
 1\1\GINC-EXP-4-41\FOpt\RBHandHLYP TD-FC\6-31+G(d)\C8H7N1\CWALDT\23-Jun
 -2021\0\\# td= (nstates=6, root=2) BHandHLYP/6-31+G* Opt density=curre
 nt\\FuncsBHandHLYP-V-2nd\\0,1\C,-2.173053261,0.684899738,0.0000363898\
 C,-2.1440234435,-0.6904667031,0.0002975268\C,-0.8998100821,-1.43059539
 89,-0.0000543257\C,0.2490179757,-0.6615052295,0.0000394374\C,0.2511173
 73,0.7474232616,-0.0001558355\C,-0.9891745928,1.4567288432,-0.00055983
 1\N,1.5819647953,-1.0634770521,0.0003204131\C,1.5895015042,1.155146653
 9,0.0001774089\C,2.4085365772,-0.0096385853,0.0003566701\H,1.880470398
 2,-2.020503203,-0.0009546149\H,1.9655869671,2.1611656384,0.000466773\H
 ,3.4752413373,-0.1128496224,0.0000299678\H,-3.0686822648,-1.2442628964
 ,0.0007922238\H,-0.8877150434,-2.5067625253,0.0005548024\H,-3.12580709
 7,1.189352479,0.0002437334\H,-1.0162681436,2.5327906018,-0.0010547393\
 \Version=AS64L-G16RevC.01\State=1-A\HF=-363.5935318\RMSD=4.090e-09\RMS
 F=4.789e-05\Dipole=1.4533806,-0.5347919,0.0010925\Quadrupole=4.2919575
 ,3.3280904,-7.6200479,-1.7084181,-0.0007397,-0.0019731\PG=C01 [X(C8H7N
 1)]\\@
 The archive entry for this job was punched.


 ON A TOMBSTONE, "HERE LIES LESTER MOORE,
 FOUR SLUGS FROM A 44, NO LES, NO MORE".
 Job cpu time:       0 days  6 hours 57 minutes  6.8 seconds.
 Elapsed time:       0 days  3 hours  1 minutes 34.5 seconds.
 File lengths (MBytes):  RWF=    238 Int=      0 D2E=      0 Chk=     11 Scr=      1
 Normal termination of Gaussian 16 at Wed Jun 23 13:58:22 2021.
