 Entering Gaussian System, Link 0=/cm/shared/apps/spack/cpu/opt/spack/linux-centos8-zen/gcc-8.3.1/gaussian-16.C.01-po5bqktfeugvmjyga3v7eigbecnokxng/g16/g16
 Initial command:
 /cm/shared/apps/spack/cpu/opt/spack/linux-centos8-zen/gcc-8.3.1/gaussian-16.C.01-po5bqktfeugvmjyga3v7eigbecnokxng/g16/l1.exe "/scratch/cwaldt/job_3581305/Gau-122099.inp" -scrdir="/scratch/cwaldt/job_3581305/"
 Entering Link 1 = /cm/shared/apps/spack/cpu/opt/spack/linux-centos8-zen/gcc-8.3.1/gaussian-16.C.01-po5bqktfeugvmjyga3v7eigbecnokxng/g16/l1.exe PID=    122101.
  
 Copyright (c) 1988-2019, Gaussian, Inc.  All Rights Reserved.
  
 This is part of the Gaussian(R) 16 program.  It is based on
 the Gaussian(R) 09 system (copyright 2009, Gaussian, Inc.),
 the Gaussian(R) 03 system (copyright 2003, Gaussian, Inc.),
 the Gaussian(R) 98 system (copyright 1998, Gaussian, Inc.),
 the Gaussian(R) 94 system (copyright 1995, Gaussian, Inc.),
 the Gaussian 92(TM) system (copyright 1992, Gaussian, Inc.),
 the Gaussian 90(TM) system (copyright 1990, Gaussian, Inc.),
 the Gaussian 88(TM) system (copyright 1988, Gaussian, Inc.),
 the Gaussian 86(TM) system (copyright 1986, Carnegie Mellon
 University), and the Gaussian 82(TM) system (copyright 1983,
 Carnegie Mellon University). Gaussian is a federally registered
 trademark of Gaussian, Inc.
  
 This software contains proprietary and confidential information,
 including trade secrets, belonging to Gaussian, Inc.
  
 This software is provided under written license and may be
 used, copied, transmitted, or stored only in accord with that
 written license.
  
 The following legend is applicable only to US Government
 contracts under FAR:
  
                    RESTRICTED RIGHTS LEGEND
  
 Use, reproduction and disclosure by the US Government is
 subject to restrictions as set forth in subparagraphs (a)
 and (c) of the Commercial Computer Software - Restricted
 Rights clause in FAR 52.227-19.
  
 Gaussian, Inc.
 340 Quinnipiac St., Bldg. 40, Wallingford CT 06492
  
  
 ---------------------------------------------------------------
 Warning -- This program may not be used in any manner that
 competes with the business of Gaussian, Inc. or will provide
 assistance to any competitor of Gaussian, Inc.  The licensee
 of this program is prohibited from giving any competitor of
 Gaussian, Inc. access to this program.  By using this program,
 the user acknowledges that Gaussian, Inc. is engaged in the
 business of creating and licensing software in the field of
 computational chemistry and represents and warrants to the
 licensee that it is not a competitor of Gaussian, Inc. and that
 it will not use this program in any manner prohibited above.
 ---------------------------------------------------------------
  

 Cite this work as:
 Gaussian 16, Revision C.01,
 M. J. Frisch, G. W. Trucks, H. B. Schlegel, G. E. Scuseria, 
 M. A. Robb, J. R. Cheeseman, G. Scalmani, V. Barone, 
 G. A. Petersson, H. Nakatsuji, X. Li, M. Caricato, A. V. Marenich, 
 J. Bloino, B. G. Janesko, R. Gomperts, B. Mennucci, H. P. Hratchian, 
 J. V. Ortiz, A. F. Izmaylov, J. L. Sonnenberg, D. Williams-Young, 
 F. Ding, F. Lipparini, F. Egidi, J. Goings, B. Peng, A. Petrone, 
 T. Henderson, D. Ranasinghe, V. G. Zakrzewski, J. Gao, N. Rega, 
 G. Zheng, W. Liang, M. Hada, M. Ehara, K. Toyota, R. Fukuda, 
 J. Hasegawa, M. Ishida, T. Nakajima, Y. Honda, O. Kitao, H. Nakai, 
 T. Vreven, K. Throssell, J. A. Montgomery, Jr., J. E. Peralta, 
 F. Ogliaro, M. J. Bearpark, J. J. Heyd, E. N. Brothers, K. N. Kudin, 
 V. N. Staroverov, T. A. Keith, R. Kobayashi, J. Normand, 
 K. Raghavachari, A. P. Rendell, J. C. Burant, S. S. Iyengar, 
 J. Tomasi, M. Cossi, J. M. Millam, M. Klene, C. Adamo, R. Cammi, 
 J. W. Ochterski, R. L. Martin, K. Morokuma, O. Farkas, 
 J. B. Foresman, and D. J. Fox, Gaussian, Inc., Wallingford CT, 2019.
 
 ******************************************
 Gaussian 16:  AS64L-G16RevC.01  3-Jul-2019
                23-Jun-2021 
 ******************************************
 %nprocshared=4
 Will use up to    4 processors via shared memory.
 %chk=FuncsM06-V-3rd.chk
 %Mem=3GB
 ---------------------------------------------------------
 # td= (nstates=6, root=3) M06/6-31+G* Opt density=current
 ---------------------------------------------------------
 1/18=20,19=15,26=3,38=1/1,3;
 2/9=110,12=2,17=6,18=5,40=1/2;
 3/5=1,6=6,7=11,11=9,25=1,30=1,71=1,74=-54/1,2,3,8;
 4//1;
 5/5=2,38=5/2;
 8/6=1,10=2,107=3,108=6/1;
 9/8=3,15=2,41=6,42=1,70=2/14;
 10/5=4,28=3/2;
 6/7=2,8=2,9=2,10=2,22=-1/1;
 7/12=6,13=5,14=3/1,2,3,16;
 1/18=20,19=15,26=3/3(2);
 2/9=110/2;
 99//99;
 2/9=110/2;
 3/5=1,6=6,7=11,11=9,25=1,30=1,71=1,74=-54/1,2,3,8;
 4/5=5,16=3,69=1/1;
 5/5=2,38=5/2;
 8/6=1,10=2,107=3,108=6/1;
 9/8=3,15=2,41=6,42=1,49=4,70=2/14;
 10/5=4,28=3/2;
 7/12=6,13=5,14=3/1,2,3,16;
 1/18=20,19=15,26=3/3(-8);
 2/9=110/2;
 6/7=2,8=2,9=2,10=2,22=-1/1;
 99/9=10/99;
 --------------
 FuncsM06-V-3rd
 --------------
 Symbolic Z-matrix:
 Charge =  0 Multiplicity = 1
 C                    -2.15106   0.68921   0.00009 
 C                    -2.12793  -0.71582   0.00008 
 C                    -0.9323   -1.4131   -0.00001 
 C                     0.24691  -0.6702   -0.00004 
 C                     0.24819   0.7483    0. 
 C                    -0.97947   1.42353   0.00003 
 N                     1.56177  -1.07759  -0.00029 
 C                     1.62013   1.1629   -0.00016 
 C                     2.38201   0.03081   0.00025 
 H                     1.87632  -2.03001   0.00044 
 H                     1.99217   2.17301  -0.00035 
 H                     3.45255  -0.08243   0.00041 
 H                    -3.06159  -1.26202   0.00009 
 H                    -0.91725  -2.49534  -0.00007 
 H                    -3.1042    1.20079   0.00009 
 H                    -1.00935   2.50542  -0.00002 
 

 GradGradGradGradGradGradGradGradGradGradGradGradGradGradGradGradGradGrad
 Berny optimization.
 Initialization pass.
                           ----------------------------
                           !    Initial Parameters    !
                           ! (Angstroms and Degrees)  !
 --------------------------                            --------------------------
 ! Name  Definition              Value          Derivative Info.                !
 --------------------------------------------------------------------------------
 ! R1    R(1,2)                  1.4052         estimate D2E/DX2                !
 ! R2    R(1,6)                  1.3827         estimate D2E/DX2                !
 ! R3    R(1,15)                 1.0818         estimate D2E/DX2                !
 ! R4    R(2,3)                  1.3841         estimate D2E/DX2                !
 ! R5    R(2,13)                 1.0817         estimate D2E/DX2                !
 ! R6    R(3,4)                  1.3937         estimate D2E/DX2                !
 ! R7    R(3,14)                 1.0823         estimate D2E/DX2                !
 ! R8    R(4,5)                  1.4185         estimate D2E/DX2                !
 ! R9    R(4,7)                  1.3765         estimate D2E/DX2                !
 ! R10   R(5,6)                  1.4011         estimate D2E/DX2                !
 ! R11   R(5,8)                  1.4332         estimate D2E/DX2                !
 ! R12   R(6,16)                 1.0823         estimate D2E/DX2                !
 ! R13   R(7,9)                  1.3789         estimate D2E/DX2                !
 ! R14   R(7,10)                 1.003          estimate D2E/DX2                !
 ! R15   R(8,9)                  1.3646         estimate D2E/DX2                !
 ! R16   R(8,11)                 1.0764         estimate D2E/DX2                !
 ! R17   R(9,12)                 1.0765         estimate D2E/DX2                !
 ! A1    A(2,1,6)              121.1349         estimate D2E/DX2                !
 ! A2    A(2,1,15)             119.1671         estimate D2E/DX2                !
 ! A3    A(6,1,15)             119.698          estimate D2E/DX2                !
 ! A4    A(1,2,3)              121.1938         estimate D2E/DX2                !
 ! A5    A(1,2,13)             119.3846         estimate D2E/DX2                !
 ! A6    A(3,2,13)             119.4217         estimate D2E/DX2                !
 ! A7    A(2,3,4)              117.5387         estimate D2E/DX2                !
 ! A8    A(2,3,14)             121.0469         estimate D2E/DX2                !
 ! A9    A(4,3,14)             121.4144         estimate D2E/DX2                !
 ! A10   A(3,4,5)              122.2626         estimate D2E/DX2                !
 ! A11   A(3,4,7)              130.5743         estimate D2E/DX2                !
 ! A12   A(5,4,7)              107.163          estimate D2E/DX2                !
 ! A13   A(4,5,6)              118.7594         estimate D2E/DX2                !
 ! A14   A(4,5,8)              106.8666         estimate D2E/DX2                !
 ! A15   A(6,5,8)              134.374          estimate D2E/DX2                !
 ! A16   A(1,6,5)              119.1105         estimate D2E/DX2                !
 ! A17   A(1,6,16)             120.4966         estimate D2E/DX2                !
 ! A18   A(5,6,16)             120.3928         estimate D2E/DX2                !
 ! A19   A(4,7,9)              109.2874         estimate D2E/DX2                !
 ! A20   A(4,7,10)             125.4909         estimate D2E/DX2                !
 ! A21   A(9,7,10)             125.2217         estimate D2E/DX2                !
 ! A22   A(5,8,9)              107.125          estimate D2E/DX2                !
 ! A23   A(5,8,11)             127.0344         estimate D2E/DX2                !
 ! A24   A(9,8,11)             125.8405         estimate D2E/DX2                !
 ! A25   A(7,9,8)              109.5578         estimate D2E/DX2                !
 ! A26   A(7,9,12)             120.4645         estimate D2E/DX2                !
 ! A27   A(8,9,12)             129.9776         estimate D2E/DX2                !
 ! D1    D(6,1,2,3)             -0.0008         estimate D2E/DX2                !
 ! D2    D(6,1,2,13)          -179.9981         estimate D2E/DX2                !
 ! D3    D(15,1,2,3)           179.996          estimate D2E/DX2                !
 ! D4    D(15,1,2,13)           -0.0013         estimate D2E/DX2                !
 ! D5    D(2,1,6,5)             -0.0018         estimate D2E/DX2                !
 ! D6    D(2,1,6,16)           179.9965         estimate D2E/DX2                !
 ! D7    D(15,1,6,5)          -179.9986         estimate D2E/DX2                !
 ! D8    D(15,1,6,16)           -0.0003         estimate D2E/DX2                !
 ! D9    D(1,2,3,4)              0.002          estimate D2E/DX2                !
 ! D10   D(1,2,3,14)          -179.9968         estimate D2E/DX2                !
 ! D11   D(13,2,3,4)           179.9992         estimate D2E/DX2                !
 ! D12   D(13,2,3,14)            0.0005         estimate D2E/DX2                !
 ! D13   D(2,3,4,5)             -0.0005         estimate D2E/DX2                !
 ! D14   D(2,3,4,7)           -179.9911         estimate D2E/DX2                !
 ! D15   D(14,3,4,5)           179.9982         estimate D2E/DX2                !
 ! D16   D(14,3,4,7)             0.0076         estimate D2E/DX2                !
 ! D17   D(3,4,5,6)             -0.002          estimate D2E/DX2                !
 ! D18   D(3,4,5,8)           -179.9955         estimate D2E/DX2                !
 ! D19   D(7,4,5,6)            179.9905         estimate D2E/DX2                !
 ! D20   D(7,4,5,8)             -0.003          estimate D2E/DX2                !
 ! D21   D(3,4,7,9)           -179.98           estimate D2E/DX2                !
 ! D22   D(3,4,7,10)            -0.0649         estimate D2E/DX2                !
 ! D23   D(5,4,7,9)              0.0284         estimate D2E/DX2                !
 ! D24   D(5,4,7,10)           179.9434         estimate D2E/DX2                !
 ! D25   D(4,5,6,1)              0.0031         estimate D2E/DX2                !
 ! D26   D(4,5,6,16)          -179.9951         estimate D2E/DX2                !
 ! D27   D(8,5,6,1)            179.9944         estimate D2E/DX2                !
 ! D28   D(8,5,6,16)            -0.0038         estimate D2E/DX2                !
 ! D29   D(4,5,8,9)             -0.0234         estimate D2E/DX2                !
 ! D30   D(4,5,8,11)           179.9883         estimate D2E/DX2                !
 ! D31   D(6,5,8,9)            179.9846         estimate D2E/DX2                !
 ! D32   D(6,5,8,11)            -0.0037         estimate D2E/DX2                !
 ! D33   D(4,7,9,8)             -0.0444         estimate D2E/DX2                !
 ! D34   D(4,7,9,12)           179.9847         estimate D2E/DX2                !
 ! D35   D(10,7,9,8)          -179.9597         estimate D2E/DX2                !
 ! D36   D(10,7,9,12)            0.0693         estimate D2E/DX2                !
 ! D37   D(5,8,9,7)              0.0414         estimate D2E/DX2                !
 ! D38   D(5,8,9,12)          -179.9913         estimate D2E/DX2                !
 ! D39   D(11,8,9,7)          -179.9702         estimate D2E/DX2                !
 ! D40   D(11,8,9,12)           -0.0029         estimate D2E/DX2                !
 --------------------------------------------------------------------------------
 Trust Radius=3.00D-01 FncErr=1.00D-07 GrdErr=1.00D-06 EigMax=2.50D+02 EigMin=1.00D-04
 Number of steps in this run=     94 maximum allowed number of steps=    100.
 GradGradGradGradGradGradGradGradGradGradGradGradGradGradGradGradGradGrad

                          Input orientation:                          
 ---------------------------------------------------------------------
 Center     Atomic      Atomic             Coordinates (Angstroms)
 Number     Number       Type             X           Y           Z
 ---------------------------------------------------------------------
      1          6           0       -2.151063    0.689208    0.000088
      2          6           0       -2.127927   -0.715818    0.000075
      3          6           0       -0.932297   -1.413100   -0.000011
      4          6           0        0.246911   -0.670201   -0.000042
      5          6           0        0.248193    0.748299    0.000000
      6          6           0       -0.979474    1.423526    0.000032
      7          7           0        1.561774   -1.077592   -0.000285
      8          6           0        1.620133    1.162900   -0.000157
      9          6           0        2.382013    0.030806    0.000248
     10          1           0        1.876315   -2.030011    0.000438
     11          1           0        1.992173    2.173010   -0.000348
     12          1           0        3.452549   -0.082425    0.000408
     13          1           0       -3.061594   -1.262020    0.000088
     14          1           0       -0.917252   -2.495342   -0.000073
     15          1           0       -3.104203    1.200785    0.000090
     16          1           0       -1.009348    2.505421   -0.000015
 ---------------------------------------------------------------------
                    Distance matrix (angstroms):
                    1          2          3          4          5
     1  C    0.000000
     2  C    1.405216   0.000000
     3  C    2.430039   1.384100   0.000000
     4  C    2.756496   2.375276   1.393711   0.000000
     5  C    2.399984   2.790983   2.462763   1.418501   0.000000
     6  C    1.382694   2.428114   2.837018   2.426461   1.401106
     7  N    4.111781   3.707395   2.516536   1.376529   2.249305
     8  C    3.800829   4.192557   3.626386   2.290414   1.433218
     9  C    4.580641   4.571324   3.615178   2.247236   2.251218
    10  H    4.859416   4.214387   2.875566   2.122273   3.220216
    11  H    4.400917   5.031953   4.627387   3.336134   2.251948
    12  H    5.656491   5.616307   4.582311   3.259079   3.310287
    13  H    2.153220   1.081698   2.134650   3.361020   3.872476
    14  H    3.415208   2.152310   1.082347   2.164813   3.446661
    15  H    1.081752   2.150926   3.398466   3.838040   3.382795
    16  H    2.145261   3.409927   3.919278   3.415079   2.160761
                    6          7          8          9         10
     6  C    0.000000
     7  N    3.565604   0.000000
     8  C    2.612639   2.241252   0.000000
     9  C    3.638580   1.378890   1.364587   0.000000
    10  H    4.481345   1.003015   3.203172   2.121956   0.000000
    11  H    3.064704   3.278972   1.076446   2.177387   4.204618
    12  H    4.680888   2.136677   2.215532   1.076508   2.505515
    13  H    3.398144   4.627045   5.272457   5.595021   4.997275
    14  H    3.919362   2.855798   4.452085   4.155307   2.832058
    15  H    2.136372   5.192528   4.724488   5.609583   5.936632
    16  H    1.082307   4.410062   2.952378   4.198220   5.375611
                   11         12         13         14         15
    11  H    0.000000
    12  H    2.686947   0.000000
    13  H    6.110646   6.620083   0.000000
    14  H    5.500751   4.991726   2.473719   0.000000
    15  H    5.188282   6.681139   2.463174   4.294661   0.000000
    16  H    3.019872   5.158049   4.290143   5.001611   2.467892
                   16
    16  H    0.000000
 Stoichiometry    C8H7N
 Framework group  C1[X(C8H7N)]
 Deg. of freedom    42
 Full point group                 C1      NOp   1
 Largest Abelian subgroup         C1      NOp   1
 Largest concise Abelian subgroup C1      NOp   1
                         Standard orientation:                         
 ---------------------------------------------------------------------
 Center     Atomic      Atomic             Coordinates (Angstroms)
 Number     Number       Type             X           Y           Z
 ---------------------------------------------------------------------
      1          6           0       -2.151063    0.689208    0.000088
      2          6           0       -2.127927   -0.715818    0.000075
      3          6           0       -0.932297   -1.413100   -0.000011
      4          6           0        0.246911   -0.670201   -0.000042
      5          6           0        0.248193    0.748299    0.000000
      6          6           0       -0.979474    1.423526    0.000032
      7          7           0        1.561774   -1.077592   -0.000285
      8          6           0        1.620133    1.162900   -0.000157
      9          6           0        2.382013    0.030806    0.000248
     10          1           0        1.876315   -2.030011    0.000438
     11          1           0        1.992173    2.173010   -0.000348
     12          1           0        3.452549   -0.082425    0.000408
     13          1           0       -3.061594   -1.262020    0.000088
     14          1           0       -0.917252   -2.495342   -0.000073
     15          1           0       -3.104203    1.200785    0.000090
     16          1           0       -1.009348    2.505421   -0.000015
 ---------------------------------------------------------------------
 Rotational constants (GHZ):           3.9080822           1.6429452           1.1566805
 Standard basis: 6-31+G(d) (6D, 7F)
 There are   185 symmetry adapted cartesian basis functions of A   symmetry.
 There are   185 symmetry adapted basis functions of A   symmetry.
   185 basis functions,   316 primitive gaussians,   185 cartesian basis functions
    31 alpha electrons       31 beta electrons
       nuclear repulsion energy       401.3368668897 Hartrees.
 NAtoms=   16 NActive=   16 NUniq=   16 SFac= 1.00D+00 NAtFMM=   60 NAOKFM=F Big=F
 Integral buffers will be    131072 words long.
 Regular integral format.
 Two-electron integral symmetry is turned on.
 One-electron integrals computed using PRISM.
 NBasis=   185 RedAO= T EigKep=  1.26D-06  NBF=   185
 NBsUse=   185 1.00D-06 EigRej= -1.00D+00 NBFU=   185
 ExpMin= 4.38D-02 ExpMax= 4.17D+03 ExpMxC= 6.27D+02 IAcc=3 IRadAn=         5 AccDes= 0.00D+00
 Harris functional with IExCor= 1009 and IRadAn=       5 diagonalized for initial guess.
 HarFok:  IExCor= 1009 AccDes= 0.00D+00 IRadAn=         5 IDoV= 1 UseB2=F ITyADJ=14
 ICtDFT=  3500011 ScaDFX=  1.000000  1.000000  1.000000  1.000000
 FoFCou: FMM=F IPFlag=           0 FMFlag=      100000 FMFlg1=           0
         NFxFlg=           0 DoJE=T BraDBF=F KetDBF=T FulRan=T
         wScrn=  0.000000 ICntrl=       500 IOpCl=  0 I1Cent=   200000004 NGrid=           0
         NMat0=    1 NMatS0=      1 NMatT0=    0 NMatD0=    1 NMtDS0=    0 NMtDT0=    0
 Petite list used in FoFCou.
 Keep R1 ints in memory in canonical form, NReq=152074523.
 Requested convergence on RMS density matrix=1.00D-08 within 128 cycles.
 Requested convergence on MAX density matrix=1.00D-06.
 Requested convergence on             energy=1.00D-06.
 No special actions if energy rises.
 SCF Done:  E(RM06) =  -363.551124218     A.U. after   15 cycles
            NFock= 15  Conv=0.90D-08     -V/T= 2.0110
 DoSCS=F DFT=T ScalE2(SS,OS)=  1.000000  1.000000
 ExpMin= 4.38D-02 ExpMax= 4.17D+03 ExpMxC= 6.27D+02 IAcc=3 IRadAn=         5 AccDes= 0.00D+00
 HarFok:  IExCor=  205 AccDes= 0.00D+00 IRadAn=         5 IDoV=-2 UseB2=F ITyADJ=14
 ICtDFT= 12500011 ScaDFX=  1.000000  1.000000  1.000000  1.000000
 Range of M.O.s used for correlation:    10   185
 NBasis=   185 NAE=    31 NBE=    31 NFC=     9 NFV=     0
 NROrb=    176 NOA=    22 NOB=    22 NVA=   154 NVB=   154

 **** Warning!!: The largest alpha MO coefficient is  0.17932574D+03

 Orbital symmetries:
       Occupied  (A) (A) (A) (A) (A) (A) (A) (A) (A) (A) (A) (A)
                 (A) (A) (A) (A) (A) (A) (A) (A) (A) (A) (A) (A)
                 (A) (A) (A) (A) (A) (A) (A)
       Virtual   (A) (A) (A) (A) (A) (A) (A) (A) (A) (A) (A) (A)
                 (A) (A) (A) (A) (A) (A) (A) (A) (A) (A) (A) (A)
                 (A) (A) (A) (A) (A) (A) (A) (A) (A) (A) (A) (A)
                 (A) (A) (A) (A) (A) (A) (A) (A) (A) (A) (A) (A)
                 (A) (A) (A) (A) (A) (A) (A) (A) (A) (A) (A) (A)
                 (A) (A) (A) (A) (A) (A) (A) (A) (A) (A) (A) (A)
                 (A) (A) (A) (A) (A) (A) (A) (A) (A) (A) (A) (A)
                 (A) (A) (A) (A) (A) (A) (A) (A) (A) (A) (A) (A)
                 (A) (A) (A) (A) (A) (A) (A) (A) (A) (A) (A) (A)
                 (A) (A) (A) (A) (A) (A) (A) (A) (A) (A) (A) (A)
                 (A) (A) (A) (A) (A) (A) (A) (A) (A) (A) (A) (A)
                 (A) (A) (A) (A) (A) (A) (A) (A) (A) (A) (A) (A)
                 (A) (A) (A) (A) (A) (A) (A) (A) (A) (A)
    24 initial guesses have been made.
 Convergence on wavefunction:    0.000001000000000
 Iteration     1 Dimension    24 NMult     0 NNew     24
 CISAX will form    24 AO SS matrices at one time.
 New state      3 was old state      4
 New state      4 was old state      5
 New state      5 was old state      6
 New state      6 was old state      3
 Iteration     2 Dimension    36 NMult    24 NNew     12
 New state      3 was old state      6
 New state      4 was old state      3
 New state      6 was old state      4
 Iteration     3 Dimension    48 NMult    36 NNew     12
 Iteration     4 Dimension    60 NMult    48 NNew     12
 Iteration     5 Dimension    72 NMult    60 NNew     12
 Iteration     6 Dimension    84 NMult    72 NNew     12
 Iteration     7 Dimension    96 NMult    84 NNew     12
 Iteration     8 Dimension   108 NMult    96 NNew     12
 Iteration     9 Dimension   120 NMult   108 NNew     12
 Iteration    10 Dimension   124 NMult   120 NNew      4
 Iteration    11 Dimension   128 NMult   124 NNew      4
 ***********************************************************************
 Excited states from <AA,BB:AA,BB> singles matrix:
 ***********************************************************************
 
 Ground to excited state transition densities written to RWF  633
 Ground to excited state transition electric dipole moments (Au):
       state          X           Y           Z        Dip. S.      Osc.
         1        -0.0002      0.0001     -0.0900      0.0081      0.0008
         2         0.0047     -0.0056     -0.0844      0.0072      0.0008
         3        -0.6283      0.6184     -0.0008      0.7772      0.0897
         4         0.0002      0.0004     -0.0293      0.0009      0.0001
         5        -0.5538     -0.1522      0.0001      0.3299      0.0391
         6         0.0005      0.0000      0.0473      0.0022      0.0003
 Ground to excited state transition velocity dipole moments (Au):
       state          X           Y           Z        Dip. S.      Osc.
         1         0.0000     -0.0000      0.0061      0.0000      0.0002
         2        -0.0008      0.0011      0.0181      0.0003      0.0013
         3         0.1040     -0.1180      0.0002      0.0247      0.0953
         4        -0.0000     -0.0001      0.0066      0.0000      0.0002
         5         0.0962      0.0290     -0.0000      0.0101      0.0378
         6        -0.0001      0.0000     -0.0068      0.0000      0.0002
 Ground to excited state transition magnetic dipole moments (Au):
       state          X           Y           Z
         1         0.1124     -0.0396      0.0002
         2         0.0042     -0.1665     -0.0016
         3         0.0001     -0.0014      0.1700
         4         0.1300     -0.1745      0.0001
         5         0.0001     -0.0000     -0.0702
         6         0.1435      0.1529      0.0002
 Ground to excited state transition velocity quadrupole moments (Au):
       state          XX          YY          ZZ          XY          XZ          YZ
         1         0.0001     -0.0000      0.0001      0.0000      0.0384      0.0424
         2        -0.0021      0.0011     -0.0002     -0.0004      0.1015     -0.0415
         3         0.2370     -0.1378      0.0222      0.0379      0.0009     -0.0004
         4        -0.0001      0.0000      0.0000      0.0001      0.1809      0.1372
         5         0.0649     -0.1042      0.0193     -0.0167      0.0000      0.0002
         6         0.0000     -0.0001      0.0000      0.0000     -0.1066      0.0699
 <0|del|b> * <b|rxdel|0> + <0|del|b> * <b|delr+rdel|0>
 Rotatory Strengths (R) in cgs (10**-40 erg-esu-cm/Gauss)
       state          XX          YY          ZZ    R(velocity)    E-M Angle
         1         0.0070      0.0171      0.0067      0.0103       90.00
         2        -0.6591      0.0131     -0.2146     -0.2869       93.98
         3         0.6200     -0.0139      0.2483      0.2848       89.55
         4         0.0578     -0.0185     -0.0005      0.0130       90.00
         5        -0.0010      0.0465     -0.0146      0.0103       90.00
         6         0.0030     -0.0377     -0.0115     -0.0154       90.00
 1/2[<0|r|b>*<b|rxdel|0> + (<0|rxdel|b>*<b|r|0>)*]
 Rotatory Strengths (R) in cgs (10**-40 erg-esu-cm/Gauss)
       state          XX          YY          ZZ     R(length)
         1         0.0162      0.0040      0.0140      0.0114
         2        -0.0140     -0.6626     -0.0949     -0.2572
         3         0.0630      0.6159      0.0928      0.2572
         4        -0.0182      0.0455      0.0023      0.0099
         5         0.0311     -0.0021      0.0026      0.0105
         6        -0.0540     -0.0023     -0.0053     -0.0205
  1/2[<0|del|b>*<b|r|0> + (<0|r|b>*<b|del|0>)*] (Au)
       state          X           Y           Z        Dip. S.   Osc.(frdel)
         1        -0.0000     -0.0000     -0.0006      0.0006      0.0004
         2        -0.0000     -0.0000     -0.0015      0.0015      0.0010
         3        -0.0654     -0.0729     -0.0000      0.1383      0.0922
         4        -0.0000     -0.0000     -0.0002      0.0002      0.0001
         5        -0.0533     -0.0044     -0.0000      0.0577      0.0384
         6        -0.0000      0.0000     -0.0003      0.0003      0.0002

 Excitation energies and oscillator strengths:
 
 Excited State   1:      Singlet-A      4.2195 eV  293.83 nm  f=0.0008  <S**2>=0.000
      31 -> 32         0.70412
 
 Excited State   2:      Singlet-A      4.7007 eV  263.76 nm  f=0.0008  <S**2>=0.000
      30 -> 32         0.69794
 
 Excited State   3:      Singlet-A      4.7090 eV  263.29 nm  f=0.0897  <S**2>=0.000
      30 -> 33        -0.10893
      30 -> 38         0.17539
      31 -> 33         0.66597
 This state for optimization and/or second-order correction.
 Total Energy, E(TD-HF/TD-DFT) =  -363.378073000    
 Copying the excited state density for this state as the 1-particle RhoCI density.
 
 Excited State   4:      Singlet-A      4.8216 eV  257.15 nm  f=0.0001  <S**2>=0.000
      31 -> 34         0.70024
 
 Excited State   5:      Singlet-A      4.8406 eV  256.14 nm  f=0.0391  <S**2>=0.000
      30 -> 33         0.57750
      31 -> 38        -0.37541
 
 Excited State   6:      Singlet-A      4.8937 eV  253.36 nm  f=0.0003  <S**2>=0.000
      31 -> 35         0.70124
 SavETr:  write IOETrn=   770 NScale= 10 NData=  16 NLR=1 NState=    6 LETran=     118.
          IDoAtm=1111111111111111
          Differentiating once with respect to electric field.
                with respect to dipole field.
          Differentiating once with respect to nuclear coordinates.
 Keep R1 ints in memory in canonical form, NReq=152086915.
          There are     1 degrees of freedom in the 1st order CPHF.  IDoFFX=0 NUNeed=     1.
 LinEq1:  Iter=  0 NonCon=     1 RMS=9.38D-03 Max=2.39D-01 NDo=     1
 AX will form     1 AO Fock derivatives at one time.
 LinEq1:  Iter=  1 NonCon=     1 RMS=4.40D-03 Max=1.22D-01 NDo=     1
 LinEq1:  Iter=  2 NonCon=     1 RMS=3.00D-03 Max=7.27D-02 NDo=     1
 LinEq1:  Iter=  3 NonCon=     1 RMS=1.28D-03 Max=2.88D-02 NDo=     1
 LinEq1:  Iter=  4 NonCon=     1 RMS=7.68D-04 Max=2.30D-02 NDo=     1
 LinEq1:  Iter=  5 NonCon=     1 RMS=4.42D-04 Max=9.81D-03 NDo=     1
 LinEq1:  Iter=  6 NonCon=     1 RMS=2.93D-04 Max=9.42D-03 NDo=     1
 LinEq1:  Iter=  7 NonCon=     1 RMS=1.15D-04 Max=2.51D-03 NDo=     1
 LinEq1:  Iter=  8 NonCon=     1 RMS=9.08D-05 Max=1.76D-03 NDo=     1
 LinEq1:  Iter=  9 NonCon=     1 RMS=3.25D-05 Max=7.41D-04 NDo=     1
 LinEq1:  Iter= 10 NonCon=     1 RMS=2.19D-05 Max=5.94D-04 NDo=     1
 LinEq1:  Iter= 11 NonCon=     1 RMS=7.94D-06 Max=1.23D-04 NDo=     1
 LinEq1:  Iter= 12 NonCon=     1 RMS=5.40D-06 Max=8.13D-05 NDo=     1
 LinEq1:  Iter= 13 NonCon=     1 RMS=1.98D-06 Max=2.49D-05 NDo=     1
 LinEq1:  Iter= 14 NonCon=     1 RMS=6.51D-07 Max=7.73D-06 NDo=     1
 LinEq1:  Iter= 15 NonCon=     1 RMS=4.64D-07 Max=8.98D-06 NDo=     1
 LinEq1:  Iter= 16 NonCon=     1 RMS=8.65D-08 Max=1.58D-06 NDo=     1
 LinEq1:  Iter= 17 NonCon=     1 RMS=2.05D-08 Max=4.31D-07 NDo=     1
 LinEq1:  Iter= 18 NonCon=     1 RMS=1.44D-08 Max=2.83D-07 NDo=     1
 LinEq1:  Iter= 19 NonCon=     1 RMS=3.91D-09 Max=4.08D-08 NDo=     1
 LinEq1:  Iter= 20 NonCon=     1 RMS=8.69D-10 Max=1.10D-08 NDo=     1
 LinEq1:  Iter= 21 NonCon=     1 RMS=2.50D-10 Max=2.63D-09 NDo=     1
 LinEq1:  Iter= 22 NonCon=     0 RMS=8.78D-11 Max=7.49D-10 NDo=     1
 Linear equations converged to 1.000D-10 1.000D-09 after    22 iterations.
 End of Minotr F.D. properties file   721 does not exist.
 End of Minotr F.D. properties file   722 does not exist.
 End of Minotr F.D. properties file   788 does not exist.

 **********************************************************************

            Population analysis using the CI Density.

 **********************************************************************

 Orbital symmetries:
       Occupied  (A) (A) (A) (A) (A) (A) (A) (A) (A) (A) (A) (A)
                 (A) (A) (A) (A) (A) (A) (A) (A) (A) (A) (A) (A)
                 (A) (A) (A) (A) (A) (A) (A)
       Virtual   (A) (A) (A) (A) (A) (A) (A) (A) (A) (A) (A) (A)
                 (A) (A) (A) (A) (A) (A) (A) (A) (A) (A) (A) (A)
                 (A) (A) (A) (A) (A) (A) (A) (A) (A) (A) (A) (A)
                 (A) (A) (A) (A) (A) (A) (A) (A) (A) (A) (A) (A)
                 (A) (A) (A) (A) (A) (A) (A) (A) (A) (A) (A) (A)
                 (A) (A) (A) (A) (A) (A) (A) (A) (A) (A) (A) (A)
                 (A) (A) (A) (A) (A) (A) (A) (A) (A) (A) (A) (A)
                 (A) (A) (A) (A) (A) (A) (A) (A) (A) (A) (A) (A)
                 (A) (A) (A) (A) (A) (A) (A) (A) (A) (A) (A) (A)
                 (A) (A) (A) (A) (A) (A) (A) (A) (A) (A) (A) (A)
                 (A) (A) (A) (A) (A) (A) (A) (A) (A) (A) (A) (A)
                 (A) (A) (A) (A) (A) (A) (A) (A) (A) (A) (A) (A)
                 (A) (A) (A) (A) (A) (A) (A) (A) (A) (A)
 The electronic state is 1-A.
 Alpha  occ. eigenvalues --  -14.45906 -10.29373 -10.29219 -10.26133 -10.25746
 Alpha  occ. eigenvalues --  -10.25675 -10.25664 -10.25157 -10.24799  -0.99950
 Alpha  occ. eigenvalues --   -0.85476  -0.79774  -0.74949  -0.73032  -0.63748
 Alpha  occ. eigenvalues --   -0.60735  -0.59417  -0.55270  -0.49351  -0.48288
 Alpha  occ. eigenvalues --   -0.44936  -0.44125  -0.43987  -0.42343  -0.40309
 Alpha  occ. eigenvalues --   -0.36733  -0.34975  -0.34680  -0.29316  -0.23615
 Alpha  occ. eigenvalues --   -0.21996
 Alpha virt. eigenvalues --   -0.03171  -0.01443  -0.01289  -0.00875   0.00328
 Alpha virt. eigenvalues --    0.00585   0.02117   0.02842   0.03005   0.03318
 Alpha virt. eigenvalues --    0.03913   0.04137   0.06428   0.06816   0.06909
 Alpha virt. eigenvalues --    0.06987   0.09490   0.09937   0.10941   0.11751
 Alpha virt. eigenvalues --    0.12075   0.12175   0.13188   0.13475   0.15206
 Alpha virt. eigenvalues --    0.15603   0.16111   0.16669   0.17558   0.17612
 Alpha virt. eigenvalues --    0.18188   0.19042   0.19277   0.20078   0.20769
 Alpha virt. eigenvalues --    0.21432   0.21513   0.22201   0.23228   0.23843
 Alpha virt. eigenvalues --    0.24707   0.25011   0.25873   0.27050   0.28276
 Alpha virt. eigenvalues --    0.29362   0.29813   0.30947   0.32567   0.35378
 Alpha virt. eigenvalues --    0.35669   0.39103   0.43254   0.43786   0.50628
 Alpha virt. eigenvalues --    0.57436   0.62224   0.65247   0.66208   0.68063
 Alpha virt. eigenvalues --    0.69968   0.70072   0.71565   0.72187   0.72860
 Alpha virt. eigenvalues --    0.73333   0.74540   0.75912   0.77272   0.78578
 Alpha virt. eigenvalues --    0.80204   0.83621   0.86915   0.87538   0.88484
 Alpha virt. eigenvalues --    0.90491   0.90848   0.92517   0.95649   0.95750
 Alpha virt. eigenvalues --    0.98440   1.00794   1.02709   1.04558   1.08541
 Alpha virt. eigenvalues --    1.10189   1.10845   1.15760   1.16864   1.19227
 Alpha virt. eigenvalues --    1.21252   1.24034   1.24504   1.29442   1.32440
 Alpha virt. eigenvalues --    1.34409   1.34600   1.39449   1.41344   1.41693
 Alpha virt. eigenvalues --    1.46052   1.46380   1.49618   1.50479   1.51724
 Alpha virt. eigenvalues --    1.56400   1.62335   1.77618   1.82754   1.86093
 Alpha virt. eigenvalues --    1.88278   1.88340   1.89919   1.94182   1.95480
 Alpha virt. eigenvalues --    1.99354   2.05020   2.07832   2.11917   2.15343
 Alpha virt. eigenvalues --    2.15741   2.15999   2.23537   2.24310   2.25037
 Alpha virt. eigenvalues --    2.26165   2.29713   2.36450   2.39303   2.41502
 Alpha virt. eigenvalues --    2.51903   2.54624   2.61393   2.63857   2.65170
 Alpha virt. eigenvalues --    2.67330   2.71591   2.79011   2.81307   2.84005
 Alpha virt. eigenvalues --    2.93055   2.95357   3.07036   3.22945   3.41224
 Alpha virt. eigenvalues --    4.13744   4.22347   4.25233   4.28826   4.32581
 Alpha virt. eigenvalues --    4.36606   4.44446   4.48594   4.75289
          Condensed to atoms (all electrons):
               1          2          3          4          5          6
     1  C    6.328765   0.109165   0.649501  -0.931729   0.312257  -0.908190
     2  C    0.109165   6.669805  -1.132346   0.743168  -0.760505   0.852710
     3  C    0.649501  -1.132346  16.643437  -3.751560  -4.614332  -3.539557
     4  C   -0.931729   0.743168  -3.751560  14.237846  -3.253567  -0.435351
     5  C    0.312257  -0.760505  -4.614332  -3.253567  16.680720  -1.420193
     6  C   -0.908190   0.852710  -3.539557  -0.435351  -1.420193  14.368304
     7  N   -0.043001   0.044326  -0.532731  -0.358405   0.883585   0.150170
     8  C    0.286841  -0.428269   4.048336   1.148732  -5.578596  -3.710695
     9  C   -0.160226   0.066093  -1.722210  -0.400971   2.220989   1.184516
    10  H   -0.002130  -0.011975  -0.155019  -0.056327   0.179571   0.023161
    11  H    0.006957   0.001663  -0.002207  -0.016983   0.070741   0.051582
    12  H    0.002311  -0.000286   0.045318   0.124781  -0.152773  -0.021663
    13  H    0.052370   0.195978   0.022606   0.017994   0.004440   0.007872
    14  H   -0.024969   0.120552  -0.167161   0.323797   0.023835   0.020887
    15  H    0.223089   0.022876   0.036585  -0.034406   0.051046  -0.008319
    16  H    0.110164  -0.008780  -0.002532  -0.015024   0.254290  -0.048964
               7          8          9         10         11         12
     1  C   -0.043001   0.286841  -0.160226  -0.002130   0.006957   0.002311
     2  C    0.044326  -0.428269   0.066093  -0.011975   0.001663  -0.000286
     3  C   -0.532731   4.048336  -1.722210  -0.155019  -0.002207   0.045318
     4  C   -0.358405   1.148732  -0.400971  -0.056327  -0.016983   0.124781
     5  C    0.883585  -5.578596   2.220989   0.179571   0.070741  -0.152773
     6  C    0.150170  -3.710695   1.184516   0.023161   0.051582  -0.021663
     7  N    7.246833  -0.815880   0.631590   0.254287   0.003777  -0.050779
     8  C   -0.815880  13.433297  -2.872463   0.026776   0.147601   0.153405
     9  C    0.631590  -2.872463   7.088944  -0.036262   0.031540   0.207061
    10  H    0.254287   0.026776  -0.036262   0.338117  -0.000076  -0.002269
    11  H    0.003777   0.147601   0.031540  -0.000076   0.474365  -0.000757
    12  H   -0.050779   0.153405   0.207061  -0.002269  -0.000757   0.477514
    13  H   -0.000474  -0.001163   0.001750  -0.000003   0.000000  -0.000000
    14  H   -0.008410  -0.029421   0.023113   0.002128   0.000002   0.000002
    15  H    0.000344   0.012167  -0.000664  -0.000000  -0.000002  -0.000000
    16  H   -0.000687  -0.012546   0.007335   0.000005   0.001394  -0.000001
              13         14         15         16
     1  C    0.052370  -0.024969   0.223089   0.110164
     2  C    0.195978   0.120552   0.022876  -0.008780
     3  C    0.022606  -0.167161   0.036585  -0.002532
     4  C    0.017994   0.323797  -0.034406  -0.015024
     5  C    0.004440   0.023835   0.051046   0.254290
     6  C    0.007872   0.020887  -0.008319  -0.048964
     7  N   -0.000474  -0.008410   0.000344  -0.000687
     8  C   -0.001163  -0.029421   0.012167  -0.012546
     9  C    0.001750   0.023113  -0.000664   0.007335
    10  H   -0.000003   0.002128  -0.000000   0.000005
    11  H    0.000000   0.000002  -0.000002   0.001394
    12  H   -0.000000   0.000002  -0.000000  -0.000001
    13  H    0.524949  -0.004759  -0.004463  -0.000161
    14  H   -0.004759   0.542664  -0.000163   0.000019
    15  H   -0.004463  -0.000163   0.522945  -0.004485
    16  H   -0.000161   0.000019  -0.004485   0.538876
 Mulliken charges:
               1
     1  C   -0.011175
     2  C   -0.484177
     3  C    0.173873
     4  C   -1.341994
     5  C    1.098493
     6  C   -0.566267
     7  N   -0.404546
     8  C    0.191877
     9  C   -0.270137
    10  H    0.440017
    11  H    0.230404
    12  H    0.218135
    13  H    0.183064
    14  H    0.177885
    15  H    0.183450
    16  H    0.181098
 Sum of Mulliken charges =  -0.00000
 Mulliken charges with hydrogens summed into heavy atoms:
               1
     1  C    0.172275
     2  C   -0.301112
     3  C    0.351757
     4  C   -1.341994
     5  C    1.098493
     6  C   -0.385169
     7  N    0.035471
     8  C    0.422281
     9  C   -0.052003
 Electronic spatial extent (au):  <R**2>=           1008.5549
 Charge=             -0.0000 electrons
 Dipole moment (field-independent basis, Debye):
    X=              3.5502    Y=             -1.0815    Z=              0.0052  Tot=              3.7113
 Quadrupole moment (field-independent basis, Debye-Ang):
   XX=            -46.4721   YY=            -45.9580   ZZ=            -60.7231
   XY=             -2.1450   XZ=              0.0119   YZ=             -0.0133
 Traceless Quadrupole moment (field-independent basis, Debye-Ang):
   XX=              4.5790   YY=              5.0931   ZZ=             -9.6720
   XY=             -2.1450   XZ=              0.0119   YZ=             -0.0133
 Octapole moment (field-independent basis, Debye-Ang**2):
  XXX=             21.4201  YYY=             -8.7817  ZZZ=              0.0237  XYY=             14.7307
  XXY=             -5.4027  XXZ=              0.0464  XZZ=              3.3537  YZZ=             -0.3104
  YYZ=              0.0403  XYZ=             -0.0148
 Hexadecapole moment (field-independent basis, Debye-Ang**3):
 XXXX=           -861.8649 YYYY=           -392.9669 ZZZZ=            -93.1514 XXXY=            -16.2354
 XXXZ=              0.2311 YYYX=            -13.8173 YYYZ=             -0.1250 ZZZX=              0.0518
 ZZZY=             -0.0553 XXYY=           -194.0927 XXZZ=           -204.5068 YYZZ=           -104.8112
 XXYZ=             -0.0831 YYXZ=              0.0149 ZZXY=             -0.5623
 N-N= 4.013368668897D+02 E-N=-1.644061563068D+03  KE= 3.597415190752D+02
 Calling FoFJK, ICntrl=  10005127 FMM=F ISym2X=0 I1Cent= 0 IOpClX= 0 NMat=1 NMatS=1 NMatT=0.
 ***** Axes restored to original set *****
 -------------------------------------------------------------------
 Center     Atomic                   Forces (Hartrees/Bohr)
 Number     Number              X              Y              Z
 -------------------------------------------------------------------
      1        6          -0.021999958   -0.035756574    0.000014057
      2        6          -0.036459502    0.041706661   -0.000010968
      3        6           0.038162216   -0.027400616   -0.000012196
      4        6          -0.012060862    0.016124546    0.000027607
      5        6           0.018742419   -0.014642358   -0.000051441
      6        6           0.010124096    0.028525706   -0.000026332
      7        7           0.012372447    0.026400608    0.000077588
      8        6          -0.040700770    0.017165115    0.000039981
      9        6           0.029442847   -0.048349097   -0.000059569
     10        1           0.003375064   -0.007964840   -0.000018791
     11        1           0.002133133    0.004847281    0.000007700
     12        1           0.004632910   -0.000934084   -0.000004597
     13        1          -0.004464381   -0.001861140    0.000000229
     14        1           0.000839463   -0.004969934    0.000004127
     15        1          -0.004310980    0.001960560    0.000003701
     16        1           0.000171860    0.005148164    0.000008903
 -------------------------------------------------------------------
 Cartesian Forces:  Max     0.048349097 RMS     0.017768503

 GradGradGradGradGradGradGradGradGradGradGradGradGradGradGradGradGradGrad
 Berny optimization.
 FormGI is forming the generalized inverse of G from B-inverse, IUseBI=4.
 Internal  Forces:  Max     0.047971825 RMS     0.009300738
 Search for a local minimum.
 Step number   1 out of a maximum of   94
 All quantities printed in internal units (Hartrees-Bohrs-Radians)
 Mixed Optimization -- RFO/linear search
 Second derivative matrix not updated -- first step.
 ITU=  0
     Eigenvalues ---    0.01853   0.01931   0.01986   0.02012   0.02070
     Eigenvalues ---    0.02113   0.02148   0.02153   0.02172   0.02209
     Eigenvalues ---    0.02233   0.02248   0.02338   0.16000   0.16000
     Eigenvalues ---    0.16000   0.16000   0.16000   0.16000   0.16000
     Eigenvalues ---    0.22000   0.22188   0.22662   0.24011   0.24651
     Eigenvalues ---    0.35712   0.35717   0.35783   0.35790   0.36420
     Eigenvalues ---    0.36427   0.37009   0.38432   0.42633   0.43465
     Eigenvalues ---    0.45769   0.46692   0.47162   0.47468   0.47567
     Eigenvalues ---    0.48125   0.50955
 RFO step:  Lambda=-1.57380968D-02 EMin= 1.85287394D-02
 Linear search not attempted -- first point.
 Iteration  1 RMS(Cart)=  0.02789562 RMS(Int)=  0.00024280
 Iteration  2 RMS(Cart)=  0.00027665 RMS(Int)=  0.00011241
 Iteration  3 RMS(Cart)=  0.00000005 RMS(Int)=  0.00011241
 Variable       Old X    -DE/DX   Delta X   Delta X   Delta X     New X
                                 (Linear)    (Quad)   (Total)
    R1        2.65547  -0.01444   0.00000  -0.02922  -0.02919   2.62628
    R2        2.61291   0.03275   0.00000   0.06630   0.06632   2.67923
    R3        2.04421   0.00473   0.00000   0.01266   0.01266   2.05687
    R4        2.61557   0.04797   0.00000   0.09688   0.09689   2.71246
    R5        2.04411   0.00479   0.00000   0.01282   0.01282   2.05694
    R6        2.63373   0.00515   0.00000   0.00958   0.00956   2.64329
    R7        2.04534   0.00498   0.00000   0.01335   0.01335   2.05869
    R8        2.68058  -0.00553   0.00000  -0.01815  -0.01837   2.66221
    R9        2.60126   0.01661   0.00000   0.03018   0.03036   2.63162
   R10        2.64771   0.02113   0.00000   0.04412   0.04411   2.69182
   R11        2.70839  -0.00630   0.00000  -0.01451  -0.01480   2.69358
   R12        2.04526   0.00515   0.00000   0.01380   0.01380   2.05906
   R13        2.60573  -0.01744   0.00000  -0.03254  -0.03224   2.57349
   R14        1.89542   0.00863   0.00000   0.01770   0.01770   1.91313
   R15        2.57870   0.04132   0.00000   0.08028   0.08030   2.65899
   R16        2.03419   0.00528   0.00000   0.01389   0.01389   2.04808
   R17        2.03430   0.00471   0.00000   0.01239   0.01239   2.04669
    A1        2.11420  -0.00025   0.00000   0.00386   0.00386   2.11806
    A2        2.07986  -0.00018   0.00000  -0.00364  -0.00364   2.07622
    A3        2.08912   0.00042   0.00000  -0.00022  -0.00021   2.08891
    A4        2.11523  -0.00049   0.00000   0.00229   0.00228   2.11751
    A5        2.08365  -0.00043   0.00000  -0.00501  -0.00501   2.07865
    A6        2.08430   0.00092   0.00000   0.00272   0.00272   2.08702
    A7        2.05144  -0.00298   0.00000  -0.01424  -0.01429   2.03714
    A8        2.11267   0.00226   0.00000   0.01153   0.01156   2.12422
    A9        2.11908   0.00071   0.00000   0.00271   0.00274   2.12182
   A10        2.13389   0.00331   0.00000   0.01175   0.01168   2.14557
   A11        2.27895  -0.00602   0.00000  -0.01397  -0.01391   2.26504
   A12        1.87035   0.00271   0.00000   0.00223   0.00223   1.87257
   A13        2.07274   0.00461   0.00000   0.01472   0.01488   2.08762
   A14        1.86517  -0.00260   0.00000  -0.01335  -0.01379   1.85139
   A15        2.34527  -0.00201   0.00000  -0.00137  -0.00109   2.34418
   A16        2.07887  -0.00421   0.00000  -0.01838  -0.01841   2.06046
   A17        2.10306   0.00244   0.00000   0.01109   0.01111   2.11417
   A18        2.10125   0.00177   0.00000   0.00729   0.00730   2.10856
   A19        1.90743   0.00852   0.00000   0.03344   0.03385   1.94128
   A20        2.19023  -0.00360   0.00000  -0.01298  -0.01318   2.17705
   A21        2.18553  -0.00492   0.00000  -0.02046  -0.02067   2.16486
   A22        1.86968   0.00627   0.00000   0.03255   0.03229   1.90197
   A23        2.21717  -0.00279   0.00000  -0.01431  -0.01417   2.20299
   A24        2.19633  -0.00348   0.00000  -0.01825  -0.01811   2.17822
   A25        1.91215  -0.01491   0.00000  -0.05487  -0.05458   1.85757
   A26        2.10250   0.00699   0.00000   0.02478   0.02463   2.12713
   A27        2.26854   0.00792   0.00000   0.03009   0.02995   2.29849
    D1       -0.00001   0.00001   0.00000   0.00018   0.00018   0.00017
    D2       -3.14156   0.00000   0.00000   0.00005   0.00005  -3.14151
    D3        3.14152   0.00001   0.00000   0.00016   0.00016  -3.14150
    D4       -0.00002   0.00000   0.00000   0.00003   0.00003   0.00001
    D5       -0.00003  -0.00000   0.00000  -0.00012  -0.00012  -0.00015
    D6        3.14153   0.00000   0.00000   0.00008   0.00008  -3.14157
    D7       -3.14157  -0.00000   0.00000  -0.00010  -0.00010   3.14152
    D8       -0.00001   0.00000   0.00000   0.00011   0.00011   0.00010
    D9        0.00003  -0.00000   0.00000  -0.00006  -0.00007  -0.00003
   D10       -3.14154  -0.00000   0.00000  -0.00010  -0.00011   3.14154
   D11        3.14158   0.00000   0.00000   0.00006   0.00006  -3.14154
   D12        0.00001   0.00000   0.00000   0.00002   0.00002   0.00003
   D13       -0.00001  -0.00001   0.00000  -0.00011  -0.00010  -0.00011
   D14       -3.14144   0.00000   0.00000   0.00015   0.00015  -3.14129
   D15        3.14156  -0.00000   0.00000  -0.00007  -0.00007   3.14150
   D16        0.00013   0.00001   0.00000   0.00019   0.00019   0.00032
   D17       -0.00004   0.00001   0.00000   0.00016   0.00016   0.00013
   D18       -3.14151   0.00000   0.00000  -0.00003  -0.00003  -3.14155
   D19        3.14143  -0.00000   0.00000  -0.00004  -0.00004   3.14138
   D20       -0.00005  -0.00001   0.00000  -0.00024  -0.00024  -0.00029
   D21       -3.14124  -0.00001   0.00000  -0.00049  -0.00050   3.14145
   D22       -0.00113   0.00001   0.00000   0.00027   0.00026  -0.00087
   D23        0.00049  -0.00000   0.00000  -0.00026  -0.00028   0.00022
   D24        3.14060   0.00002   0.00000   0.00049   0.00048   3.14109
   D25        0.00005  -0.00000   0.00000  -0.00004  -0.00005   0.00001
   D26       -3.14151  -0.00001   0.00000  -0.00025  -0.00025   3.14143
   D27        3.14150   0.00001   0.00000   0.00021   0.00022  -3.14147
   D28       -0.00007  -0.00000   0.00000   0.00001   0.00001  -0.00006
   D29       -0.00041   0.00002   0.00000   0.00067   0.00068   0.00027
   D30        3.14139   0.00001   0.00000   0.00016   0.00016   3.14155
   D31        3.14132   0.00002   0.00000   0.00043   0.00044  -3.14142
   D32       -0.00006  -0.00000   0.00000  -0.00008  -0.00008  -0.00014
   D33       -0.00077   0.00003   0.00000   0.00074   0.00072  -0.00005
   D34        3.14133   0.00001   0.00000   0.00033   0.00033  -3.14153
   D35       -3.14089   0.00000   0.00000  -0.00002  -0.00003  -3.14092
   D36        0.00121  -0.00001   0.00000  -0.00042  -0.00043   0.00078
   D37        0.00072  -0.00003   0.00000  -0.00086  -0.00086  -0.00014
   D38       -3.14144  -0.00001   0.00000  -0.00041  -0.00042   3.14133
   D39       -3.14107  -0.00001   0.00000  -0.00036  -0.00035  -3.14142
   D40       -0.00005   0.00000   0.00000   0.00009   0.00009   0.00004
         Item               Value     Threshold  Converged?
 Maximum Force            0.047972     0.000450     NO 
 RMS     Force            0.009301     0.000300     NO 
 Maximum Displacement     0.099025     0.001800     NO 
 RMS     Displacement     0.027876     0.001200     NO 
 Predicted change in Energy=-8.154386D-03
 GradGradGradGradGradGradGradGradGradGradGradGradGradGradGradGradGradGrad

                          Input orientation:                          
 ---------------------------------------------------------------------
 Center     Atomic      Atomic             Coordinates (Angstroms)
 Number     Number       Type             X           Y           Z
 ---------------------------------------------------------------------
      1          6           0       -2.188428    0.686679   -0.000011
      2          6           0       -2.158853   -0.702774   -0.000030
      3          6           0       -0.917104   -1.422743    0.000088
      4          6           0        0.253670   -0.657339    0.000182
      5          6           0        0.247699    0.751428    0.000030
      6          6           0       -0.993678    1.450026   -0.000076
      7          7           0        1.585074   -1.065603   -0.000020
      8          6           0        1.615653    1.151951    0.000132
      9          6           0        2.428635    0.003504   -0.000014
     10          1           0        1.892668   -2.030125    0.000449
     11          1           0        1.984605    2.171016    0.000023
     12          1           0        3.504951   -0.117205   -0.000215
     13          1           0       -3.098481   -1.252225   -0.000061
     14          1           0       -0.886616   -2.511725    0.000119
     15          1           0       -3.151789    1.193292   -0.000019
     16          1           0       -1.021103    2.539291   -0.000040
 ---------------------------------------------------------------------
                    Distance matrix (angstroms):
                    1          2          3          4          5
     1  C    0.000000
     2  C    1.389767   0.000000
     3  C    2.462909   1.435373   0.000000
     4  C    2.787513   2.412951   1.398769   0.000000
     5  C    2.436987   2.811795   2.466532   1.408780   0.000000
     6  C    1.417790   2.447893   2.873789   2.448850   1.424450
     7  N    4.160505   3.761467   2.527537   1.392593   2.256141
     8  C    3.832429   4.205580   3.611635   2.264626   1.425384
     9  C    4.667333   4.641538   3.637052   2.273144   2.305618
    10  H    4.902690   4.263412   2.874671   2.137956   3.231557
    11  H    4.429161   5.042511   4.618985   3.315981   2.243229
    12  H    5.749851   5.693993   4.610748   3.295841   3.371085
    13  H    2.141855   1.088484   2.188031   3.404527   3.900197
    14  H    3.453187   2.211536   1.089409   2.176925   3.454684
    15  H    1.088449   2.140324   3.440559   3.875821   3.428084
    16  H    2.189708   3.435908   3.963398   3.441438   2.192330
                    6          7          8          9         10
     6  C    0.000000
     7  N    3.602548   0.000000
     8  C    2.626301   2.217765   0.000000
     9  C    3.715461   1.361831   1.407079   0.000000
    10  H    4.521333   1.012383   3.194111   2.103071   0.000000
    11  H    3.064310   3.261185   1.083798   2.212526   4.202147
    12  H    4.763809   2.141351   2.276006   1.083063   2.501744
    13  H    3.425253   4.687271   5.291797   5.667968   5.051405
    14  H    3.963198   2.863656   4.436652   4.161402   2.820702
    15  H    2.173328   5.247901   4.767621   5.705850   5.986398
    16  H    1.089610   4.448305   2.979462   4.281461   5.419375
                   11         12         13         14         15
    11  H    0.000000
    12  H    2.747254   0.000000
    13  H    6.128323   6.700267   0.000000
    14  H    5.492903   5.001959   2.545326   0.000000
    15  H    5.228622   6.784510   2.446098   4.342598   0.000000
    16  H    3.028185   5.248059   4.323320   5.052807   2.520226
                   16
    16  H    0.000000
 Stoichiometry    C8H7N
 Framework group  C1[X(C8H7N)]
 Deg. of freedom    42
 Full point group                 C1      NOp   1
 Largest Abelian subgroup         C1      NOp   1
 Largest concise Abelian subgroup C1      NOp   1
                         Standard orientation:                         
 ---------------------------------------------------------------------
 Center     Atomic      Atomic             Coordinates (Angstroms)
 Number     Number       Type             X           Y           Z
 ---------------------------------------------------------------------
      1          6           0       -2.198493    0.654536   -0.000042
      2          6           0       -2.149560   -0.734370   -0.000061
      3          6           0       -0.897899   -1.436966    0.000057
      4          6           0        0.262096   -0.655323    0.000151
      5          6           0        0.236495    0.753224   -0.000001
      6          6           0       -1.014495    1.434457   -0.000107
      7          7           0        1.599059   -1.044995   -0.000051
      8          6           0        1.598736    1.172770    0.000101
      9          6           0        2.427641    0.035762   -0.000045
     10          1           0        1.920063   -2.005138    0.000418
     11          1           0        1.953453    2.196876   -0.000008
     12          1           0        3.505535   -0.069937   -0.000246
     13          1           0       -3.081440   -1.296861   -0.000092
     14          1           0       -0.852240   -2.525418    0.000088
     15          1           0       -3.168819    1.147676   -0.000049
     16          1           0       -1.057095    2.523234   -0.000071
 ---------------------------------------------------------------------
 Rotational constants (GHZ):           3.8982120           1.6010453           1.1349195
 Standard basis: 6-31+G(d) (6D, 7F)
 There are   185 symmetry adapted cartesian basis functions of A   symmetry.
 There are   185 symmetry adapted basis functions of A   symmetry.
   185 basis functions,   316 primitive gaussians,   185 cartesian basis functions
    31 alpha electrons       31 beta electrons
       nuclear repulsion energy       398.0748301220 Hartrees.
 NAtoms=   16 NActive=   16 NUniq=   16 SFac= 1.00D+00 NAtFMM=   60 NAOKFM=F Big=F
 Integral buffers will be    131072 words long.
 Regular integral format.
 Two-electron integral symmetry is turned on.
 One-electron integrals computed using PRISM.
 NBasis=   185 RedAO= T EigKep=  1.30D-06  NBF=   185
 NBsUse=   185 1.00D-06 EigRej= -1.00D+00 NBFU=   185
 Initial guess from the checkpoint file:  "FuncsM06-V-3rd.chk"
 B after Tr=     0.000000   -0.000000    0.000000
         Rot=    0.999977    0.000014    0.000012   -0.006853 Ang=   0.79 deg.
 ExpMin= 4.38D-02 ExpMax= 4.17D+03 ExpMxC= 6.27D+02 IAcc=3 IRadAn=         5 AccDes= 0.00D+00
 Harris functional with IExCor= 1009 and IRadAn=       5 diagonalized for initial guess.
 HarFok:  IExCor= 1009 AccDes= 0.00D+00 IRadAn=         5 IDoV= 1 UseB2=F ITyADJ=14
 ICtDFT=  3500011 ScaDFX=  1.000000  1.000000  1.000000  1.000000
 FoFCou: FMM=F IPFlag=           0 FMFlag=      100000 FMFlg1=           0
         NFxFlg=           0 DoJE=T BraDBF=F KetDBF=T FulRan=T
         wScrn=  0.000000 ICntrl=       500 IOpCl=  0 I1Cent=   200000004 NGrid=           0
         NMat0=    1 NMatS0=      1 NMatT0=    0 NMatD0=    1 NMtDS0=    0 NMtDT0=    0
 Petite list used in FoFCou.
 Keep R1 ints in memory in canonical form, NReq=152074523.
 Requested convergence on RMS density matrix=1.00D-08 within 128 cycles.
 Requested convergence on MAX density matrix=1.00D-06.
 Requested convergence on             energy=1.00D-06.
 No special actions if energy rises.
 SCF Done:  E(RM06) =  -363.545183110     A.U. after   14 cycles
            NFock= 14  Conv=0.70D-08     -V/T= 2.0120
 DoSCS=F DFT=T ScalE2(SS,OS)=  1.000000  1.000000
 ExpMin= 4.38D-02 ExpMax= 4.17D+03 ExpMxC= 6.27D+02 IAcc=3 IRadAn=         5 AccDes= 0.00D+00
 HarFok:  IExCor=  205 AccDes= 0.00D+00 IRadAn=         5 IDoV=-2 UseB2=F ITyADJ=14
 ICtDFT= 12500011 ScaDFX=  1.000000  1.000000  1.000000  1.000000
 Range of M.O.s used for correlation:    10   185
 NBasis=   185 NAE=    31 NBE=    31 NFC=     9 NFV=     0
 NROrb=    176 NOA=    22 NOB=    22 NVA=   154 NVB=   154

 **** Warning!!: The largest alpha MO coefficient is  0.18534747D+03

 Orbital symmetries:
       Occupied  (A) (A) (A) (A) (A) (A) (A) (A) (A) (A) (A) (A)
                 (A) (A) (A) (A) (A) (A) (A) (A) (A) (A) (A) (A)
                 (A) (A) (A) (A) (A) (A) (A)
       Virtual   (A) (A) (A) (A) (A) (A) (A) (A) (A) (A) (A) (A)
                 (A) (A) (A) (A) (A) (A) (A) (A) (A) (A) (A) (A)
                 (A) (A) (A) (A) (A) (A) (A) (A) (A) (A) (A) (A)
                 (A) (A) (A) (A) (A) (A) (A) (A) (A) (A) (A) (A)
                 (A) (A) (A) (A) (A) (A) (A) (A) (A) (A) (A) (A)
                 (A) (A) (A) (A) (A) (A) (A) (A) (A) (A) (A) (A)
                 (A) (A) (A) (A) (A) (A) (A) (A) (A) (A) (A) (A)
                 (A) (A) (A) (A) (A) (A) (A) (A) (A) (A) (A) (A)
                 (A) (A) (A) (A) (A) (A) (A) (A) (A) (A) (A) (A)
                 (A) (A) (A) (A) (A) (A) (A) (A) (A) (A) (A) (A)
                 (A) (A) (A) (A) (A) (A) (A) (A) (A) (A) (A) (A)
                 (A) (A) (A) (A) (A) (A) (A) (A) (A) (A) (A) (A)
                 (A) (A) (A) (A) (A) (A) (A) (A) (A) (A)
 Generating guess from densities on rwf.
 Convergence on wavefunction:    0.000001000000000
 Iteration     1 Dimension    12 NMult     0 NNew     12
 CISAX will form    12 AO SS matrices at one time.
 New state      1 was old state      3
 New state      2 was old state      1
 New state      3 was old state      5
 New state      4 was old state      6
 New state      5 was old state      4
 New state      6 was old state      2
 Iteration     2 Dimension    24 NMult    12 NNew     12
 New state      1 was old state      2
 New state      2 was old state      1
 New state      3 was old state      4
 New state      4 was old state      3
 Iteration     3 Dimension    36 NMult    24 NNew     12
 New state      4 was old state      5
 New state      5 was old state      4
 Iteration     4 Dimension    48 NMult    36 NNew     12
 Iteration     5 Dimension    60 NMult    48 NNew     12
 Iteration     6 Dimension    72 NMult    60 NNew     12
 Iteration     7 Dimension    84 NMult    72 NNew     12
 Iteration     8 Dimension    96 NMult    84 NNew     12
 Iteration     9 Dimension   108 NMult    96 NNew     12
 Iteration    10 Dimension   118 NMult   108 NNew     10
 Iteration    11 Dimension   126 NMult   118 NNew      8
 Iteration    12 Dimension   128 NMult   126 NNew      2
 ***********************************************************************
 Excited states from <AA,BB:AA,BB> singles matrix:
 ***********************************************************************
 
 Ground to excited state transition densities written to RWF  633
 Ground to excited state transition electric dipole moments (Au):
       state          X           Y           Z        Dip. S.      Osc.
         1        -0.0001      0.0000     -0.0910      0.0083      0.0008
         2        -0.0001      0.0000     -0.0330      0.0011      0.0001
         3        -0.7833      0.6894     -0.0000      1.0889      0.1148
         4         0.0000     -0.0000      0.0433      0.0019      0.0002
         5        -0.3330     -0.1934      0.0000      0.1483      0.0172
         6         0.0000     -0.0000     -0.0727      0.0053      0.0006
 Ground to excited state transition velocity dipole moments (Au):
       state          X           Y           Z        Dip. S.      Osc.
         1         0.0000     -0.0000      0.0058      0.0000      0.0002
         2         0.0000     -0.0000      0.0078      0.0001      0.0002
         3         0.1187     -0.1208      0.0000      0.0287      0.1209
         4         0.0000     -0.0000     -0.0057      0.0000      0.0001
         5         0.0555      0.0360     -0.0000      0.0044      0.0168
         6        -0.0000      0.0000      0.0168      0.0003      0.0011
 Ground to excited state transition magnetic dipole moments (Au):
       state          X           Y           Z
         1         0.1192     -0.0405      0.0000
         2         0.1424     -0.1575      0.0001
         3        -0.0000      0.0001      0.1467
         4         0.1231      0.1743     -0.0000
         5        -0.0001      0.0000      0.0293
         6        -0.0005     -0.1545     -0.0000
 Ground to excited state transition velocity quadrupole moments (Au):
       state          XX          YY          ZZ          XY          XZ          YZ
         1         0.0001     -0.0000      0.0000      0.0000      0.0405      0.0404
         2         0.0001     -0.0000     -0.0000     -0.0000      0.1659      0.1324
         3         0.2175     -0.1428      0.0181      0.0630     -0.0000     -0.0000
         4         0.0000     -0.0000      0.0000     -0.0000     -0.1297      0.0446
         5         0.0303     -0.0776      0.0188      0.0003     -0.0000     -0.0000
         6         0.0001      0.0000     -0.0000     -0.0000      0.0849     -0.0491
 <0|del|b> * <b|rxdel|0> + <0|del|b> * <b|delr+rdel|0>
 Rotatory Strengths (R) in cgs (10**-40 erg-esu-cm/Gauss)
       state          XX          YY          ZZ    R(velocity)    E-M Angle
         1         0.0036      0.0055      0.0028      0.0039       90.00
         2         0.0043      0.0063      0.0001      0.0036       90.00
         3        -0.0366     -0.0104     -0.0244     -0.0238       90.00
         4        -0.0022      0.0008     -0.0003     -0.0005       90.00
         5         0.0067     -0.0141     -0.0066     -0.0046       90.00
         6        -0.0084      0.0012     -0.0028     -0.0033       90.00
 1/2[<0|r|b>*<b|rxdel|0> + (<0|rxdel|b>*<b|r|0>)*]
 Rotatory Strengths (R) in cgs (10**-40 erg-esu-cm/Gauss)
       state          XX          YY          ZZ     R(length)
         1         0.0083      0.0014      0.0004      0.0034
         2         0.0080      0.0014      0.0014      0.0036
         3        -0.0161     -0.0543      0.0028     -0.0225
         4        -0.0001      0.0003      0.0015      0.0006
         5        -0.0213      0.0066     -0.0004     -0.0050
         6         0.0000     -0.0037     -0.0021     -0.0019
  1/2[<0|del|b>*<b|r|0> + (<0|r|b>*<b|del|0>)*] (Au)
       state          X           Y           Z        Dip. S.   Osc.(frdel)
         1        -0.0000     -0.0000     -0.0005      0.0005      0.0004
         2        -0.0000     -0.0000     -0.0003      0.0003      0.0002
         3        -0.0930     -0.0833     -0.0000      0.1763      0.1175
         4         0.0000      0.0000     -0.0002      0.0002      0.0002
         5        -0.0185     -0.0070     -0.0000      0.0254      0.0170
         6        -0.0000     -0.0000     -0.0012      0.0012      0.0008

 Excitation energies and oscillator strengths:
 
 Excited State   1:      Singlet-A      3.9904 eV  310.71 nm  f=0.0008  <S**2>=0.000
      31 -> 32         0.70411
 
 Excited State   2:      Singlet-A      4.6153 eV  268.64 nm  f=0.0001  <S**2>=0.000
      31 -> 34         0.70169
 
 Excited State   3:      Singlet-A      4.3035 eV  288.10 nm  f=0.1148  <S**2>=0.000
      30 -> 38         0.12036
      31 -> 33         0.68395
 This state for optimization and/or second-order correction.
 Total Energy, E(TD-HF/TD-DFT) =  -363.387032432    
 Copying the excited state density for this state as the 1-particle RhoCI density.
 
 Excited State   4:      Singlet-A      4.6954 eV  264.05 nm  f=0.0002  <S**2>=0.000
      31 -> 35         0.70123
 
 Excited State   5:      Singlet-A      4.7218 eV  262.58 nm  f=0.0172  <S**2>=0.000
      30 -> 33         0.56236
      31 -> 38        -0.40266
 
 Excited State   6:      Singlet-A      4.8634 eV  254.93 nm  f=0.0006  <S**2>=0.000
      30 -> 32         0.69867
 SavETr:  write IOETrn=   770 NScale= 10 NData=  16 NLR=1 NState=    6 LETran=     118.
          IDoAtm=1111111111111111
          Differentiating once with respect to electric field.
                with respect to dipole field.
          Differentiating once with respect to nuclear coordinates.
 Keep R1 ints in memory in canonical form, NReq=152086915.
          There are     1 degrees of freedom in the 1st order CPHF.  IDoFFX=0 NUNeed=     1.
 LinEq1:  Iter=  0 NonCon=     1 RMS=1.12D-02 Max=3.22D-01 NDo=     1
 AX will form     1 AO Fock derivatives at one time.
 LinEq1:  Iter=  1 NonCon=     1 RMS=4.94D-03 Max=1.18D-01 NDo=     1
 LinEq1:  Iter=  2 NonCon=     1 RMS=3.64D-03 Max=1.15D-01 NDo=     1
 LinEq1:  Iter=  3 NonCon=     1 RMS=1.64D-03 Max=3.53D-02 NDo=     1
 LinEq1:  Iter=  4 NonCon=     1 RMS=9.96D-04 Max=2.80D-02 NDo=     1
 LinEq1:  Iter=  5 NonCon=     1 RMS=5.65D-04 Max=1.00D-02 NDo=     1
 LinEq1:  Iter=  6 NonCon=     1 RMS=4.17D-04 Max=1.51D-02 NDo=     1
 LinEq1:  Iter=  7 NonCon=     1 RMS=1.51D-04 Max=2.14D-03 NDo=     1
 LinEq1:  Iter=  8 NonCon=     1 RMS=1.16D-04 Max=2.75D-03 NDo=     1
 LinEq1:  Iter=  9 NonCon=     1 RMS=4.79D-05 Max=1.37D-03 NDo=     1
 LinEq1:  Iter= 10 NonCon=     1 RMS=3.18D-05 Max=6.19D-04 NDo=     1
 LinEq1:  Iter= 11 NonCon=     1 RMS=1.40D-05 Max=3.23D-04 NDo=     1
 LinEq1:  Iter= 12 NonCon=     1 RMS=9.39D-06 Max=1.36D-04 NDo=     1
 LinEq1:  Iter= 13 NonCon=     1 RMS=2.97D-06 Max=4.20D-05 NDo=     1
 LinEq1:  Iter= 14 NonCon=     1 RMS=1.31D-06 Max=2.19D-05 NDo=     1
 LinEq1:  Iter= 15 NonCon=     1 RMS=7.07D-07 Max=1.05D-05 NDo=     1
 LinEq1:  Iter= 16 NonCon=     1 RMS=1.18D-07 Max=2.15D-06 NDo=     1
 LinEq1:  Iter= 17 NonCon=     1 RMS=4.18D-08 Max=9.18D-07 NDo=     1
 LinEq1:  Iter= 18 NonCon=     1 RMS=2.26D-08 Max=4.25D-07 NDo=     1
 LinEq1:  Iter= 19 NonCon=     1 RMS=6.22D-09 Max=1.34D-07 NDo=     1
 LinEq1:  Iter= 20 NonCon=     1 RMS=1.20D-09 Max=2.45D-08 NDo=     1
 LinEq1:  Iter= 21 NonCon=     1 RMS=2.56D-10 Max=3.85D-09 NDo=     1
 LinEq1:  Iter= 22 NonCon=     0 RMS=5.69D-11 Max=6.41D-10 NDo=     1
 Linear equations converged to 1.000D-10 1.000D-09 after    22 iterations.
 End of Minotr F.D. properties file   721 does not exist.
 End of Minotr F.D. properties file   722 does not exist.
 End of Minotr F.D. properties file   788 does not exist.
 Calling FoFJK, ICntrl=  10005127 FMM=F ISym2X=0 I1Cent= 0 IOpClX= 0 NMat=1 NMatS=1 NMatT=0.
 ***** Axes restored to original set *****
 -------------------------------------------------------------------
 Center     Atomic                   Forces (Hartrees/Bohr)
 Number     Number              X              Y              Z
 -------------------------------------------------------------------
      1        6          -0.000534823   -0.010959309   -0.000009457
      2        6          -0.003176028    0.012733225    0.000011638
      3        6           0.008046931   -0.009917437   -0.000001148
      4        6          -0.010084078    0.006931986   -0.000022584
      5        6           0.006808213   -0.006534983    0.000017866
      6        6           0.002260273    0.008076201    0.000010246
      7        7           0.009392776    0.005888803    0.000021393
      8        6          -0.012776772    0.010724249   -0.000027311
      9        6           0.000712673   -0.016954989    0.000003823
     10        1          -0.000763845   -0.000953748   -0.000010185
     11        1           0.000891040    0.000601894    0.000003584
     12        1          -0.000921283    0.000903551    0.000005438
     13        1           0.000685784   -0.001257849    0.000000583
     14        1          -0.000975248    0.000679477   -0.000001001
     15        1           0.000318308    0.000849696   -0.000001708
     16        1           0.000116079   -0.000810767   -0.000001177
 -------------------------------------------------------------------
 Cartesian Forces:  Max     0.016954989 RMS     0.005521303

 GradGradGradGradGradGradGradGradGradGradGradGradGradGradGradGradGradGrad
 Berny optimization.
 Using GEDIIS/GDIIS optimizer.
 FormGI is forming the generalized inverse of G from B-inverse, IUseBI=4.
 Internal  Forces:  Max     0.010696869 RMS     0.002267821
 Search for a local minimum.
 Step number   2 out of a maximum of   94
 All quantities printed in internal units (Hartrees-Bohrs-Radians)
 Mixed Optimization -- RFO/linear search
 Update second derivatives using D2CorX and points    1    2
 DE= -8.96D-03 DEPred=-8.15D-03 R= 1.10D+00
 TightC=F SS=  1.41D+00  RLast= 1.91D-01 DXNew= 5.0454D-01 5.7293D-01
 Trust test= 1.10D+00 RLast= 1.91D-01 DXMaxT set to 5.05D-01
 ITU=  1  0
 Use linear search instead of GDIIS.
     Eigenvalues ---    0.01853   0.01931   0.01986   0.02011   0.02070
     Eigenvalues ---    0.02113   0.02147   0.02151   0.02172   0.02210
     Eigenvalues ---    0.02234   0.02248   0.02340   0.15962   0.16000
     Eigenvalues ---    0.16000   0.16000   0.16000   0.16000   0.16026
     Eigenvalues ---    0.20736   0.22002   0.23498   0.24350   0.24668
     Eigenvalues ---    0.35619   0.35714   0.35787   0.35911   0.35968
     Eigenvalues ---    0.36528   0.36543   0.38396   0.40948   0.42827
     Eigenvalues ---    0.44082   0.46156   0.47136   0.47193   0.47669
     Eigenvalues ---    0.49019   0.51796
 RFO step:  Lambda=-1.16644296D-03 EMin= 1.85273497D-02
 Quartic linear search produced a step of  0.17430.
 Iteration  1 RMS(Cart)=  0.00817111 RMS(Int)=  0.00004977
 Iteration  2 RMS(Cart)=  0.00008360 RMS(Int)=  0.00001852
 Iteration  3 RMS(Cart)=  0.00000000 RMS(Int)=  0.00001852
 Variable       Old X    -DE/DX   Delta X   Delta X   Delta X     New X
                                 (Linear)    (Quad)   (Total)
    R1        2.62628  -0.00575  -0.00509  -0.01208  -0.01719   2.60908
    R2        2.67923   0.00273   0.01156  -0.00022   0.01132   2.69056
    R3        2.05687   0.00012   0.00221  -0.00092   0.00129   2.05816
    R4        2.71246   0.00483   0.01689   0.00186   0.01874   2.73120
    R5        2.05694   0.00004   0.00224  -0.00118   0.00105   2.05799
    R6        2.64329  -0.00213   0.00167  -0.00627  -0.00458   2.63871
    R7        2.05869  -0.00071   0.00233  -0.00370  -0.00137   2.05731
    R8        2.66221  -0.00187  -0.00320  -0.00381  -0.00700   2.65521
    R9        2.63162   0.00373   0.00529   0.00503   0.01036   2.64198
   R10        2.69182  -0.00024   0.00769  -0.00513   0.00256   2.69438
   R11        2.69358  -0.00611  -0.00258  -0.01567  -0.01829   2.67529
   R12        2.05906  -0.00081   0.00241  -0.00406  -0.00165   2.05741
   R13        2.57349  -0.00834  -0.00562  -0.01646  -0.02204   2.55145
   R14        1.91313   0.00068   0.00309  -0.00010   0.00298   1.91611
   R15        2.65899   0.01070   0.01400   0.01662   0.03060   2.68959
   R16        2.04808   0.00086   0.00242   0.00135   0.00377   2.05185
   R17        2.04669  -0.00101   0.00216  -0.00453  -0.00237   2.04432
    A1        2.11806   0.00186   0.00067   0.00961   0.01024   2.12830
    A2        2.07622   0.00002  -0.00063   0.00228   0.00166   2.07788
    A3        2.08891  -0.00188  -0.00004  -0.01189  -0.01191   2.07700
    A4        2.11751   0.00195   0.00040   0.01039   0.01076   2.12827
    A5        2.07865   0.00048  -0.00087   0.00579   0.00493   2.08358
    A6        2.08702  -0.00242   0.00047  -0.01618  -0.01569   2.07134
    A7        2.03714  -0.00474  -0.00249  -0.02320  -0.02567   2.01147
    A8        2.12422   0.00137   0.00201   0.00384   0.00585   2.13007
    A9        2.12182   0.00337   0.00048   0.01935   0.01982   2.14164
   A10        2.14557   0.00341   0.00204   0.01615   0.01821   2.16378
   A11        2.26504  -0.00308  -0.00242  -0.01223  -0.01469   2.25036
   A12        1.87257  -0.00033   0.00039  -0.00392  -0.00353   1.86905
   A13        2.08762   0.00103   0.00259   0.00356   0.00620   2.09382
   A14        1.85139   0.00225  -0.00240   0.01186   0.00940   1.86078
   A15        2.34418  -0.00328  -0.00019  -0.01542  -0.01560   2.32858
   A16        2.06046  -0.00351  -0.00321  -0.01652  -0.01974   2.04071
   A17        2.11417   0.00187   0.00194   0.00890   0.01084   2.12501
   A18        2.10856   0.00164   0.00127   0.00762   0.00890   2.11746
   A19        1.94128   0.00023   0.00590  -0.00332   0.00265   1.94392
   A20        2.17705  -0.00111  -0.00230  -0.00594  -0.00827   2.16878
   A21        2.16486   0.00087  -0.00360   0.00926   0.00562   2.17049
   A22        1.90197  -0.00232   0.00563  -0.01305  -0.00747   1.89450
   A23        2.20299   0.00183  -0.00247   0.01117   0.00872   2.21172
   A24        2.17822   0.00050  -0.00316   0.00188  -0.00125   2.17697
   A25        1.85757   0.00018  -0.00951   0.00845  -0.00104   1.85653
   A26        2.12713   0.00070   0.00429   0.00182   0.00610   2.13323
   A27        2.29849  -0.00088   0.00522  -0.01026  -0.00506   2.29343
    D1        0.00017  -0.00000   0.00003  -0.00024  -0.00021  -0.00004
    D2       -3.14151  -0.00000   0.00001  -0.00010  -0.00009   3.14159
    D3       -3.14150  -0.00000   0.00003  -0.00016  -0.00013   3.14155
    D4        0.00001  -0.00000   0.00001  -0.00003  -0.00002  -0.00001
    D5       -0.00015   0.00000  -0.00002   0.00017   0.00015  -0.00001
    D6       -3.14157   0.00000   0.00001  -0.00001   0.00001  -3.14156
    D7        3.14152   0.00000  -0.00002   0.00009   0.00007   3.14159
    D8        0.00010  -0.00000   0.00002  -0.00008  -0.00007   0.00004
    D9       -0.00003   0.00000  -0.00001   0.00015   0.00014   0.00011
   D10        3.14154   0.00000  -0.00002   0.00005   0.00003   3.14157
   D11       -3.14154   0.00000   0.00001   0.00002   0.00003  -3.14152
   D12        0.00003  -0.00000   0.00000  -0.00009  -0.00008  -0.00005
   D13       -0.00011  -0.00000  -0.00002  -0.00001  -0.00003  -0.00014
   D14       -3.14129  -0.00001   0.00003  -0.00035  -0.00033   3.14157
   D15        3.14150   0.00000  -0.00001   0.00010   0.00009   3.14158
   D16        0.00032  -0.00000   0.00003  -0.00025  -0.00022   0.00010
   D17        0.00013  -0.00000   0.00003  -0.00005  -0.00002   0.00010
   D18       -3.14155   0.00000  -0.00001   0.00012   0.00012  -3.14143
   D19        3.14138   0.00000  -0.00001   0.00022   0.00022  -3.14159
   D20       -0.00029   0.00001  -0.00004   0.00040   0.00036   0.00007
   D21        3.14145   0.00000  -0.00009   0.00020   0.00011   3.14155
   D22       -0.00087   0.00001   0.00005   0.00028   0.00033  -0.00055
   D23        0.00022  -0.00000  -0.00005  -0.00011  -0.00016   0.00006
   D24        3.14109   0.00000   0.00008  -0.00002   0.00006   3.14115
   D25        0.00001  -0.00000  -0.00001  -0.00003  -0.00003  -0.00002
   D26        3.14143   0.00000  -0.00004   0.00015   0.00011   3.14153
   D27       -3.14147  -0.00000   0.00004  -0.00026  -0.00022   3.14149
   D28       -0.00006  -0.00000   0.00000  -0.00009  -0.00008  -0.00014
   D29        0.00027  -0.00001   0.00012  -0.00055  -0.00044  -0.00017
   D30        3.14155  -0.00000   0.00003  -0.00006  -0.00003   3.14152
   D31       -3.14142  -0.00000   0.00008  -0.00034  -0.00026   3.14150
   D32       -0.00014   0.00000  -0.00001   0.00016   0.00015   0.00000
   D33       -0.00005  -0.00000   0.00013  -0.00024  -0.00011  -0.00017
   D34       -3.14153  -0.00000   0.00006  -0.00011  -0.00005  -3.14158
   D35       -3.14092  -0.00001  -0.00001  -0.00031  -0.00032  -3.14125
   D36        0.00078  -0.00000  -0.00007  -0.00018  -0.00026   0.00053
   D37       -0.00014   0.00001  -0.00015   0.00049   0.00034   0.00021
   D38        3.14133   0.00001  -0.00007   0.00034   0.00027  -3.14159
   D39       -3.14142  -0.00000  -0.00006  -0.00000  -0.00006  -3.14148
   D40        0.00004  -0.00000   0.00002  -0.00015  -0.00013  -0.00010
         Item               Value     Threshold  Converged?
 Maximum Force            0.010697     0.000450     NO 
 RMS     Force            0.002268     0.000300     NO 
 Maximum Displacement     0.024730     0.001800     NO 
 RMS     Displacement     0.008212     0.001200     NO 
 Predicted change in Energy=-7.761261D-04
 GradGradGradGradGradGradGradGradGradGradGradGradGradGradGradGradGradGrad

                          Input orientation:                          
 ---------------------------------------------------------------------
 Center     Atomic      Atomic             Coordinates (Angstroms)
 Number     Number       Type             X           Y           Z
 ---------------------------------------------------------------------
      1          6           0       -2.181358    0.683116    0.000022
      2          6           0       -2.151881   -0.697237    0.000021
      3          6           0       -0.909372   -1.435504   -0.000035
      4          6           0        0.247794   -0.654004    0.000047
      5          6           0        0.246380    0.751071    0.000014
      6          6           0       -0.989528    1.462023    0.000015
      7          7           0        1.584559   -1.063478    0.000047
      8          6           0        1.602567    1.157241   -0.000098
      9          6           0        2.423384   -0.005498    0.000095
     10          1           0        1.884920   -2.031931    0.000443
     11          1           0        1.974809    2.177232   -0.000210
     12          1           0        3.498898   -0.122037    0.000089
[...]
 ! D10   D(1,2,3,14)          -179.9999         -DE/DX =    0.0                 !
 ! D11   D(13,2,3,4)          -179.9991         -DE/DX =    0.0                 !
 ! D12   D(13,2,3,14)            0.0006         -DE/DX =    0.0                 !
 ! D13   D(2,3,4,5)              0.0002         -DE/DX =    0.0                 !
 ! D14   D(2,3,4,7)           -179.9975         -DE/DX =    0.0                 !
 ! D15   D(14,3,4,5)           180.0005         -DE/DX =    0.0                 !
 ! D16   D(14,3,4,7)             0.0028         -DE/DX =    0.0                 !
 ! D17   D(3,4,5,6)             -0.0007         -DE/DX =    0.0                 !
 ! D18   D(3,4,5,8)           -180.0007         -DE/DX =    0.0                 !
 ! D19   D(7,4,5,6)            179.9974         -DE/DX =    0.0                 !
 ! D20   D(7,4,5,8)             -0.0025         -DE/DX =    0.0                 !
 ! D21   D(3,4,7,9)            179.9923         -DE/DX =    0.0                 !
 ! D22   D(3,4,7,10)            -0.0062         -DE/DX =    0.0                 !
 ! D23   D(5,4,7,9)             -0.0057         -DE/DX =    0.0                 !
 ! D24   D(5,4,7,10)           179.9958         -DE/DX =    0.0                 !
 ! D25   D(4,5,6,1)              0.0006         -DE/DX =    0.0                 !
 ! D26   D(4,5,6,16)           179.9965         -DE/DX =    0.0                 !
 ! D27   D(8,5,6,1)            180.0005         -DE/DX =    0.0                 !
 ! D28   D(8,5,6,16)            -0.0036         -DE/DX =    0.0                 !
 ! D29   D(4,5,8,9)              0.0093         -DE/DX =    0.0                 !
 ! D30   D(4,5,8,11)           179.9984         -DE/DX =    0.0                 !
 ! D31   D(6,5,8,9)            180.0094         -DE/DX =    0.0                 !
 ! D32   D(6,5,8,11)            -0.0016         -DE/DX =    0.0                 !
 ! D33   D(4,7,9,8)              0.0114         -DE/DX =    0.0                 !
 ! D34   D(4,7,9,12)           180.0056         -DE/DX =    0.0                 !
 ! D35   D(10,7,9,8)          -179.9902         -DE/DX =    0.0                 !
 ! D36   D(10,7,9,12)            0.004          -DE/DX =    0.0                 !
 ! D37   D(5,8,9,7)             -0.0127         -DE/DX =    0.0                 !
 ! D38   D(5,8,9,12)          -180.0063         -DE/DX =    0.0                 !
 ! D39   D(11,8,9,7)          -180.0021         -DE/DX =    0.0                 !
 ! D40   D(11,8,9,12)            0.0043         -DE/DX =    0.0                 !
 --------------------------------------------------------------------------------
 GradGradGradGradGradGradGradGradGradGradGradGradGradGradGradGradGradGrad

                          Input orientation:                          
 ---------------------------------------------------------------------
 Center     Atomic      Atomic             Coordinates (Angstroms)
 Number     Number       Type             X           Y           Z
 ---------------------------------------------------------------------
      1          6           0       -2.178222    0.685050   -0.000060
      2          6           0       -2.147447   -0.696749    0.000014
      3          6           0       -0.910869   -1.441344    0.000098
      4          6           0        0.244369   -0.655150    0.000107
      5          6           0        0.243733    0.747785    0.000046
      6          6           0       -0.988780    1.464321   -0.000047
      7          7           0        1.587966   -1.063502    0.000132
      8          6           0        1.599795    1.158154    0.000095
      9          6           0        2.421214   -0.006938   -0.000034
     10          1           0        1.884537   -2.032244    0.000238
     11          1           0        1.975771    2.175523    0.000044
     12          1           0        3.498071   -0.111945   -0.000133
     13          1           0       -3.085165   -1.250905    0.000018
     14          1           0       -0.892538   -2.528097    0.000155
     15          1           0       -3.142140    1.191915   -0.000099
     16          1           0       -1.013391    2.551573   -0.000039
 ---------------------------------------------------------------------
                    Distance matrix (angstroms):
                    1          2          3          4          5
     1  C    0.000000
     2  C    1.382142   0.000000
     3  C    2.475427   1.443450   0.000000
     4  C    2.768589   2.392178   1.397382   0.000000
     5  C    2.422768   2.793640   2.474954   1.402936   0.000000
     6  C    1.421983   2.452087   2.906709   2.452104   1.425662
     7  N    4.152301   3.753374   2.527239   1.404280   2.255598
     8  C    3.807524   4.181206   3.613976   2.263902   1.416794
     9  C    4.651200   4.620444   3.627712   2.271306   2.304567
    10  H    4.887709   4.247404   2.857176   2.141620   3.228126
    11  H    4.413294   5.025024   4.627571   3.318202   2.244635
    12  H    5.731972   5.675727   4.605003   3.298735   3.365984
    13  H    2.137865   1.089222   2.182620   3.382413   3.882824
    14  H    3.460823   2.220052   1.086907   2.191001   3.467350
    15  H    1.089059   2.134587   3.451467   3.857472   3.414877
    16  H    2.200168   3.440593   3.994233   3.444566   2.198639
                    6          7          8          9         10
     6  C    0.000000
     7  N    3.609641   0.000000
     8  C    2.606618   2.221688   0.000000
     9  C    3.713847   1.345597   1.425541   0.000000
    10  H    4.525695   1.013121   3.203079   2.095205   0.000000
    11  H    3.048667   3.262158   1.084618   2.227455   4.208755
    12  H    4.755675   2.134002   2.283988   1.081965   2.508195
    13  H    3.430347   4.676887   5.268056   5.645145   5.030748
    14  H    3.993577   2.880614   4.449738   4.163796   2.820996
    15  H    2.170521   5.240305   4.742055   5.691059   5.971823
    16  H    1.087531   4.453743   2.961479   4.282814   5.423040
                   11         12         13         14         15
    11  H    0.000000
    12  H    2.747709   0.000000
    13  H    6.111749   6.681035   0.000000
    14  H    5.509195   5.011511   2.537485   0.000000
    15  H    5.211573   6.767012   2.443484   4.347320   0.000000
    16  H    3.012724   5.239048   4.330252   5.081107   2.525914
                   16
    16  H    0.000000
 Stoichiometry    C8H7N
 Framework group  C1[X(C8H7N)]
 Deg. of freedom    42
 Full point group                 C1      NOp   1
 Largest Abelian subgroup         C1      NOp   1
 Largest concise Abelian subgroup C1      NOp   1
                         Standard orientation:                         
 ---------------------------------------------------------------------
 Center     Atomic      Atomic             Coordinates (Angstroms)
 Number     Number       Type             X           Y           Z
 ---------------------------------------------------------------------
      1          6           0       -2.189660    0.648529   -0.000099
      2          6           0       -2.136625   -0.732594   -0.000025
      3          6           0       -0.888210   -1.457169    0.000059
      4          6           0        0.254211   -0.652463    0.000068
      5          6           0        0.230970    0.750281    0.000007
      6          6           0       -1.012928    1.446864   -0.000086
      7          7           0        1.604212   -1.039113    0.000093
      8          6           0        1.580244    1.182446    0.000055
      9          6           0        2.420328    0.030740   -0.000073
     10          1           0        1.916354   -2.002950    0.000198
     11          1           0        1.939778    2.205740    0.000005
     12          1           0        3.498738   -0.056902   -0.000172
     13          1           0       -3.065292   -1.301787   -0.000021
     14          1           0       -0.852371   -2.543484    0.000116
     15          1           0       -3.161619    1.139797   -0.000138
     16          1           0       -1.055055    2.533579   -0.000078
 ---------------------------------------------------------------------
 Rotational constants (GHZ):           3.8632362           1.6144545           1.1386220

 **********************************************************************

            Population analysis using the CI Density.

 **********************************************************************

 Orbital symmetries:
       Occupied  (A) (A) (A) (A) (A) (A) (A) (A) (A) (A) (A) (A)
                 (A) (A) (A) (A) (A) (A) (A) (A) (A) (A) (A) (A)
                 (A) (A) (A) (A) (A) (A) (A)
       Virtual   (A) (A) (A) (A) (A) (A) (A) (A) (A) (A) (A) (A)
                 (A) (A) (A) (A) (A) (A) (A) (A) (A) (A) (A) (A)
                 (A) (A) (A) (A) (A) (A) (A) (A) (A) (A) (A) (A)
                 (A) (A) (A) (A) (A) (A) (A) (A) (A) (A) (A) (A)
                 (A) (A) (A) (A) (A) (A) (A) (A) (A) (A) (A) (A)
                 (A) (A) (A) (A) (A) (A) (A) (A) (A) (A) (A) (A)
                 (A) (A) (A) (A) (A) (A) (A) (A) (A) (A) (A) (A)
                 (A) (A) (A) (A) (A) (A) (A) (A) (A) (A) (A) (A)
                 (A) (A) (A) (A) (A) (A) (A) (A) (A) (A) (A) (A)
                 (A) (A) (A) (A) (A) (A) (A) (A) (A) (A) (A) (A)
                 (A) (A) (A) (A) (A) (A) (A) (A) (A) (A) (A) (A)
                 (A) (A) (A) (A) (A) (A) (A) (A) (A) (A) (A) (A)
                 (A) (A) (A) (A) (A) (A) (A) (A) (A) (A)
 The electronic state is 1-A.
 Alpha  occ. eigenvalues --  -14.46237 -10.29999 -10.29543 -10.27110 -10.26505
 Alpha  occ. eigenvalues --  -10.26217 -10.26029 -10.25789 -10.24891  -1.00078
 Alpha  occ. eigenvalues --   -0.85109  -0.79032  -0.75231  -0.72010  -0.63989
 Alpha  occ. eigenvalues --   -0.60696  -0.58826  -0.55130  -0.49268  -0.48255
 Alpha  occ. eigenvalues --   -0.44967  -0.44345  -0.43964  -0.41343  -0.40336
 Alpha  occ. eigenvalues --   -0.36089  -0.35600  -0.34854  -0.28696  -0.24479
 Alpha  occ. eigenvalues --   -0.20855
 Alpha virt. eigenvalues --   -0.03258  -0.02507  -0.01330  -0.00833   0.00280
 Alpha virt. eigenvalues --    0.00578   0.02043   0.02751   0.02940   0.03414
 Alpha virt. eigenvalues --    0.03827   0.04145   0.06404   0.06805   0.06807
 Alpha virt. eigenvalues --    0.06925   0.09471   0.10077   0.10785   0.11604
 Alpha virt. eigenvalues --    0.11905   0.11953   0.13067   0.13524   0.15216
 Alpha virt. eigenvalues --    0.15723   0.15756   0.16655   0.17266   0.17521
 Alpha virt. eigenvalues --    0.18288   0.18860   0.18939   0.19610   0.20725
 Alpha virt. eigenvalues --    0.20980   0.21365   0.21910   0.23115   0.23603
 Alpha virt. eigenvalues --    0.24274   0.25093   0.25606   0.26809   0.27560
 Alpha virt. eigenvalues --    0.28761   0.29401   0.30816   0.32289   0.33988
 Alpha virt. eigenvalues --    0.35239   0.37533   0.41808   0.43664   0.50088
 Alpha virt. eigenvalues --    0.56923   0.60200   0.65266   0.65703   0.67955
 Alpha virt. eigenvalues --    0.70182   0.70247   0.71273   0.71340   0.72352
 Alpha virt. eigenvalues --    0.73544   0.74480   0.75553   0.77184   0.77301
 Alpha virt. eigenvalues --    0.79536   0.83387   0.85730   0.86626   0.87770
 Alpha virt. eigenvalues --    0.90259   0.91375   0.92453   0.95417   0.95499
 Alpha virt. eigenvalues --    0.97779   1.00329   1.02370   1.03866   1.08007
 Alpha virt. eigenvalues --    1.10102   1.11353   1.15899   1.16216   1.19389
 Alpha virt. eigenvalues --    1.20752   1.23189   1.24589   1.29364   1.32088
 Alpha virt. eigenvalues --    1.33636   1.34979   1.37816   1.40193   1.40446
 Alpha virt. eigenvalues --    1.46222   1.47410   1.48900   1.49566   1.51809
 Alpha virt. eigenvalues --    1.55323   1.60390   1.77092   1.80271   1.85082
 Alpha virt. eigenvalues --    1.86522   1.88180   1.88580   1.93573   1.95283
 Alpha virt. eigenvalues --    1.98886   2.01017   2.04283   2.10186   2.13720
 Alpha virt. eigenvalues --    2.14005   2.15022   2.20280   2.21969   2.25008
 Alpha virt. eigenvalues --    2.25715   2.28610   2.34579   2.37764   2.41556
 Alpha virt. eigenvalues --    2.48862   2.53382   2.59521   2.61667   2.62154
 Alpha virt. eigenvalues --    2.63921   2.70592   2.76853   2.79412   2.82186
 Alpha virt. eigenvalues --    2.91561   2.94602   3.03139   3.21244   3.36378
 Alpha virt. eigenvalues --    4.13383   4.20549   4.24011   4.27404   4.31798
 Alpha virt. eigenvalues --    4.36599   4.43665   4.48087   4.73552
          Condensed to atoms (all electrons):
               1          2          3          4          5          6
     1  C    6.160359   0.048487   0.773800  -0.617505  -0.022596  -0.687812
     2  C    0.048487   6.342859  -1.005261   0.422809  -0.349834   0.893776
     3  C    0.773800  -1.005261  16.249661  -2.211116  -5.794275  -3.540677
     4  C   -0.617505   0.422809  -2.211116  14.209302  -4.418373  -1.589056
     5  C   -0.022596  -0.349834  -5.794275  -4.418373  17.802282   0.033060
     6  C   -0.687812   0.893776  -3.540677  -1.589056   0.033060  13.721732
     7  N   -0.038822   0.038877  -0.496272  -0.332690   0.889123   0.135550
     8  C    0.242620  -0.418681   3.714096   2.318649  -5.835681  -3.682873
     9  C   -0.135087   0.068564  -1.459487  -0.733808   2.129447   1.066092
    10  H   -0.004868  -0.004497  -0.175261  -0.062156   0.205133   0.022553
    11  H    0.006240   0.001706   0.000777  -0.023568   0.053886   0.060278
    12  H    0.002124  -0.000744   0.044149   0.128022  -0.153522  -0.021685
    13  H    0.054307   0.213270  -0.005549   0.021564   0.002200   0.014407
    14  H   -0.024157   0.103151  -0.126602   0.294317   0.033568   0.024999
    15  H    0.220275   0.037073   0.034551  -0.030142   0.049235  -0.021254
    16  H    0.088868  -0.007016  -0.001149  -0.017945   0.232129  -0.000249
               7          8          9         10         11         12
     1  C   -0.038822   0.242620  -0.135087  -0.004868   0.006240   0.002124
     2  C    0.038877  -0.418681   0.068564  -0.004497   0.001706  -0.000744
     3  C   -0.496272   3.714096  -1.459487  -0.175261   0.000777   0.044149
     4  C   -0.332690   2.318649  -0.733808  -0.062156  -0.023568   0.128022
     5  C    0.889123  -5.835681   2.129447   0.205133   0.053886  -0.153522
     6  C    0.135550  -3.682873   1.066092   0.022553   0.060278  -0.021685
     7  N    7.177203  -0.788978   0.603977   0.254522   0.004842  -0.051381
     8  C   -0.788978  12.260359  -2.178948   0.008940   0.180791   0.122645
     9  C    0.603977  -2.178948   6.599507  -0.023063   0.011606   0.242042
    10  H    0.254522   0.008940  -0.023063   0.339950  -0.000081  -0.002310
    11  H    0.004842   0.180791   0.011606  -0.000081   0.473207  -0.000520
    12  H   -0.051381   0.122645   0.242042  -0.002310  -0.000520   0.465005
    13  H   -0.000425  -0.001349   0.001717  -0.000002   0.000000  -0.000000
    14  H   -0.006608  -0.030356   0.021466   0.002060   0.000002   0.000001
    15  H    0.000306   0.012363  -0.000677  -0.000000  -0.000002  -0.000000
    16  H   -0.000415  -0.011529   0.005736   0.000004   0.001423  -0.000001
              13         14         15         16
     1  C    0.054307  -0.024157   0.220275   0.088868
     2  C    0.213270   0.103151   0.037073  -0.007016
     3  C   -0.005549  -0.126602   0.034551  -0.001149
     4  C    0.021564   0.294317  -0.030142  -0.017945
     5  C    0.002200   0.033568   0.049235   0.232129
     6  C    0.014407   0.024999  -0.021254  -0.000249
     7  N   -0.000425  -0.006608   0.000306  -0.000415
     8  C   -0.001349  -0.030356   0.012363  -0.011529
     9  C    0.001717   0.021466  -0.000677   0.005736
    10  H   -0.000002   0.002060  -0.000000   0.000004
    11  H    0.000000   0.000002  -0.000002   0.001423
    12  H   -0.000000   0.000001  -0.000000  -0.000001
    13  H    0.527159  -0.003649  -0.004963  -0.000142
    14  H   -0.003649   0.533415  -0.000133   0.000014
    15  H   -0.004963  -0.000133   0.527006  -0.003484
    16  H   -0.000142   0.000014  -0.003484   0.533187
 Mulliken charges:
               1
     1  C   -0.066235
     2  C   -0.384540
     3  C   -0.001384
     4  C   -1.358303
     5  C    1.144217
     6  C   -0.428840
     7  N   -0.388808
     8  C    0.087931
     9  C   -0.219082
    10  H    0.439076
    11  H    0.229412
    12  H    0.226175
    13  H    0.181455
    14  H    0.178512
    15  H    0.179845
    16  H    0.180567
 Sum of Mulliken charges =  -0.00000
 Mulliken charges with hydrogens summed into heavy atoms:
               1
     1  C    0.113610
     2  C   -0.203084
     3  C    0.177128
     4  C   -1.358303
     5  C    1.144217
     6  C   -0.248272
     7  N    0.050268
     8  C    0.317343
     9  C    0.007093
 Electronic spatial extent (au):  <R**2>=           1021.7770
 Charge=             -0.0000 electrons
 Dipole moment (field-independent basis, Debye):
    X=              4.1617    Y=             -1.1617    Z=              0.0001  Tot=              4.3208
 Quadrupole moment (field-independent basis, Debye-Ang):
   XX=            -44.6287   YY=            -46.6291   ZZ=            -60.6474
   XY=             -2.0720   XZ=             -0.0004   YZ=             -0.0002
 Traceless Quadrupole moment (field-independent basis, Debye-Ang):
   XX=              6.0063   YY=              4.0060   ZZ=            -10.0123
   XY=             -2.0720   XZ=             -0.0004   YZ=             -0.0002
 Octapole moment (field-independent basis, Debye-Ang**2):
  XXX=             27.1671  YYY=             -8.7656  ZZZ=              0.0006  XYY=             15.3634
  XXY=             -6.7770  XXZ=             -0.0035  XZZ=              4.7326  YZZ=             -0.9470
  YYZ=              0.0011  XYZ=             -0.0007
 Hexadecapole moment (field-independent basis, Debye-Ang**3):
 XXXX=           -844.7493 YYYY=           -400.6088 ZZZZ=            -89.2657 XXXY=            -16.3295
 XXXZ=             -0.0191 YYYX=            -14.4241 YYYZ=              0.0079 ZZZX=             -0.0091
 ZZZY=              0.0121 XXYY=           -197.9137 XXZZ=           -202.1439 YYZZ=           -106.4795
 XXYZ=              0.0010 YYXZ=             -0.0012 ZZXY=             -1.0555
 N-N= 3.982865869425D+02 E-N=-1.637758473251D+03  KE= 3.593690849263D+02
 Unable to Open any file for archive entry.
 1\1\GINC-EXP-2-22\FOpt\RM06 TD-FC\6-31+G(d)\C8H7N1\CWALDT\23-Jun-2021\
 0\\# td= (nstates=6, root=3) M06/6-31+G* Opt density=current\\FuncsM06
 -V-3rd\\0,1\C,-2.1782222469,0.6850498124,-0.0000597246\C,-2.1474469052
 ,-0.6967490765,0.0000139095\C,-0.9108688638,-1.4413443461,0.0000984302
 \C,0.2443689303,-0.6551504163,0.0001074405\C,0.2437332031,0.7477853977
 ,0.0000461498\C,-0.9887799235,1.4643206664,-0.0000467599\N,1.587965659
 ,-1.0635024059,0.0001323355\C,1.5997950252,1.1581539548,0.0000946755\C
 ,2.4212138042,-0.0069381322,-0.0000339428\H,1.8845367678,-2.0322438416
 ,0.0002376972\H,1.9757706613,2.1755226598,0.0000440241\H,3.4980712434,
 -0.1119445175,-0.0001330406\H,-3.0851648738,-1.2509047475,0.0000180659
 \H,-0.892538421,-2.5280966882,0.0001551158\H,-3.1421395798,1.191914532
 8,-0.0000992851\H,-1.0133914803,2.5515731479,-0.000039091\\Version=AS6
 4L-G16RevC.01\State=1-A\HF=-363.5416785\RMSD=7.715e-09\RMSF=3.469e-05\
 Dipole=1.6373363,-0.4570522,0.0000288\Quadrupole=4.4655731,2.9783431,-
 7.4439162,-1.5404559,-0.0003193,-0.0001503\PG=C01 [X(C8H7N1)]\\@
 The archive entry for this job was punched.


 THE ONLY EXISTING THINGS ARE ATOMS AND EMPTY SPACE;
 ALL ELSE IS MERE OPINION. -- DEMOCRITUS OF ABDERA D. 370 B.C.
 EXPERIMENTS ARE THE ONLY MEANS OF KNOWLEDGE AT OUR DISPOSAL
 THE REST IS POETRY, IMAGINATION. -- MAX PLANCK
 Job cpu time:       0 days  4 hours 26 minutes 20.0 seconds.
 Elapsed time:       0 days  1 hours  7 minutes 29.4 seconds.
 File lengths (MBytes):  RWF=    239 Int=      0 D2E=      0 Chk=     11 Scr=      1
 Normal termination of Gaussian 16 at Wed Jun 23 12:08:29 2021.
