 Entering Gaussian System, Link 0=/opt/gaussian/16.C.01/g16/g16
 Initial command:
 /opt/gaussian/16.C.01/g16/l1.exe "/scratch/scaparas/38459008/Gau-7634.inp" -scrdir="/scratch/scaparas/38459008/"
 Entering Link 1 = /opt/gaussian/16.C.01/g16/l1.exe PID=      7635.
  
 Copyright (c) 1988-2019, Gaussian, Inc.  All Rights Reserved.
  
 This is part of the Gaussian(R) 16 program.  It is based on
 the Gaussian(R) 09 system (copyright 2009, Gaussian, Inc.),
 the Gaussian(R) 03 system (copyright 2003, Gaussian, Inc.),
 the Gaussian(R) 98 system (copyright 1998, Gaussian, Inc.),
 the Gaussian(R) 94 system (copyright 1995, Gaussian, Inc.),
 the Gaussian 92(TM) system (copyright 1992, Gaussian, Inc.),
 the Gaussian 90(TM) system (copyright 1990, Gaussian, Inc.),
 the Gaussian 88(TM) system (copyright 1988, Gaussian, Inc.),
 the Gaussian 86(TM) system (copyright 1986, Carnegie Mellon
 University), and the Gaussian 82(TM) system (copyright 1983,
 Carnegie Mellon University). Gaussian is a federally registered
 trademark of Gaussian, Inc.
  
 This software contains proprietary and confidential information,
 including trade secrets, belonging to Gaussian, Inc.
  
 This software is provided under written license and may be
 used, copied, transmitted, or stored only in accord with that
 written license.
  
 The following legend is applicable only to US Government
 contracts under FAR:
  
                    RESTRICTED RIGHTS LEGEND
  
 Use, reproduction and disclosure by the US Government is
 subject to restrictions as set forth in subparagraphs (a)
 and (c) of the Commercial Computer Software - Restricted
 Rights clause in FAR 52.227-19.
  
 Gaussian, Inc.
 340 Quinnipiac St., Bldg. 40, Wallingford CT 06492
  
  
 ---------------------------------------------------------------
 Warning -- This program may not be used in any manner that
 competes with the business of Gaussian, Inc. or will provide
 assistance to any competitor of Gaussian, Inc.  The licensee
 of this program is prohibited from giving any competitor of
 Gaussian, Inc. access to this program.  By using this program,
 the user acknowledges that Gaussian, Inc. is engaged in the
 business of creating and licensing software in the field of
 computational chemistry and represents and warrants to the
 licensee that it is not a competitor of Gaussian, Inc. and that
 it will not use this program in any manner prohibited above.
 ---------------------------------------------------------------
  

 Cite this work as:
 Gaussian 16, Revision C.01,
 M. J. Frisch, G. W. Trucks, H. B. Schlegel, G. E. Scuseria, 
 M. A. Robb, J. R. Cheeseman, G. Scalmani, V. Barone, 
 G. A. Petersson, H. Nakatsuji, X. Li, M. Caricato, A. V. Marenich, 
 J. Bloino, B. G. Janesko, R. Gomperts, B. Mennucci, H. P. Hratchian, 
 J. V. Ortiz, A. F. Izmaylov, J. L. Sonnenberg, D. Williams-Young, 
 F. Ding, F. Lipparini, F. Egidi, J. Goings, B. Peng, A. Petrone, 
 T. Henderson, D. Ranasinghe, V. G. Zakrzewski, J. Gao, N. Rega, 
 G. Zheng, W. Liang, M. Hada, M. Ehara, K. Toyota, R. Fukuda, 
 J. Hasegawa, M. Ishida, T. Nakajima, Y. Honda, O. Kitao, H. Nakai, 
 T. Vreven, K. Throssell, J. A. Montgomery, Jr., J. E. Peralta, 
 F. Ogliaro, M. J. Bearpark, J. J. Heyd, E. N. Brothers, K. N. Kudin, 
 V. N. Staroverov, T. A. Keith, R. Kobayashi, J. Normand, 
 K. Raghavachari, A. P. Rendell, J. C. Burant, S. S. Iyengar, 
 J. Tomasi, M. Cossi, J. M. Millam, M. Klene, C. Adamo, R. Cammi, 
 J. W. Ochterski, R. L. Martin, K. Morokuma, O. Farkas, 
 J. B. Foresman, and D. J. Fox, Gaussian, Inc., Wallingford CT, 2019.
 
 ******************************************
 Gaussian 16:  ES64L-G16RevC.01  3-Jul-2019
                14-Feb-2021 
 ******************************************
 %NProcShared=2
 Will use up to    2 processors via shared memory.
 %Chk=FuncsMN15.chk
 -----------------------------------------------------------
 # td= (nstates=6, root=1) MN15/6-31G(d) Opt density=current
 -----------------------------------------------------------
 1/18=20,19=15,26=3,38=1/1,3;
 2/9=110,12=2,17=6,18=5,40=1/2;
 3/5=1,6=6,7=1,11=9,25=1,30=1,71=1,74=-73/1,2,3,8;
 4//1;
 5/5=2,38=5/2;
 8/6=1,10=2,107=1,108=6/1;
 9/8=1,15=2,41=6,42=1,70=2/14;
 10/5=4,28=1/2;
 6/7=2,8=2,9=2,10=2,22=-1/1;
 7/12=6,13=5,14=1/1,2,3,16;
 1/18=20,19=15,26=3/3(2);
 2/9=110/2;
 99//99;
 2/9=110/2;
 3/5=1,6=6,7=1,11=9,25=1,30=1,71=1,74=-73/1,2,3,8;
 4/5=5,16=3,69=1/1;
 5/5=2,38=5/2;
 8/6=1,10=2,107=1,108=6/1;
 9/8=1,15=2,41=6,42=1,49=4,70=2/14;
 10/5=4,28=1/2;
 7/12=6,13=5,14=1/1,2,3,16;
 1/18=20,19=15,26=3/3(-8);
 2/9=110/2;
 6/7=2,8=2,9=2,10=2,22=-1/1;
 99/9=10/99;
 ---------
 FuncsMN15
 ---------
 Symbolic Z-matrix:
 Charge =  0 Multiplicity = 1
 C                    -2.15936   0.69162   0.00011 
 C                    -2.13588  -0.71874  -0.00002 
 C                    -0.93512  -1.41882  -0.00005 
 C                     0.24791  -0.67197  -0.00001 
 C                     0.24999   0.75191  -0.00006 
 C                    -0.98269   1.42884  -0.00006 
 N                     1.56678  -1.08097  -0.00025 
 C                     1.62599   1.16698  -0.0001 
 C                     2.39038   0.03047   0.00027 
 H                     1.88117  -2.03854   0.00076 
 H                     1.99815   2.18234  -0.00037 
 H                     3.46533  -0.08657   0.0004 
 H                    -3.07324  -1.26832   0.00023 
 H                    -0.91789  -2.50582  -0.00015 
 H                    -3.11663   1.20635   0.00023 
 H                    -1.01169   2.51556   0.00019 
 

 GradGradGradGradGradGradGradGradGradGradGradGradGradGradGradGradGradGrad
 Berny optimization.
 Initialization pass.
                           ----------------------------
                           !    Initial Parameters    !
                           ! (Angstroms and Degrees)  !
 --------------------------                            --------------------------
 ! Name  Definition              Value          Derivative Info.                !
 --------------------------------------------------------------------------------
 ! R1    R(1,2)                  1.4106         estimate D2E/DX2                !
 ! R2    R(1,6)                  1.3885         estimate D2E/DX2                !
 ! R3    R(1,15)                 1.0869         estimate D2E/DX2                !
 ! R4    R(2,3)                  1.3899         estimate D2E/DX2                !
 ! R5    R(2,13)                 1.0866         estimate D2E/DX2                !
 ! R6    R(3,4)                  1.3991         estimate D2E/DX2                !
 ! R7    R(3,14)                 1.0871         estimate D2E/DX2                !
 ! R8    R(4,5)                  1.4239         estimate D2E/DX2                !
 ! R9    R(4,7)                  1.3808         estimate D2E/DX2                !
 ! R10   R(5,6)                  1.4063         estimate D2E/DX2                !
 ! R11   R(5,8)                  1.4372         estimate D2E/DX2                !
 ! R12   R(6,16)                 1.0871         estimate D2E/DX2                !
 ! R13   R(7,9)                  1.3833         estimate D2E/DX2                !
 ! R14   R(7,10)                 1.0079         estimate D2E/DX2                !
 ! R15   R(8,9)                  1.3697         estimate D2E/DX2                !
 ! R16   R(8,11)                 1.0814         estimate D2E/DX2                !
 ! R17   R(9,12)                 1.0813         estimate D2E/DX2                !
 ! A1    A(2,1,6)              121.1146         estimate D2E/DX2                !
 ! A2    A(2,1,15)             119.221          estimate D2E/DX2                !
 ! A3    A(6,1,15)             119.6644         estimate D2E/DX2                !
 ! A4    A(1,2,3)              121.1973         estimate D2E/DX2                !
 ! A5    A(1,2,13)             119.4296         estimate D2E/DX2                !
 ! A6    A(3,2,13)             119.3731         estimate D2E/DX2                !
 ! A7    A(2,3,4)              117.4922         estimate D2E/DX2                !
 ! A8    A(2,3,14)             121.1516         estimate D2E/DX2                !
 ! A9    A(4,3,14)             121.3562         estimate D2E/DX2                !
 ! A10   A(3,4,5)              122.348          estimate D2E/DX2                !
 ! A11   A(3,4,7)              130.5063         estimate D2E/DX2                !
 ! A12   A(5,4,7)              107.1457         estimate D2E/DX2                !
 ! A13   A(4,5,6)              118.6898         estimate D2E/DX2                !
 ! A14   A(4,5,8)              106.8696         estimate D2E/DX2                !
 ! A15   A(6,5,8)              134.4406         estimate D2E/DX2                !
 ! A16   A(1,6,5)              119.1581         estimate D2E/DX2                !
 ! A17   A(1,6,16)             120.5398         estimate D2E/DX2                !
 ! A18   A(5,6,16)             120.3021         estimate D2E/DX2                !
 ! A19   A(4,7,9)              109.3098         estimate D2E/DX2                !
 ! A20   A(4,7,10)             125.4054         estimate D2E/DX2                !
 ! A21   A(9,7,10)             125.2847         estimate D2E/DX2                !
 ! A22   A(5,8,9)              107.1379         estimate D2E/DX2                !
 ! A23   A(5,8,11)             126.9153         estimate D2E/DX2                !
 ! A24   A(9,8,11)             125.9467         estimate D2E/DX2                !
 ! A25   A(7,9,8)              109.5369         estimate D2E/DX2                !
 ! A26   A(7,9,12)             120.3254         estimate D2E/DX2                !
 ! A27   A(8,9,12)             130.1377         estimate D2E/DX2                !
 ! D1    D(6,1,2,3)              0.0131         estimate D2E/DX2                !
 ! D2    D(6,1,2,13)           179.9933         estimate D2E/DX2                !
 ! D3    D(15,1,2,3)          -179.994          estimate D2E/DX2                !
 ! D4    D(15,1,2,13)           -0.0138         estimate D2E/DX2                !
 ! D5    D(2,1,6,5)             -0.0143         estimate D2E/DX2                !
 ! D6    D(2,1,6,16)          -179.991          estimate D2E/DX2                !
 ! D7    D(15,1,6,5)           179.9928         estimate D2E/DX2                !
 ! D8    D(15,1,6,16)            0.0162         estimate D2E/DX2                !
 ! D9    D(1,2,3,4)             -0.0029         estimate D2E/DX2                !
 ! D10   D(1,2,3,14)           180.0            estimate D2E/DX2                !
 ! D11   D(13,2,3,4)          -179.9831         estimate D2E/DX2                !
 ! D12   D(13,2,3,14)            0.0198         estimate D2E/DX2                !
 ! D13   D(2,3,4,5)             -0.0057         estimate D2E/DX2                !
 ! D14   D(2,3,4,7)           -179.9877         estimate D2E/DX2                !
 ! D15   D(14,3,4,5)           179.9914         estimate D2E/DX2                !
 ! D16   D(14,3,4,7)             0.0093         estimate D2E/DX2                !
 ! D17   D(3,4,5,6)              0.0043         estimate D2E/DX2                !
 ! D18   D(3,4,5,8)           -179.9957         estimate D2E/DX2                !
 ! D19   D(7,4,5,6)            179.9901         estimate D2E/DX2                !
 ! D20   D(7,4,5,8)             -0.01           estimate D2E/DX2                !
 ! D21   D(3,4,7,9)           -179.9844         estimate D2E/DX2                !
 ! D22   D(3,4,7,10)            -0.0882         estimate D2E/DX2                !
 ! D23   D(5,4,7,9)              0.0315         estimate D2E/DX2                !
 ! D24   D(5,4,7,10)           179.9277         estimate D2E/DX2                !
 ! D25   D(4,5,6,1)              0.0057         estimate D2E/DX2                !
 ! D26   D(4,5,6,16)           179.9824         estimate D2E/DX2                !
 ! D27   D(8,5,6,1)           -179.9942         estimate D2E/DX2                !
 ! D28   D(8,5,6,16)            -0.0175         estimate D2E/DX2                !
 ! D29   D(4,5,8,9)             -0.0151         estimate D2E/DX2                !
 ! D30   D(4,5,8,11)           179.9849         estimate D2E/DX2                !
 ! D31   D(6,5,8,9)            179.9849         estimate D2E/DX2                !
 ! D32   D(6,5,8,11)            -0.0151         estimate D2E/DX2                !
 ! D33   D(4,7,9,8)             -0.0422         estimate D2E/DX2                !
 ! D34   D(4,7,9,12)           179.9865         estimate D2E/DX2                !
 ! D35   D(10,7,9,8)          -179.9385         estimate D2E/DX2                !
 ! D36   D(10,7,9,12)            0.0902         estimate D2E/DX2                !
 ! D37   D(5,8,9,7)              0.0348         estimate D2E/DX2                !
 ! D38   D(5,8,9,12)          -179.9976         estimate D2E/DX2                !
 ! D39   D(11,8,9,7)          -179.9652         estimate D2E/DX2                !
 ! D40   D(11,8,9,12)            0.0024         estimate D2E/DX2                !
 --------------------------------------------------------------------------------
 Trust Radius=3.00D-01 FncErr=1.00D-07 GrdErr=1.00D-06 EigMax=2.50D+02 EigMin=1.00D-04
 Number of steps in this run=     94 maximum allowed number of steps=    100.
 GradGradGradGradGradGradGradGradGradGradGradGradGradGradGradGradGradGrad

                          Input orientation:                          
 ---------------------------------------------------------------------
 Center     Atomic      Atomic             Coordinates (Angstroms)
 Number     Number       Type             X           Y           Z
 ---------------------------------------------------------------------
      1          6           0       -2.159360    0.691620    0.000110
      2          6           0       -2.135880   -0.718740   -0.000020
      3          6           0       -0.935120   -1.418820   -0.000050
      4          6           0        0.247910   -0.671970   -0.000010
      5          6           0        0.249990    0.751910   -0.000060
      6          6           0       -0.982690    1.428840   -0.000060
      7          7           0        1.566780   -1.080970   -0.000250
      8          6           0        1.625990    1.166980   -0.000100
      9          6           0        2.390380    0.030470    0.000270
     10          1           0        1.881170   -2.038540    0.000760
     11          1           0        1.998150    2.182340   -0.000370
     12          1           0        3.465330   -0.086570    0.000400
     13          1           0       -3.073240   -1.268320    0.000230
     14          1           0       -0.917890   -2.505820   -0.000150
     15          1           0       -3.116630    1.206350    0.000230
     16          1           0       -1.011690    2.515560    0.000190
 ---------------------------------------------------------------------
                    Distance matrix (angstroms):
                    1          2          3          4          5
     1  C    0.000000
     2  C    1.410555   0.000000
     3  C    2.439820   1.389941   0.000000
     4  C    2.766645   2.384249   1.399051   0.000000
     5  C    2.410104   2.802711   2.473167   1.423882   0.000000
     6  C    1.388541   2.437611   2.848057   2.434703   1.406319
     7  N    4.126281   3.720336   2.524608   1.380833   2.256853
     8  C    3.815081   4.208041   3.639457   2.298008   1.437240
     9  C    4.597527   4.587848   3.627588   2.254684   2.258704
    10  H    4.876439   4.228305   2.883668   2.129566   3.232238
    11  H    4.416688   5.050393   4.644613   3.348197   2.258804
    12  H    5.678267   5.636771   4.597701   3.270242   3.322869
    13  H    2.162531   1.086592   2.143410   3.374266   3.889111
    14  H    3.429996   2.162673   1.087137   2.173038   3.460744
    15  H    1.086882   2.160519   3.413283   3.853338   3.397153
    16  H    2.154972   3.424106   3.935125   3.427381   2.168478
                    6          7          8          9         10
     6  C    0.000000
     7  N    3.577561   0.000000
     8  C    2.621790   2.248730   0.000000
     9  C    3.651444   1.383335   1.369652   0.000000
    10  H    4.497157   1.007860   3.215661   2.130750   0.000000
    11  H    3.074601   3.291697   1.081415   2.187325   4.222501
    12  H    4.699080   2.143204   2.225884   1.081303   2.513911
    13  H    3.412488   4.643801   5.292773   5.615870   5.013922
    14  H    3.935194   2.864225   4.467749   4.168623   2.837796
    15  H    2.145507   5.212117   4.742783   5.631150   5.958802
    16  H    1.087107   4.425329   2.962435   4.213046   5.395226
                   11         12         13         14         15
    11  H    0.000000
    12  H    2.701957   0.000000
    13  H    6.134008   6.644504   0.000000
    14  H    5.521063   5.006535   2.485345   0.000000
    15  H    5.207066   6.707745   2.475050   4.314471   0.000000
    16  H    3.028229   5.178300   4.309030   5.022256   2.478871
                   16
    16  H    0.000000
 Stoichiometry    C8H7N
 Framework group  C1[X(C8H7N)]
 Deg. of freedom    42
 Full point group                 C1      NOp   1
 Largest Abelian subgroup         C1      NOp   1
 Largest concise Abelian subgroup C1      NOp   1
                         Standard orientation:                         
 ---------------------------------------------------------------------
 Center     Atomic      Atomic             Coordinates (Angstroms)
 Number     Number       Type             X           Y           Z
 ---------------------------------------------------------------------
      1          6           0       -2.159361    0.691618    0.000110
      2          6           0       -2.135879   -0.718742   -0.000020
      3          6           0       -0.935118   -1.418820   -0.000050
      4          6           0        0.247911   -0.671969   -0.000010
      5          6           0        0.249989    0.751911   -0.000060
      6          6           0       -0.982691    1.428840   -0.000060
      7          7           0        1.566782   -1.080967   -0.000250
      8          6           0        1.625989    1.166983   -0.000100
      9          6           0        2.390380    0.030474    0.000270
     10          1           0        1.881173   -2.038537    0.000760
     11          1           0        1.998148    2.182343   -0.000370
     12          1           0        3.465330   -0.086565    0.000400
     13          1           0       -3.073238   -1.268323    0.000230
     14          1           0       -0.917887   -2.505820   -0.000150
     15          1           0       -3.116631    1.206347    0.000230
     16          1           0       -1.011693    2.515560    0.000190
 ---------------------------------------------------------------------
 Rotational constants (GHZ):           3.8785006           1.6312482           1.1482914
 Standard basis: 6-31G(d) (6D, 7F)
 There are   149 symmetry adapted cartesian basis functions of A   symmetry.
 There are   149 symmetry adapted basis functions of A   symmetry.
   149 basis functions,   280 primitive gaussians,   149 cartesian basis functions
    31 alpha electrons       31 beta electrons
       nuclear repulsion energy       399.8542490966 Hartrees.
 NAtoms=   16 NActive=   16 NUniq=   16 SFac= 1.00D+00 NAtFMM=   60 NAOKFM=F Big=F
 Integral buffers will be    131072 words long.
 Regular integral format.
 Two-electron integral symmetry is turned on.
 One-electron integrals computed using PRISM.
 NBasis=   149 RedAO= T EigKep=  4.06D-04  NBF=   149
 NBsUse=   149 1.00D-06 EigRej= -1.00D+00 NBFU=   149
 ExpMin= 1.61D-01 ExpMax= 4.17D+03 ExpMxC= 6.27D+02 IAcc=3 IRadAn=         5 AccDes= 0.00D+00
 Harris functional with IExCor= 1009 and IRadAn=       5 diagonalized for initial guess.
 HarFok:  IExCor= 1009 AccDes= 0.00D+00 IRadAn=         5 IDoV= 1 UseB2=F ITyADJ=14
 ICtDFT=  3500011 ScaDFX=  1.000000  1.000000  1.000000  1.000000
 FoFCou: FMM=F IPFlag=           0 FMFlag=      100000 FMFlg1=           0
         NFxFlg=           0 DoJE=T BraDBF=F KetDBF=T FulRan=T
         wScrn=  0.000000 ICntrl=       500 IOpCl=  0 I1Cent=   200000004 NGrid=           0
         NMat0=    1 NMatS0=      1 NMatT0=    0 NMatD0=    1 NMtDS0=    0 NMtDT0=    0
 Petite list used in FoFCou.
 Keep R1 ints in memory in canonical form, NReq=64402215.
 Requested convergence on RMS density matrix=1.00D-08 within 128 cycles.
 Requested convergence on MAX density matrix=1.00D-06.
 Requested convergence on             energy=1.00D-06.
 No special actions if energy rises.
 Integral accuracy reduced to 1.0D-05 until final iterations.
 Initial convergence to 1.0D-05 achieved.  Increase integral accuracy.
 SCF Done:  E(RMN15) =  -363.374388123     A.U. after   14 cycles
            NFock= 14  Conv=0.88D-08     -V/T= 2.0153
 DoSCS=F DFT=T ScalE2(SS,OS)=  1.000000  1.000000
 ExpMin= 1.61D-01 ExpMax= 4.17D+03 ExpMxC= 6.27D+02 IAcc=3 IRadAn=         5 AccDes= 0.00D+00
 HarFok:  IExCor=  205 AccDes= 0.00D+00 IRadAn=         5 IDoV=-2 UseB2=F ITyADJ=14
 ICtDFT= 12500011 ScaDFX=  1.000000  1.000000  1.000000  1.000000
 Range of M.O.s used for correlation:    10   149
 NBasis=   149 NAE=    31 NBE=    31 NFC=     9 NFV=     0
 NROrb=    140 NOA=    22 NOB=    22 NVA=   118 NVB=   118

 **** Warning!!: The largest alpha MO coefficient is  0.10625741D+02

 Orbital symmetries:
       Occupied  (A) (A) (A) (A) (A) (A) (A) (A) (A) (A) (A) (A)
                 (A) (A) (A) (A) (A) (A) (A) (A) (A) (A) (A) (A)
                 (A) (A) (A) (A) (A) (A) (A)
       Virtual   (A) (A) (A) (A) (A) (A) (A) (A) (A) (A) (A) (A)
                 (A) (A) (A) (A) (A) (A) (A) (A) (A) (A) (A) (A)
                 (A) (A) (A) (A) (A) (A) (A) (A) (A) (A) (A) (A)
                 (A) (A) (A) (A) (A) (A) (A) (A) (A) (A) (A) (A)
                 (A) (A) (A) (A) (A) (A) (A) (A) (A) (A) (A) (A)
                 (A) (A) (A) (A) (A) (A) (A) (A) (A) (A) (A) (A)
                 (A) (A) (A) (A) (A) (A) (A) (A) (A) (A) (A) (A)
                 (A) (A) (A) (A) (A) (A) (A) (A) (A) (A) (A) (A)
                 (A) (A) (A) (A) (A) (A) (A) (A) (A) (A) (A) (A)
                 (A) (A) (A) (A) (A) (A) (A) (A) (A) (A)
    24 initial guesses have been made.
 Convergence on wavefunction:    0.000001000000000
 Iteration     1 Dimension    24 NMult     0 NNew     24
 CISAX will form    24 AO SS matrices at one time.
 New state      1 was old state      2
 New state      2 was old state      1
 New state      3 was old state      5
 New state      4 was old state      3
 New state      5 was old state      8
 New state      6 was old state     12
 Iteration     2 Dimension    36 NMult    24 NNew     12
 New state      5 was old state      7
 New state      6 was old state      5
 Iteration     3 Dimension    48 NMult    36 NNew     12
 Iteration     4 Dimension    60 NMult    48 NNew     12
 No map to state      6
 Iteration     5 Dimension    72 NMult    60 NNew     12
 Iteration     6 Dimension    84 NMult    72 NNew     12
 Iteration     7 Dimension    96 NMult    84 NNew     12
 Iteration     8 Dimension   108 NMult    96 NNew     12
 Iteration     9 Dimension   116 NMult   108 NNew      8
 Iteration    10 Dimension   122 NMult   116 NNew      6
 Iteration    11 Dimension   126 NMult   122 NNew      4
 Iteration    12 Dimension   128 NMult   126 NNew      2
 ***********************************************************************
 Excited states from <AA,BB:AA,BB> singles matrix:
 ***********************************************************************
 
 Ground to excited state transition densities written to RWF  633
 Ground to excited state transition electric dipole moments (Au):
       state          X           Y           Z        Dip. S.      Osc.
         1         0.0137     -0.5543     -0.0000      0.3074      0.0382
         2        -0.7849      0.3747     -0.0002      0.7565      0.0953
         3        -1.6632     -0.6833     -0.0001      3.2330      0.5095
         4         1.3911     -0.3988     -0.0001      2.0943      0.3453
         5         0.5245     -0.9214      0.0000      1.1240      0.1970
         6        -0.0230     -0.1458      0.0002      0.0218      0.0039
 Ground to excited state transition velocity dipole moments (Au):
       state          X           Y           Z        Dip. S.      Osc.
         1         0.0004      0.1160      0.0000      0.0135      0.0482
         2         0.1448     -0.0814      0.0000      0.0276      0.0973
         3         0.4026      0.1729      0.0000      0.1920      0.5413
         4        -0.3492      0.1054      0.0000      0.1330      0.3586
         5        -0.1456      0.2491     -0.0000      0.0833      0.2111
         6         0.0104      0.0481     -0.0001      0.0024      0.0060
 Ground to excited state transition magnetic dipole moments (Au):
       state          X           Y           Z
         1        -0.0002     -0.0002     -0.0721
         2         0.0001      0.0000     -0.0196
         3        -0.0001     -0.0001     -0.5737
         4        -0.0001      0.0000      0.1470
         5        -0.0000      0.0001     -0.5417
         6         0.0002      0.0002      1.1399
 Ground to excited state transition velocity quadrupole moments (Au):
       state          XX          YY          ZZ          XY          XZ          YZ
         1        -0.0923     -0.0126      0.0106      0.0351      0.0001     -0.0001
         2         0.1957     -0.1969     -0.0011     -0.0378      0.0001      0.0000
         3         0.0959     -0.0797     -0.0094     -0.4111      0.0001     -0.0001
         4         0.4543     -0.0383      0.0415     -0.0730     -0.0001      0.0001
         5         0.4310     -0.0302     -0.0001     -0.5492     -0.0001      0.0000
         6        -0.9955      0.4288     -0.0058      0.6470     -0.0004      0.0002
 <0|del|b> * <b|rxdel|0> + <0|del|b> * <b|delr+rdel|0>
 Rotatory Strengths (R) in cgs (10**-40 erg-esu-cm/Gauss)
       state          XX          YY          ZZ    R(velocity)    E-M Angle
         1        -0.0615     -0.0032     -0.0231     -0.0293       90.00
         2         0.0056      0.0297      0.0027      0.0127       90.00
         3        -0.1003     -0.0895     -0.0101     -0.0666       90.00
         4         0.0147      0.0056      0.0698      0.0301       90.00
         5         0.0790     -0.0038      0.0130      0.0294       90.00
         6        -0.1178     -0.0378     -0.0109     -0.0555       90.00
 1/2[<0|r|b>*<b|rxdel|0> + (<0|rxdel|b>*<b|r|0>)*]
 Rotatory Strengths (R) in cgs (10**-40 erg-esu-cm/Gauss)
       state          XX          YY          ZZ     R(length)
         1         0.0020     -0.0742     -0.0013     -0.0245
         2         0.0416     -0.0003     -0.0026      0.0129
         3        -0.0803     -0.0685     -0.0213     -0.0567
         4         0.0744      0.0031      0.0116      0.0297
         5         0.0062      0.0503      0.0170      0.0245
         6         0.0036      0.0220     -0.1346     -0.0363
  1/2[<0|del|b>*<b|r|0> + (<0|r|b>*<b|del|0>)*] (Au)
       state          X           Y           Z        Dip. S.   Osc.(frdel)
         1         0.0000     -0.0643     -0.0000      0.0643      0.0429
         2        -0.1137     -0.0305     -0.0000      0.1441      0.0961
         3        -0.6696     -0.1181     -0.0000      0.7877      0.5251
         4        -0.4858     -0.0420     -0.0000      0.5278      0.3519
         5        -0.0764     -0.2296     -0.0000      0.3059      0.2039
         6        -0.0002     -0.0070     -0.0000      0.0072      0.0048

 Excitation energies and oscillator strengths:
 
 Excited State   1:      Singlet-A      5.0678 eV  244.65 nm  f=0.0382  <S**2>=0.000
      30 -> 32         0.50044
      30 -> 33        -0.10468
      31 -> 32        -0.37592
      31 -> 33        -0.29119
 This state for optimization and/or second-order correction.
 Total Energy, E(TD-HF/TD-DFT) =  -363.188151601    
 Copying the excited state density for this state as the 1-particle RhoCI density.
 
 Excited State   2:      Singlet-A      5.1431 eV  241.07 nm  f=0.0953  <S**2>=0.000
      30 -> 32         0.30000
      30 -> 33         0.16218
      31 -> 32         0.55482
      31 -> 33        -0.25895
 
 Excited State   3:      Singlet-A      6.4326 eV  192.74 nm  f=0.5095  <S**2>=0.000
      29 -> 32        -0.12659
      30 -> 32         0.35404
      30 -> 33         0.16408
      31 -> 33         0.56018
 
 Excited State   4:      Singlet-A      6.7295 eV  184.24 nm  f=0.3453  <S**2>=0.000
      29 -> 32        -0.26727
      30 -> 32        -0.11610
      30 -> 33         0.58855
      31 -> 32        -0.15373
      31 -> 33        -0.16071
 
 Excited State   5:      Singlet-A      7.1556 eV  173.27 nm  f=0.1970  <S**2>=0.000
      29 -> 32         0.58964
      30 -> 33         0.28073
      31 -> 32        -0.15110
      31 -> 34         0.17166
 
 Excited State   6:      Singlet-A      7.3784 eV  168.04 nm  f=0.0039  <S**2>=0.000
      29 -> 32        -0.22703
      29 -> 33         0.22277
      30 -> 34         0.23591
      31 -> 34         0.57718
 SavETr:  write IOETrn=   770 NScale= 10 NData=  16 NLR=1 NState=    6 LETran=     118.
          IDoAtm=1111111111111111
          Differentiating once with respect to electric field.
                with respect to dipole field.
          Differentiating once with respect to nuclear coordinates.
 Keep R1 ints in memory in canonical form, NReq=64414501.
          There are     1 degrees of freedom in the 1st order CPHF.  IDoFFX=0 NUNeed=     1.
 LinEq1:  Iter=  0 NonCon=     1 RMS=6.16D-03 Max=1.43D-01 NDo=     1
 AX will form     1 AO Fock derivatives at one time.
 LinEq1:  Iter=  1 NonCon=     1 RMS=2.41D-03 Max=5.65D-02 NDo=     1
 LinEq1:  Iter=  2 NonCon=     1 RMS=1.45D-03 Max=3.55D-02 NDo=     1
 LinEq1:  Iter=  3 NonCon=     1 RMS=6.75D-04 Max=2.25D-02 NDo=     1
 LinEq1:  Iter=  4 NonCon=     1 RMS=3.15D-04 Max=9.94D-03 NDo=     1
 LinEq1:  Iter=  5 NonCon=     1 RMS=2.11D-04 Max=6.41D-03 NDo=     1
 LinEq1:  Iter=  6 NonCon=     1 RMS=8.35D-05 Max=2.06D-03 NDo=     1
 LinEq1:  Iter=  7 NonCon=     1 RMS=5.08D-05 Max=1.19D-03 NDo=     1
 LinEq1:  Iter=  8 NonCon=     1 RMS=2.28D-05 Max=4.30D-04 NDo=     1
 LinEq1:  Iter=  9 NonCon=     1 RMS=1.30D-05 Max=2.47D-04 NDo=     1
 LinEq1:  Iter= 10 NonCon=     1 RMS=5.70D-06 Max=9.02D-05 NDo=     1
 LinEq1:  Iter= 11 NonCon=     1 RMS=2.60D-06 Max=6.45D-05 NDo=     1
 LinEq1:  Iter= 12 NonCon=     1 RMS=8.71D-07 Max=1.62D-05 NDo=     1
 LinEq1:  Iter= 13 NonCon=     1 RMS=4.93D-07 Max=8.72D-06 NDo=     1
 LinEq1:  Iter= 14 NonCon=     1 RMS=1.55D-07 Max=2.59D-06 NDo=     1
 LinEq1:  Iter= 15 NonCon=     1 RMS=3.86D-08 Max=6.89D-07 NDo=     1
 LinEq1:  Iter= 16 NonCon=     1 RMS=1.60D-08 Max=2.65D-07 NDo=     1
 LinEq1:  Iter= 17 NonCon=     1 RMS=7.34D-09 Max=1.15D-07 NDo=     1
 LinEq1:  Iter= 18 NonCon=     1 RMS=1.94D-09 Max=3.43D-08 NDo=     1
 LinEq1:  Iter= 19 NonCon=     1 RMS=8.48D-10 Max=1.66D-08 NDo=     1
 LinEq1:  Iter= 20 NonCon=     1 RMS=2.92D-10 Max=4.24D-09 NDo=     1
 LinEq1:  Iter= 21 NonCon=     0 RMS=4.47D-11 Max=5.32D-10 NDo=     1
 Linear equations converged to 1.000D-10 1.000D-09 after    21 iterations.
 End of Minotr F.D. properties file   721 does not exist.
 End of Minotr F.D. properties file   722 does not exist.
 End of Minotr F.D. properties file   788 does not exist.

 **********************************************************************

            Population analysis using the CI Density.

 **********************************************************************

 Orbital symmetries:
       Occupied  (A) (A) (A) (A) (A) (A) (A) (A) (A) (A) (A) (A)
                 (A) (A) (A) (A) (A) (A) (A) (A) (A) (A) (A) (A)
                 (A) (A) (A) (A) (A) (A) (A)
       Virtual   (A) (A) (A) (A) (A) (A) (A) (A) (A) (A) (A) (A)
                 (A) (A) (A) (A) (A) (A) (A) (A) (A) (A) (A) (A)
                 (A) (A) (A) (A) (A) (A) (A) (A) (A) (A) (A) (A)
                 (A) (A) (A) (A) (A) (A) (A) (A) (A) (A) (A) (A)
                 (A) (A) (A) (A) (A) (A) (A) (A) (A) (A) (A) (A)
                 (A) (A) (A) (A) (A) (A) (A) (A) (A) (A) (A) (A)
                 (A) (A) (A) (A) (A) (A) (A) (A) (A) (A) (A) (A)
                 (A) (A) (A) (A) (A) (A) (A) (A) (A) (A) (A) (A)
                 (A) (A) (A) (A) (A) (A) (A) (A) (A) (A) (A) (A)
                 (A) (A) (A) (A) (A) (A) (A) (A) (A) (A)
 The electronic state is 1-A.
 Alpha  occ. eigenvalues --  -14.16246 -10.09819 -10.09461 -10.06452 -10.05966
 Alpha  occ. eigenvalues --  -10.05963 -10.05881 -10.05438 -10.05094  -1.01399
 Alpha  occ. eigenvalues --   -0.87311  -0.81509  -0.76630  -0.74811  -0.65647
 Alpha  occ. eigenvalues --   -0.62600  -0.61281  -0.57295  -0.51270  -0.50260
 Alpha  occ. eigenvalues --   -0.46706  -0.46061  -0.45962  -0.44066  -0.42071
 Alpha  occ. eigenvalues --   -0.38324  -0.36813  -0.36269  -0.30725  -0.24536
 Alpha  occ. eigenvalues --   -0.22873
 Alpha virt. eigenvalues --    0.02352   0.06223   0.10939   0.13044   0.14785
 Alpha virt. eigenvalues --    0.18154   0.19220   0.21461   0.22633   0.22681
 Alpha virt. eigenvalues --    0.23702   0.26467   0.29302   0.31053   0.34243
 Alpha virt. eigenvalues --    0.37312   0.38812   0.42596   0.46964   0.53426
 Alpha virt. eigenvalues --    0.54817   0.55453   0.55614   0.58579   0.59563
 Alpha virt. eigenvalues --    0.60365   0.61575   0.62032   0.63746   0.64504
 Alpha virt. eigenvalues --    0.65214   0.65375   0.65972   0.67332   0.68304
 Alpha virt. eigenvalues --    0.72724   0.74541   0.81127   0.84812   0.85111
 Alpha virt. eigenvalues --    0.85990   0.87733   0.88547   0.88931   0.90220
 Alpha virt. eigenvalues --    0.92294   0.94116   0.96655   1.00485   1.00864
 Alpha virt. eigenvalues --    1.01167   1.07450   1.09406   1.14348   1.15614
 Alpha virt. eigenvalues --    1.22490   1.24078   1.27626   1.31755   1.33458
 Alpha virt. eigenvalues --    1.34780   1.39321   1.42155   1.44808   1.46557
 Alpha virt. eigenvalues --    1.46760   1.49801   1.50454   1.51729   1.56339
 Alpha virt. eigenvalues --    1.61871   1.74790   1.79220   1.80565   1.87659
 Alpha virt. eigenvalues --    1.87751   1.90732   1.93036   1.93770   1.98111
 Alpha virt. eigenvalues --    1.98411   2.02625   2.07241   2.10562   2.11788
 Alpha virt. eigenvalues --    2.13826   2.19482   2.21667   2.22255   2.22627
 Alpha virt. eigenvalues --    2.24435   2.33610   2.34699   2.36667   2.45129
 Alpha virt. eigenvalues --    2.51605   2.53990   2.57197   2.61105   2.61158
 Alpha virt. eigenvalues --    2.66372   2.71368   2.74329   2.77000   2.83451
 Alpha virt. eigenvalues --    2.89584   3.00418   3.13699   3.33636   3.95101
 Alpha virt. eigenvalues --    4.03625   4.05091   4.09518   4.14416   4.25670
 Alpha virt. eigenvalues --    4.32720   4.37931   4.67024
          Condensed to atoms (all electrons):
               1          2          3          4          5          6
     1  C    4.916433   0.519533  -0.027238  -0.034923  -0.001929   0.445998
     2  C    0.519533   4.982919   0.436770   0.004326  -0.024345  -0.042865
     3  C   -0.027238   0.436770   5.102799   0.489142  -0.070623  -0.042644
     4  C   -0.034923   0.004326   0.489142   4.800486   0.444044  -0.041420
     5  C   -0.001929  -0.024345  -0.070623   0.444044   4.777677   0.462663
     6  C    0.445998  -0.042865  -0.042644  -0.041420   0.462663   5.157461
     7  N   -0.000106   0.005820  -0.086741   0.264733  -0.029113   0.010371
     8  C    0.008119   0.000259   0.012520  -0.028998   0.436542  -0.094573
     9  C   -0.000414  -0.000244   0.005420  -0.102466  -0.017634   0.012005
    10  H   -0.000003  -0.000023  -0.004222  -0.023565   0.006270  -0.000092
    11  H    0.000004   0.000005  -0.000131   0.006812  -0.031097  -0.005892
    12  H    0.000004   0.000001  -0.000110   0.005738   0.002085  -0.000151
    13  H   -0.037075   0.360813  -0.034996   0.003408   0.000874   0.004780
    14  H    0.004666  -0.036819   0.350538  -0.037373   0.004903   0.000490
    15  H    0.360815  -0.034739   0.004664   0.000774   0.003196  -0.038542
    16  H   -0.043002   0.004512   0.000483   0.005269  -0.036327   0.357653
               7          8          9         10         11         12
     1  C   -0.000106   0.008119  -0.000414  -0.000003   0.000004   0.000004
     2  C    0.005820   0.000259  -0.000244  -0.000023   0.000005   0.000001
     3  C   -0.086741   0.012520   0.005420  -0.004222  -0.000131  -0.000110
     4  C    0.264733  -0.028998  -0.102466  -0.023565   0.006812   0.005738
     5  C   -0.029113   0.436542  -0.017634   0.006270  -0.031097   0.002085
     6  C    0.010371  -0.094573   0.012005  -0.000092  -0.005892  -0.000151
     7  N    6.923928  -0.055537   0.303930   0.324733   0.003989  -0.046419
     8  C   -0.055537   5.040960   0.505755   0.004435   0.368290  -0.027857
     9  C    0.303930   0.505755   4.976603  -0.029258  -0.047029   0.373963
    10  H    0.324733   0.004435  -0.029258   0.384722  -0.000077  -0.002422
    11  H    0.003989   0.368290  -0.047029  -0.000077   0.568049  -0.001592
    12  H   -0.046419  -0.027857   0.373963  -0.002422  -0.001592   0.555684
    13  H   -0.000107   0.000004   0.000003  -0.000002  -0.000000  -0.000000
    14  H   -0.006677  -0.000307   0.000034   0.002410   0.000002   0.000003
    15  H    0.000002  -0.000141   0.000004  -0.000000  -0.000001  -0.000000
    16  H   -0.000125  -0.006922   0.000006   0.000003   0.002003  -0.000001
              13         14         15         16
     1  C   -0.037075   0.004666   0.360815  -0.043002
     2  C    0.360813  -0.036819  -0.034739   0.004512
     3  C   -0.034996   0.350538   0.004664   0.000483
     4  C    0.003408  -0.037373   0.000774   0.005269
     5  C    0.000874   0.004903   0.003196  -0.036327
     6  C    0.004780   0.000490  -0.038542   0.357653
     7  N   -0.000107  -0.006677   0.000002  -0.000125
     8  C    0.000004  -0.000307  -0.000141  -0.006922
     9  C    0.000003   0.000034   0.000004   0.000006
    10  H   -0.000002   0.002410  -0.000000   0.000003
    11  H   -0.000000   0.000002  -0.000001   0.002003
    12  H   -0.000000   0.000003  -0.000000  -0.000001
    13  H    0.612911  -0.006399  -0.006154  -0.000154
    14  H   -0.006399   0.626485  -0.000147   0.000015
    15  H   -0.006154  -0.000147   0.596195  -0.006072
    16  H   -0.000154   0.000015  -0.006072   0.611151
 Mulliken charges:
               1
     1  C   -0.110881
     2  C   -0.175922
     3  C   -0.135632
     4  C    0.244012
     5  C    0.072815
     6  C   -0.185242
     7  N   -0.612681
     8  C   -0.162549
     9  C    0.019323
    10  H    0.337091
    11  H    0.136664
    12  H    0.141074
    13  H    0.102094
    14  H    0.098177
    15  H    0.120148
    16  H    0.111508
 Sum of Mulliken charges =  -0.00000
 Mulliken charges with hydrogens summed into heavy atoms:
               1
     1  C    0.009267
     2  C   -0.073828
     3  C   -0.037455
     4  C    0.244012
     5  C    0.072815
     6  C   -0.073733
     7  N   -0.275590
     8  C   -0.025885
     9  C    0.160397
 Electronic spatial extent (au):  <R**2>=           1009.3890
 Charge=             -0.0000 electrons
 Dipole moment (field-independent basis, Debye):
    X=              2.2611    Y=             -1.1181    Z=              0.0018  Tot=              2.5224
 Quadrupole moment (field-independent basis, Debye-Ang):
   XX=            -45.0344   YY=            -43.8334   ZZ=            -56.5647
   XY=             -4.1694   XZ=              0.0020   YZ=             -0.0035
 Traceless Quadrupole moment (field-independent basis, Debye-Ang):
   XX=              3.4431   YY=              4.6441   ZZ=             -8.0872
   XY=             -4.1694   XZ=              0.0020   YZ=             -0.0035
 Octapole moment (field-independent basis, Debye-Ang**2):
  XXX=             16.2321  YYY=             -9.6403  ZZZ=              0.0007  XYY=             11.2552
  XXY=             -5.5245  XXZ=              0.0101  XZZ=              2.4522  YZZ=             -1.2068
  YYZ=              0.0063  XYZ=             -0.0081
 Hexadecapole moment (field-independent basis, Debye-Ang**3):
 XXXX=           -814.4562 YYYY=           -364.7974 ZZZZ=            -58.0897 XXXY=            -27.7722
 XXXZ=              0.0082 YYYX=            -20.8818 YYYZ=             -0.0136 ZZZX=             -0.0006
 ZZZY=             -0.0021 XXYY=           -188.6405 XXZZ=           -177.6786 YYZZ=            -86.7486
 XXYZ=             -0.0151 YYXZ=              0.0078 ZZXY=             -3.9501
 N-N= 3.998542490966D+02 E-N=-1.640214502280D+03  KE= 3.581017730026D+02
 Calling FoFJK, ICntrl=  10005127 FMM=F ISym2X=0 I1Cent= 0 IOpClX= 0 NMat=1 NMatS=1 NMatT=0.
 ***** Axes restored to original set *****
 -------------------------------------------------------------------
 Center     Atomic                   Forces (Hartrees/Bohr)
 Number     Number              X              Y              Z
 -------------------------------------------------------------------
      1        6          -0.021122831   -0.021520263   -0.000013213
      2        6          -0.035624201    0.012334784    0.000020490
      3        6           0.024292478   -0.021515659   -0.000002400
      4        6           0.001473497   -0.015754286   -0.000029651
      5        6           0.007366413    0.010609529   -0.000021592
      6        6           0.021401597    0.025332423    0.000016001
      7        7          -0.023246391    0.006773577    0.000056500
      8        6          -0.008891679    0.004030945    0.000016379
      9        6           0.032985175    0.001945895   -0.000028066
     10        1           0.000704650   -0.004157252   -0.000006309
     11        1           0.000137069    0.000495430    0.000009713
     12        1          -0.000584277    0.000149418   -0.000006933
     13        1           0.000126550    0.000997082   -0.000006311
     14        1           0.000557768    0.000152429    0.000000155
     15        1           0.000031684    0.000264736    0.000001341
     16        1           0.000392497   -0.000138787   -0.000006103
 -------------------------------------------------------------------
 Cartesian Forces:  Max     0.035624201 RMS     0.011809183

 GradGradGradGradGradGradGradGradGradGradGradGradGradGradGradGradGradGrad
 Berny optimization.
 FormGI is forming the generalized inverse of G from B-inverse, IUseBI=4.
 Internal  Forces:  Max     0.034412396 RMS     0.006515255
 Search for a local minimum.
 Step number   1 out of a maximum of   94
 All quantities printed in internal units (Hartrees-Bohrs-Radians)
 Mixed Optimization -- RFO/linear search
 Second derivative matrix not updated -- first step.
 ITU=  0
     Eigenvalues ---    0.01790   0.01867   0.01928   0.01947   0.02010
     Eigenvalues ---    0.02041   0.02076   0.02089   0.02098   0.02135
     Eigenvalues ---    0.02159   0.02173   0.02275   0.16000   0.16000
     Eigenvalues ---    0.16000   0.16000   0.16000   0.16000   0.16000
     Eigenvalues ---    0.22000   0.22188   0.22662   0.24010   0.24651
     Eigenvalues ---    0.35146   0.35149   0.35175   0.35209   0.35824
     Eigenvalues ---    0.35837   0.36510   0.37931   0.41898   0.42676
     Eigenvalues ---    0.44901   0.45975   0.46333   0.46561   0.46716
     Eigenvalues ---    0.47115   0.50040
 RFO step:  Lambda=-8.59744159D-03 EMin= 1.79046333D-02
 Linear search not attempted -- first point.
 Iteration  1 RMS(Cart)=  0.02184147 RMS(Int)=  0.00019430
 Iteration  2 RMS(Cart)=  0.00023919 RMS(Int)=  0.00006614
 Iteration  3 RMS(Cart)=  0.00000005 RMS(Int)=  0.00006614
 Variable       Old X    -DE/DX   Delta X   Delta X   Delta X     New X
                                 (Linear)    (Quad)   (Total)
    R1        2.66556   0.00054   0.00000   0.00268   0.00272   2.66828
    R2        2.62396   0.03441   0.00000   0.07163   0.07168   2.69564
    R3        2.05391   0.00010   0.00000   0.00027   0.00027   2.05418
    R4        2.62661   0.03269   0.00000   0.06867   0.06866   2.69527
    R5        2.05336  -0.00061   0.00000  -0.00170  -0.00170   2.05166
    R6        2.64382   0.00805   0.00000   0.01665   0.01660   2.66043
    R7        2.05439  -0.00014   0.00000  -0.00040  -0.00040   2.05399
    R8        2.69075   0.01415   0.00000   0.02943   0.02923   2.71997
    R9        2.60940  -0.00536   0.00000  -0.01199  -0.01198   2.59741
   R10        2.65756   0.00606   0.00000   0.01247   0.01248   2.67004
   R11        2.71599   0.00382   0.00000   0.00956   0.00945   2.72544
   R12        2.05433  -0.00015   0.00000  -0.00042  -0.00042   2.05392
   R13        2.61412   0.01688   0.00000   0.03525   0.03542   2.64954
   R14        1.90458   0.00417   0.00000   0.00883   0.00883   1.91341
   R15        2.58827   0.01064   0.00000   0.02234   0.02245   2.61071
   R16        2.04358   0.00051   0.00000   0.00140   0.00140   2.04498
   R17        2.04337  -0.00060   0.00000  -0.00163  -0.00163   2.04174
    A1        2.11385   0.00484   0.00000   0.02454   0.02458   2.13842
    A2        2.08080  -0.00217   0.00000  -0.01077  -0.01079   2.07001
    A3        2.08854  -0.00267   0.00000  -0.01376  -0.01378   2.07475
    A4        2.11529  -0.00620   0.00000  -0.02318  -0.02319   2.09210
    A5        2.08444   0.00228   0.00000   0.00676   0.00677   2.09121
    A6        2.08345   0.00391   0.00000   0.01642   0.01643   2.09988
    A7        2.05063  -0.00128   0.00000  -0.00575  -0.00585   2.04478
    A8        2.11449   0.00122   0.00000   0.00630   0.00635   2.12084
    A9        2.11807   0.00006   0.00000  -0.00055  -0.00050   2.11756
   A10        2.13538   0.00688   0.00000   0.02578   0.02576   2.16113
   A11        2.27776  -0.00149   0.00000  -0.00022  -0.00007   2.27769
   A12        1.87005  -0.00538   0.00000  -0.02556  -0.02569   1.84436
   A13        2.07153  -0.00203   0.00000  -0.01048  -0.01040   2.06113
   A14        1.86523   0.00230   0.00000   0.00693   0.00668   1.87190
   A15        2.34643  -0.00027   0.00000   0.00355   0.00372   2.35015
   A16        2.07970  -0.00221   0.00000  -0.01092  -0.01090   2.06880
   A17        2.10382   0.00150   0.00000   0.00781   0.00780   2.11162
   A18        2.09967   0.00071   0.00000   0.00310   0.00309   2.10276
   A19        1.90782   0.01053   0.00000   0.04413   0.04426   1.95208
   A20        2.18874  -0.00586   0.00000  -0.02559  -0.02566   2.16308
   A21        2.18663  -0.00467   0.00000  -0.01853  -0.01860   2.16803
   A22        1.86991   0.00333   0.00000   0.01732   0.01731   1.88722
   A23        2.21509  -0.00171   0.00000  -0.00893  -0.00892   2.20617
   A24        2.19819  -0.00162   0.00000  -0.00839  -0.00839   2.18980
   A25        1.91178  -0.01078   0.00000  -0.04281  -0.04256   1.86922
   A26        2.10007   0.00548   0.00000   0.02194   0.02182   2.12189
   A27        2.27133   0.00530   0.00000   0.02087   0.02075   2.29208
    D1        0.00023  -0.00000   0.00000  -0.00016  -0.00016   0.00007
    D2        3.14148   0.00000   0.00000   0.00000   0.00000   3.14148
    D3       -3.14149  -0.00000   0.00000  -0.00005  -0.00005  -3.14153
    D4       -0.00024   0.00000   0.00000   0.00011   0.00011  -0.00013
    D5       -0.00025   0.00000   0.00000   0.00019   0.00019  -0.00005
    D6       -3.14143  -0.00000   0.00000  -0.00001  -0.00000  -3.14144
    D7        3.14147   0.00000   0.00000   0.00008   0.00009   3.14155
    D8        0.00028  -0.00000   0.00000  -0.00011  -0.00011   0.00017
    D9       -0.00005   0.00000   0.00000   0.00004   0.00004  -0.00001
   D10        3.14159   0.00000   0.00000   0.00004   0.00004  -3.14156
   D11       -3.14130  -0.00000   0.00000  -0.00012  -0.00012  -3.14142
   D12        0.00035  -0.00000   0.00000  -0.00012  -0.00012   0.00023
   D13       -0.00010   0.00000   0.00000   0.00003   0.00003  -0.00007
   D14       -3.14138  -0.00000   0.00000  -0.00012  -0.00012  -3.14150
   D15        3.14144   0.00000   0.00000   0.00003   0.00004   3.14148
   D16        0.00016  -0.00000   0.00000  -0.00011  -0.00012   0.00005
   D17        0.00008   0.00000   0.00000   0.00001   0.00001   0.00008
   D18       -3.14152  -0.00000   0.00000  -0.00005  -0.00006  -3.14157
   D19        3.14142   0.00000   0.00000   0.00013   0.00013   3.14155
   D20       -0.00017   0.00000   0.00000   0.00007   0.00007  -0.00011
   D21       -3.14132  -0.00001   0.00000  -0.00033  -0.00033   3.14153
   D22       -0.00154   0.00001   0.00000   0.00035   0.00035  -0.00119
   D23        0.00055  -0.00001   0.00000  -0.00046  -0.00047   0.00008
   D24        3.14033   0.00001   0.00000   0.00021   0.00021   3.14054
   D25        0.00010  -0.00000   0.00000  -0.00012  -0.00012  -0.00002
   D26        3.14129   0.00000   0.00000   0.00008   0.00008   3.14136
   D27       -3.14149  -0.00000   0.00000  -0.00004  -0.00004  -3.14153
   D28       -0.00031   0.00000   0.00000   0.00016   0.00016  -0.00014
   D29       -0.00026   0.00001   0.00000   0.00036   0.00036   0.00010
   D30        3.14133   0.00000   0.00000   0.00008   0.00009   3.14142
   D31        3.14133   0.00001   0.00000   0.00028   0.00029  -3.14157
   D32       -0.00026  -0.00000   0.00000   0.00001   0.00001  -0.00025
   D33       -0.00074   0.00002   0.00000   0.00072   0.00072  -0.00001
   D34        3.14136   0.00001   0.00000   0.00038   0.00039  -3.14144
   D35       -3.14052   0.00000   0.00000   0.00005   0.00004  -3.14047
   D36        0.00157  -0.00001   0.00000  -0.00029  -0.00029   0.00128
   D37        0.00061  -0.00002   0.00000  -0.00067  -0.00066  -0.00005
   D38       -3.14155  -0.00001   0.00000  -0.00029  -0.00028   3.14135
   D39       -3.14099  -0.00001   0.00000  -0.00040  -0.00039  -3.14138
   D40        0.00004  -0.00000   0.00000  -0.00002  -0.00001   0.00003
         Item               Value     Threshold  Converged?
 Maximum Force            0.034412     0.000450     NO 
 RMS     Force            0.006515     0.000300     NO 
 Maximum Displacement     0.083223     0.001800     NO 
 RMS     Displacement     0.021815     0.001200     NO 
 Predicted change in Energy=-4.395520D-03
 GradGradGradGradGradGradGradGradGradGradGradGradGradGradGradGradGradGrad

                          Input orientation:                          
 ---------------------------------------------------------------------
 Center     Atomic      Atomic             Coordinates (Angstroms)
 Number     Number       Type             X           Y           Z
 ---------------------------------------------------------------------
      1          6           0       -2.177061    0.679166    0.000021
      2          6           0       -2.175799   -0.732825   -0.000024
      3          6           0       -0.938339   -1.442017    0.000004
      4          6           0        0.242028   -0.674725    0.000063
      5          6           0        0.262080    0.764483    0.000016
      6          6           0       -0.974977    1.447161    0.000008
      7          7           0        1.560107   -1.064463    0.000004
      8          6           0        1.645259    1.172993    0.000075
      9          6           0        2.429430    0.035582    0.000022
     10          1           0        1.863958   -2.030331    0.000902
     11          1           0        2.014492    2.190209   -0.000089
     12          1           0        3.502399   -0.091272   -0.000157
     13          1           0       -3.117280   -1.273511    0.000096
     14          1           0       -0.906128   -2.528466   -0.000063
     15          1           0       -3.131891    1.198706    0.000054
     16          1           0       -1.005079    2.533630    0.000189
 ---------------------------------------------------------------------
                    Distance matrix (angstroms):
                    1          2          3          4          5
     1  C    0.000000
     2  C    1.411992   0.000000
     3  C    2.456389   1.426274   0.000000
     4  C    2.772186   2.418525   1.407836   0.000000
     5  C    2.440632   2.860976   2.511901   1.439349   0.000000
     6  C    1.426472   2.488838   2.889410   2.446120   1.412925
     7  N    4.123914   3.750597   2.526812   1.374491   2.242748
     8  C    3.854088   4.269968   3.676038   2.320155   1.442243
     9  C    4.651232   4.668895   3.677658   2.299840   2.286636
    10  H    4.865306   4.243012   2.863387   2.113841   3.221335
    11  H    4.455599   5.109077   4.681055   3.368898   2.259124
    12  H    5.731478   5.714326   4.641623   3.312165   3.351416
    13  H    2.167248   1.085692   2.185446   3.412257   3.946327
    14  H    3.450243   2.199179   1.086927   2.180508   3.494027
    15  H    1.087025   2.155209   3.432941   3.859155   3.421636
    16  H    2.193759   3.469916   3.976207   3.442212   2.176137
                    6          7          8          9         10
     6  C    0.000000
     7  N    3.568600   0.000000
     8  C    2.634541   2.239076   0.000000
     9  C    3.685450   1.402078   1.381531   0.000000
    10  H    4.489154   1.012535   3.210781   2.141905   0.000000
    11  H    3.080430   3.286237   1.082156   2.194217   4.223223
    12  H    4.734308   2.172464   2.246627   1.080442   2.538590
    13  H    3.462877   4.682056   5.354172   5.699098   5.038403
    14  H    3.976223   2.868034   4.495595   4.207171   2.814518
    15  H    2.171177   5.209298   4.777220   5.681651   5.948545
    16  H    1.086887   4.418875   2.979199   4.246893   5.390836
                   11         12         13         14         15
    11  H    0.000000
    12  H    2.723788   0.000000
    13  H    6.191320   6.724421   0.000000
    14  H    5.549406   5.037362   2.542460   0.000000
    15  H    5.241025   6.758539   2.472260   4.341179   0.000000
    16  H    3.039037   5.216078   4.353817   5.063063   2.511047
                   16
    16  H    0.000000
 Stoichiometry    C8H7N
 Framework group  C1[X(C8H7N)]
 Deg. of freedom    42
 Full point group                 C1      NOp   1
 Largest Abelian subgroup         C1      NOp   1
 Largest concise Abelian subgroup C1      NOp   1
                         Standard orientation:                         
 ---------------------------------------------------------------------
 Center     Atomic      Atomic             Coordinates (Angstroms)
 Number     Number       Type             X           Y           Z
 ---------------------------------------------------------------------
      1          6           0       -2.168264    0.706867   -0.000012
      2          6           0       -2.185491   -0.705020   -0.000058
      3          6           0       -0.957424   -1.430354   -0.000029
      4          6           0        0.232889   -0.678585    0.000030
      5          6           0        0.271785    0.760238   -0.000018
      6          6           0       -0.956227    1.459055   -0.000025
      7          7           0        1.545751   -1.085549   -0.000030
      8          6           0        1.660195    1.150600    0.000042
      9          6           0        2.429405    0.003018   -0.000012
     10          1           0        1.836929   -2.055313    0.000869
     11          1           0        2.042716    2.162894   -0.000122
     12          1           0        3.500620   -0.137875   -0.000191
     13          1           0       -3.133972   -1.233331    0.000063
     14          1           0       -0.939442   -2.517132   -0.000096
     15          1           0       -3.116210    1.238865    0.000020
     16          1           0       -0.972099    2.545826    0.000155
 ---------------------------------------------------------------------
 Rotational constants (GHZ):           3.8316609           1.5989056           1.1281446
 Standard basis: 6-31G(d) (6D, 7F)
 There are   149 symmetry adapted cartesian basis functions of A   symmetry.
 There are   149 symmetry adapted basis functions of A   symmetry.
   149 basis functions,   280 primitive gaussians,   149 cartesian basis functions
    31 alpha electrons       31 beta electrons
       nuclear repulsion energy       396.5923681704 Hartrees.
 NAtoms=   16 NActive=   16 NUniq=   16 SFac= 1.00D+00 NAtFMM=   60 NAOKFM=F Big=F
 Integral buffers will be    131072 words long.
 Regular integral format.
 Two-electron integral symmetry is turned on.
 One-electron integrals computed using PRISM.
 NBasis=   149 RedAO= T EigKep=  4.58D-04  NBF=   149
 NBsUse=   149 1.00D-06 EigRej= -1.00D+00 NBFU=   149
 Initial guess from the checkpoint file:  "FuncsMN15.chk"
 B after Tr=    -0.000000   -0.000000   -0.000000
         Rot=    0.999981    0.000005    0.000004    0.006167 Ang=   0.71 deg.
 ExpMin= 1.61D-01 ExpMax= 4.17D+03 ExpMxC= 6.27D+02 IAcc=3 IRadAn=         5 AccDes= 0.00D+00
 Harris functional with IExCor= 1009 and IRadAn=       5 diagonalized for initial guess.
 HarFok:  IExCor= 1009 AccDes= 0.00D+00 IRadAn=         5 IDoV= 1 UseB2=F ITyADJ=14
 ICtDFT=  3500011 ScaDFX=  1.000000  1.000000  1.000000  1.000000
 FoFCou: FMM=F IPFlag=           0 FMFlag=      100000 FMFlg1=           0
         NFxFlg=           0 DoJE=T BraDBF=F KetDBF=T FulRan=T
         wScrn=  0.000000 ICntrl=       500 IOpCl=  0 I1Cent=   200000004 NGrid=           0
         NMat0=    1 NMatS0=      1 NMatT0=    0 NMatD0=    1 NMtDS0=    0 NMtDT0=    0
 Petite list used in FoFCou.
 Keep R1 ints in memory in canonical form, NReq=64402215.
 Requested convergence on RMS density matrix=1.00D-08 within 128 cycles.
 Requested convergence on MAX density matrix=1.00D-06.
 Requested convergence on             energy=1.00D-06.
 No special actions if energy rises.
 Integral accuracy reduced to 1.0D-05 until final iterations.
 Initial convergence to 1.0D-05 achieved.  Increase integral accuracy.
 SCF Done:  E(RMN15) =  -363.369794514     A.U. after   13 cycles
            NFock= 13  Conv=0.35D-08     -V/T= 2.0162
 DoSCS=F DFT=T ScalE2(SS,OS)=  1.000000  1.000000
 ExpMin= 1.61D-01 ExpMax= 4.17D+03 ExpMxC= 6.27D+02 IAcc=3 IRadAn=         5 AccDes= 0.00D+00
 HarFok:  IExCor=  205 AccDes= 0.00D+00 IRadAn=         5 IDoV=-2 UseB2=F ITyADJ=14
 ICtDFT= 12500011 ScaDFX=  1.000000  1.000000  1.000000  1.000000
 Range of M.O.s used for correlation:    10   149
 NBasis=   149 NAE=    31 NBE=    31 NFC=     9 NFV=     0
 NROrb=    140 NOA=    22 NOB=    22 NVA=   118 NVB=   118
 Orbital symmetries:
       Occupied  (A) (A) (A) (A) (A) (A) (A) (A) (A) (A) (A) (A)
                 (A) (A) (A) (A) (A) (A) (A) (A) (A) (A) (A) (A)
                 (A) (A) (A) (A) (A) (A) (A)
       Virtual   (A) (A) (A) (A) (A) (A) (A) (A) (A) (A) (A) (A)
                 (A) (A) (A) (A) (A) (A) (A) (A) (A) (A) (A) (A)
                 (A) (A) (A) (A) (A) (A) (A) (A) (A) (A) (A) (A)
                 (A) (A) (A) (A) (A) (A) (A) (A) (A) (A) (A) (A)
                 (A) (A) (A) (A) (A) (A) (A) (A) (A) (A) (A) (A)
                 (A) (A) (A) (A) (A) (A) (A) (A) (A) (A) (A) (A)
                 (A) (A) (A) (A) (A) (A) (A) (A) (A) (A) (A) (A)
                 (A) (A) (A) (A) (A) (A) (A) (A) (A) (A) (A) (A)
                 (A) (A) (A) (A) (A) (A) (A) (A) (A) (A) (A) (A)
                 (A) (A) (A) (A) (A) (A) (A) (A) (A) (A)
 Generating guess from densities on rwf.
 Convergence on wavefunction:    0.000001000000000
 Iteration     1 Dimension    12 NMult     0 NNew     12
 CISAX will form    12 AO SS matrices at one time.
 Iteration     2 Dimension    24 NMult    12 NNew     12
 Iteration     3 Dimension    36 NMult    24 NNew     12
 Iteration     4 Dimension    48 NMult    36 NNew     12
 Iteration     5 Dimension    60 NMult    48 NNew     12
 Iteration     6 Dimension    72 NMult    60 NNew     12
 Iteration     7 Dimension    84 NMult    72 NNew     12
 Iteration     8 Dimension    92 NMult    84 NNew      8
 Iteration     9 Dimension   100 NMult    92 NNew      8
 Iteration    10 Dimension   104 NMult   100 NNew      4
 Iteration    11 Dimension   106 NMult   104 NNew      2
 Iteration    12 Dimension   108 NMult   106 NNew      2
 Iteration    13 Dimension   110 NMult   108 NNew      2
 ***********************************************************************
 Excited states from <AA,BB:AA,BB> singles matrix:
 ***********************************************************************
 
 Ground to excited state transition densities written to RWF  633
 Ground to excited state transition electric dipole moments (Au):
       state          X           Y           Z        Dip. S.      Osc.
         1         0.0318     -0.6813     -0.0000      0.4651      0.0549
         2        -0.7734      0.3185     -0.0000      0.6996      0.0856
         3        -1.9330     -0.5343     -0.0000      4.0221      0.6266
         4         1.0978     -0.4263     -0.0000      1.3869      0.2237
         5         0.4195     -0.9766      0.0000      1.1297      0.1921
         6        -0.5408     -0.2046     -0.0000      0.3343      0.0593
 Ground to excited state transition velocity dipole moments (Au):
       state          X           Y           Z        Dip. S.      Osc.
         1        -0.0022      0.1358      0.0000      0.0185      0.0695
         2         0.1383     -0.0662     -0.0000      0.0235      0.0853
         3         0.4607      0.1329      0.0000      0.2299      0.6560
         4        -0.2688      0.1119      0.0000      0.0847      0.2335
         5        -0.1149      0.2554     -0.0000      0.0784      0.2051
         6         0.1422      0.0593     -0.0000      0.0237      0.0595
 Ground to excited state transition magnetic dipole moments (Au):
       state          X           Y           Z
         1        -0.0001     -0.0001     -0.0636
         2        -0.0000      0.0001     -0.1065
         3        -0.0001     -0.0000     -0.5292
         4        -0.0001     -0.0000      0.0558
         5         0.0000      0.0000     -0.5805
         6         0.0004      0.0000      1.1871
 Ground to excited state transition velocity quadrupole moments (Au):
       state          XX          YY          ZZ          XY          XZ          YZ
         1        -0.0939      0.0068      0.0119      0.0099      0.0000     -0.0000
         2         0.1952     -0.1990      0.0029     -0.0399     -0.0000     -0.0000
         3        -0.0318     -0.0644     -0.0155     -0.3665      0.0000     -0.0001
         4         0.3814     -0.0198      0.0366     -0.0836     -0.0000      0.0001
         5         0.5061     -0.0533      0.0047     -0.5980     -0.0000      0.0000
         6        -0.6057      0.2571      0.0256      0.8848     -0.0002      0.0004
 <0|del|b> * <b|rxdel|0> + <0|del|b> * <b|delr+rdel|0>
 Rotatory Strengths (R) in cgs (10**-40 erg-esu-cm/Gauss)
       state          XX          YY          ZZ    R(velocity)    E-M Angle
         1        -0.0532     -0.0016     -0.0247     -0.0265       90.00
         2        -0.0093     -0.0092     -0.0073     -0.0086       90.00
         3        -0.0236     -0.1156     -0.0006     -0.0466       90.00
         4         0.0023      0.0236      0.0582      0.0280       90.00
         5         0.0531     -0.0060      0.0035      0.0169       90.00
         6        -0.1052      0.1381     -0.0042      0.0096       90.00
 1/2[<0|r|b>*<b|rxdel|0> + (<0|rxdel|b>*<b|r|0>)*]
 Rotatory Strengths (R) in cgs (10**-40 erg-esu-cm/Gauss)
       state          XX          YY          ZZ     R(length)
         1         0.0027     -0.0681     -0.0013     -0.0222
         2        -0.0138     -0.0115     -0.0025     -0.0093
         3        -0.1045     -0.0142     -0.0045     -0.0411
         4         0.0884     -0.0049      0.0001      0.0279
         5        -0.0016      0.0210      0.0182      0.0125
         6         0.1643      0.0049      0.0303      0.0665
  1/2[<0|del|b>*<b|r|0> + (<0|r|b>*<b|del|0>)*] (Au)
       state          X           Y           Z        Dip. S.   Osc.(frdel)
         1        -0.0001     -0.0925     -0.0000      0.0926      0.0617
         2        -0.1070     -0.0211      0.0000      0.1280      0.0854
         3        -0.8906     -0.0710     -0.0000      0.9616      0.6411
         4        -0.2950     -0.0477     -0.0000      0.3427      0.2285
         5        -0.0482     -0.2495     -0.0000      0.2977      0.1984
         6        -0.0769     -0.0121      0.0000      0.0890      0.0594

 Excitation energies and oscillator strengths:
 
 Excited State   1:      Singlet-A      4.8149 eV  257.50 nm  f=0.0549  <S**2>=0.000
      30 -> 32        -0.39122
      30 -> 33         0.13899
      31 -> 32        -0.52189
      31 -> 33        -0.20809
 This state for optimization and/or second-order correction.
 Total Energy, E(TD-HF/TD-DFT) =  -363.192850669    
 Copying the excited state density for this state as the 1-particle RhoCI density.
 
 Excited State   2:      Singlet-A      4.9962 eV  248.16 nm  f=0.0856  <S**2>=0.000
      30 -> 32        -0.44331
      30 -> 33        -0.10376
      31 -> 32         0.42995
      31 -> 33        -0.31442
 
 Excited State   3:      Singlet-A      6.3591 eV  194.97 nm  f=0.6266  <S**2>=0.000
      29 -> 32        -0.12282
      30 -> 32        -0.35191
      30 -> 33        -0.16024
      31 -> 33         0.56694
 
 Excited State   4:      Singlet-A      6.5834 eV  188.33 nm  f=0.2237  <S**2>=0.000
      29 -> 32        -0.33821
      30 -> 32         0.10721
      30 -> 33        -0.56137
      31 -> 32        -0.11250
      31 -> 33        -0.17266
 
 Excited State   5:      Singlet-A      6.9398 eV  178.66 nm  f=0.1921  <S**2>=0.000
      29 -> 32         0.57215
      30 -> 33        -0.34265
      31 -> 32        -0.16232
      31 -> 34         0.13346
 
 Excited State   6:      Singlet-A      7.2351 eV  171.36 nm  f=0.0593  <S**2>=0.000
      29 -> 32        -0.13165
      30 -> 34         0.15079
      31 -> 34         0.66219
 SavETr:  write IOETrn=   770 NScale= 10 NData=  16 NLR=1 NState=    6 LETran=     118.
          IDoAtm=1111111111111111
          Differentiating once with respect to electric field.
                with respect to dipole field.
          Differentiating once with respect to nuclear coordinates.
 Keep R1 ints in memory in canonical form, NReq=64414501.
          There are     1 degrees of freedom in the 1st order CPHF.  IDoFFX=0 NUNeed=     1.
 LinEq1:  Iter=  0 NonCon=     1 RMS=7.04D-03 Max=1.63D-01 NDo=     1
 AX will form     1 AO Fock derivatives at one time.
 LinEq1:  Iter=  1 NonCon=     1 RMS=2.86D-03 Max=6.48D-02 NDo=     1
 LinEq1:  Iter=  2 NonCon=     1 RMS=1.77D-03 Max=3.70D-02 NDo=     1
 LinEq1:  Iter=  3 NonCon=     1 RMS=7.46D-04 Max=2.48D-02 NDo=     1
 LinEq1:  Iter=  4 NonCon=     1 RMS=3.87D-04 Max=1.33D-02 NDo=     1
 LinEq1:  Iter=  5 NonCon=     1 RMS=2.49D-04 Max=7.90D-03 NDo=     1
 LinEq1:  Iter=  6 NonCon=     1 RMS=1.07D-04 Max=2.95D-03 NDo=     1
 LinEq1:  Iter=  7 NonCon=     1 RMS=6.50D-05 Max=1.53D-03 NDo=     1
 LinEq1:  Iter=  8 NonCon=     1 RMS=2.41D-05 Max=5.48D-04 NDo=     1
 LinEq1:  Iter=  9 NonCon=     1 RMS=1.36D-05 Max=2.40D-04 NDo=     1
 LinEq1:  Iter= 10 NonCon=     1 RMS=5.67D-06 Max=8.94D-05 NDo=     1
 LinEq1:  Iter= 11 NonCon=     1 RMS=2.99D-06 Max=6.96D-05 NDo=     1
 LinEq1:  Iter= 12 NonCon=     1 RMS=1.15D-06 Max=2.39D-05 NDo=     1
 LinEq1:  Iter= 13 NonCon=     1 RMS=5.98D-07 Max=1.04D-05 NDo=     1
 LinEq1:  Iter= 14 NonCon=     1 RMS=1.97D-07 Max=3.81D-06 NDo=     1
 LinEq1:  Iter= 15 NonCon=     1 RMS=8.54D-08 Max=1.33D-06 NDo=     1
 LinEq1:  Iter= 16 NonCon=     1 RMS=4.05D-08 Max=9.10D-07 NDo=     1
 LinEq1:  Iter= 17 NonCon=     1 RMS=1.01D-08 Max=1.47D-07 NDo=     1
 LinEq1:  Iter= 18 NonCon=     1 RMS=5.36D-09 Max=9.09D-08 NDo=     1
 LinEq1:  Iter= 19 NonCon=     1 RMS=2.05D-09 Max=3.25D-08 NDo=     1
 LinEq1:  Iter= 20 NonCon=     1 RMS=4.26D-10 Max=6.68D-09 NDo=     1
 LinEq1:  Iter= 21 NonCon=     0 RMS=6.65D-11 Max=7.00D-10 NDo=     1
 Linear equations converged to 1.000D-10 1.000D-09 after    21 iterations.
 End of Minotr F.D. properties file   721 does not exist.
 End of Minotr F.D. properties file   722 does not exist.
 End of Minotr F.D. properties file   788 does not exist.
 Calling FoFJK, ICntrl=  10005127 FMM=F ISym2X=0 I1Cent= 0 IOpClX= 0 NMat=1 NMatS=1 NMatT=0.
 ***** Axes restored to original set *****
 -------------------------------------------------------------------
 Center     Atomic                   Forces (Hartrees/Bohr)
 Number     Number              X              Y              Z
 -------------------------------------------------------------------
      1        6          -0.000637577   -0.015131751   -0.000004909
      2        6          -0.006815971    0.014078084    0.000009721
      3        6           0.009985043   -0.002485368    0.000003799
      4        6          -0.001645744    0.002341638   -0.000013210
      5        6           0.001204579   -0.000951585    0.000001169
      6        6           0.004625775    0.003719914    0.000007963
      7        7          -0.004778333    0.002990841    0.000023295
      8        6          -0.007697332   -0.000639375   -0.000019763
      9        6           0.007010829   -0.002928826    0.000007821
     10        1           0.000419344   -0.001254936   -0.000015078
     11        1          -0.000292887    0.000436064    0.000003908
     12        1          -0.001286097   -0.001022487    0.000002310
     13        1           0.000771471    0.000131414   -0.000003877
     14        1           0.000175078    0.000279373   -0.000001039
     15        1           0.000188748    0.001027769    0.000000428
     16        1          -0.001226924   -0.000590769   -0.000002538
 -------------------------------------------------------------------
 Cartesian Forces:  Max     0.015131751 RMS     0.004039515

 GradGradGradGradGradGradGradGradGradGradGradGradGradGradGradGradGradGrad
 Berny optimization.
 Using GEDIIS/GDIIS optimizer.
 FormGI is forming the generalized inverse of G from B-inverse, IUseBI=4.
 Internal  Forces:  Max     0.011052059 RMS     0.001892694
 Search for a local minimum.
 Step number   2 out of a maximum of   94
 All quantities printed in internal units (Hartrees-Bohrs-Radians)
 Mixed Optimization -- RFO/linear search
 Update second derivatives using D2CorX and points    1    2
 DE= -4.70D-03 DEPred=-4.40D-03 R= 1.07D+00
 TightC=F SS=  1.41D+00  RLast= 1.51D-01 DXNew= 5.0454D-01 4.5372D-01
 Trust test= 1.07D+00 RLast= 1.51D-01 DXMaxT set to 4.54D-01
 ITU=  1  0
 Use linear search instead of GDIIS.
     Eigenvalues ---    0.01788   0.01867   0.01928   0.01947   0.02010
     Eigenvalues ---    0.02041   0.02077   0.02083   0.02098   0.02136
     Eigenvalues ---    0.02160   0.02172   0.02277   0.15817   0.16000
     Eigenvalues ---    0.16000   0.16000   0.16000   0.16000   0.16032
     Eigenvalues ---    0.19783   0.22043   0.22758   0.24125   0.24714
     Eigenvalues ---    0.35093   0.35146   0.35168   0.35186   0.35679
     Eigenvalues ---    0.35826   0.36175   0.37975   0.38540   0.42018
     Eigenvalues ---    0.43689   0.45701   0.46314   0.46368   0.46842
     Eigenvalues ---    0.49939   0.56514
 RFO step:  Lambda=-8.69737973D-04 EMin= 1.78839443D-02
 Quartic linear search produced a step of  0.12051.
 Iteration  1 RMS(Cart)=  0.00824876 RMS(Int)=  0.00004478
 Iteration  2 RMS(Cart)=  0.00005151 RMS(Int)=  0.00001789
 Iteration  3 RMS(Cart)=  0.00000000 RMS(Int)=  0.00001789
 Variable       Old X    -DE/DX   Delta X   Delta X   Delta X     New X
                                 (Linear)    (Quad)   (Total)
    R1        2.66828  -0.01105   0.00033  -0.02805  -0.02772   2.64055
    R2        2.69564   0.00298   0.00864   0.00572   0.01437   2.71001
    R3        2.05418   0.00033   0.00003   0.00103   0.00106   2.05524
    R4        2.69527   0.00583   0.00827   0.01253   0.02080   2.71606
    R5        2.05166  -0.00073  -0.00020  -0.00230  -0.00250   2.04916
    R6        2.66043  -0.00492   0.00200  -0.01240  -0.01042   2.65001
    R7        2.05399  -0.00027  -0.00005  -0.00086  -0.00091   2.05308
    R8        2.71997  -0.00308   0.00352  -0.01007  -0.00659   2.71338
    R9        2.59741  -0.00320  -0.00144  -0.00768  -0.00912   2.58829
   R10        2.67004  -0.00155   0.00150  -0.00419  -0.00267   2.66737
   R11        2.72544  -0.00372   0.00114  -0.01053  -0.00942   2.71602
   R12        2.05392  -0.00056  -0.00005  -0.00176  -0.00181   2.05211
   R13        2.64954  -0.00093   0.00427  -0.00223   0.00208   2.65162
   R14        1.91341   0.00132   0.00106   0.00303   0.00409   1.91750
   R15        2.61071   0.00435   0.00271   0.01007   0.01281   2.62352
   R16        2.04498   0.00031   0.00017   0.00094   0.00111   2.04609
   R17        2.04174  -0.00116  -0.00020  -0.00358  -0.00377   2.03796
    A1        2.13842   0.00183   0.00296   0.00893   0.01189   2.15032
    A2        2.07001   0.00010  -0.00130   0.00261   0.00131   2.07131
    A3        2.07475  -0.00193  -0.00166  -0.01154  -0.01320   2.06155
    A4        2.09210  -0.00067  -0.00280  -0.00292  -0.00574   2.08636
    A5        2.09121   0.00061   0.00082   0.00347   0.00430   2.09550
    A6        2.09988   0.00006   0.00198  -0.00055   0.00144   2.10132
    A7        2.04478  -0.00089  -0.00070  -0.00476  -0.00551   2.03927
    A8        2.12084   0.00064   0.00077   0.00364   0.00442   2.12527
    A9        2.11756   0.00026  -0.00006   0.00113   0.00108   2.11865
   A10        2.16113   0.00138   0.00310   0.00662   0.00972   2.17085
   A11        2.27769  -0.00296  -0.00001  -0.01134  -0.01132   2.26637
   A12        1.84436   0.00158  -0.00310   0.00472   0.00160   1.84596
   A13        2.06113  -0.00022  -0.00125  -0.00048  -0.00169   2.05944
   A14        1.87190  -0.00048   0.00080  -0.00379  -0.00306   1.86885
   A15        2.35015   0.00069   0.00045   0.00427   0.00475   2.35490
   A16        2.06880  -0.00143  -0.00131  -0.00738  -0.00868   2.06013
   A17        2.11162  -0.00056   0.00094  -0.00524  -0.00431   2.10731
   A18        2.10276   0.00199   0.00037   0.01262   0.01298   2.11574
   A19        1.95208   0.00102   0.00533   0.00414   0.00951   1.96158
   A20        2.16308  -0.00049  -0.00309  -0.00185  -0.00496   2.15811
   A21        2.16803  -0.00053  -0.00224  -0.00228  -0.00454   2.16349
   A22        1.88722   0.00111   0.00209   0.00742   0.00950   1.89672
   A23        2.20617  -0.00099  -0.00108  -0.00672  -0.00780   2.19837
   A24        2.18980  -0.00012  -0.00101  -0.00069  -0.00170   2.18810
   A25        1.86922  -0.00323  -0.00513  -0.01248  -0.01755   1.85167
   A26        2.12189   0.00043   0.00263  -0.00206   0.00054   2.12243
   A27        2.29208   0.00281   0.00250   0.01454   0.01701   2.30908
    D1        0.00007  -0.00000  -0.00002  -0.00007  -0.00009  -0.00001
    D2        3.14148   0.00000   0.00000   0.00007   0.00007   3.14155
    D3       -3.14153  -0.00000  -0.00001  -0.00005  -0.00006   3.14159
    D4       -0.00013   0.00000   0.00001   0.00008   0.00010  -0.00003
    D5       -0.00005   0.00000   0.00002   0.00007   0.00009   0.00003
    D6       -3.14144  -0.00000  -0.00000  -0.00005  -0.00005  -3.14148
    D7        3.14155   0.00000   0.00001   0.00005   0.00006  -3.14157
    D8        0.00017  -0.00000  -0.00001  -0.00006  -0.00007   0.00010
    D9       -0.00001   0.00000   0.00000   0.00004   0.00005   0.00004
   D10       -3.14156   0.00000   0.00000   0.00004   0.00005  -3.14151
   D11       -3.14142  -0.00000  -0.00001  -0.00010  -0.00011  -3.14153
   D12        0.00023  -0.00000  -0.00001  -0.00010  -0.00011   0.00011
   D13       -0.00007  -0.00000   0.00000  -0.00002  -0.00002  -0.00008
   D14       -3.14150  -0.00000  -0.00001  -0.00013  -0.00015   3.14154
   D15        3.14148  -0.00000   0.00000  -0.00002  -0.00002   3.14146
   D16        0.00005  -0.00000  -0.00001  -0.00013  -0.00015  -0.00010
   D17        0.00008   0.00000   0.00000   0.00002   0.00002   0.00010
   D18       -3.14157   0.00000  -0.00001   0.00005   0.00004  -3.14153
   D19        3.14155   0.00000   0.00002   0.00011   0.00012  -3.14151
   D20       -0.00011   0.00000   0.00001   0.00013   0.00014   0.00003
   D21        3.14153   0.00000  -0.00004   0.00011   0.00006  -3.14159
   D22       -0.00119   0.00001   0.00004   0.00039   0.00043  -0.00076
   D23        0.00008   0.00000  -0.00006   0.00001  -0.00005   0.00003
   D24        3.14054   0.00001   0.00003   0.00030   0.00032   3.14086
   D25       -0.00002  -0.00000  -0.00001  -0.00004  -0.00005  -0.00007
   D26        3.14136   0.00000   0.00001   0.00007   0.00008   3.14144
   D27       -3.14153  -0.00000  -0.00000  -0.00008  -0.00008   3.14158
   D28       -0.00014   0.00000   0.00002   0.00003   0.00005  -0.00009
   D29        0.00010  -0.00000   0.00004  -0.00023  -0.00019  -0.00009
   D30        3.14142   0.00000   0.00001   0.00004   0.00005   3.14147
   D31       -3.14157  -0.00000   0.00003  -0.00020  -0.00016   3.14145
   D32       -0.00025   0.00000   0.00000   0.00008   0.00008  -0.00018
   D33       -0.00001  -0.00000   0.00009  -0.00016  -0.00007  -0.00009
   D34       -3.14144  -0.00000   0.00005  -0.00003   0.00002  -3.14142
   D35       -3.14047  -0.00001   0.00001  -0.00045  -0.00044  -3.14092
   D36        0.00128  -0.00001  -0.00003  -0.00032  -0.00035   0.00093
   D37       -0.00005   0.00000  -0.00008   0.00024   0.00016   0.00010
   D38        3.14135   0.00000  -0.00003   0.00009   0.00005   3.14140
   D39       -3.14138  -0.00000  -0.00005  -0.00003  -0.00008  -3.14146
   D40        0.00003  -0.00000  -0.00000  -0.00018  -0.00019  -0.00016
         Item               Value     Threshold  Converged?
 Maximum Force            0.011052     0.000450     NO 
 RMS     Force            0.001893     0.000300     NO 
 Maximum Displacement     0.032261     0.001800     NO 
 RMS     Displacement     0.008251     0.001200     NO 
 Predicted change in Energy=-4.831828D-04
 GradGradGradGradGradGradGradGradGradGradGradGradGradGradGradGradGradGrad

                          Input orientation:                          
 ---------------------------------------------------------------------
 Center     Atomic      Atomic             Coordinates (Angstroms)
 Number     Number       Type             X           Y           Z
 ---------------------------------------------------------------------
      1          6           0       -2.174820    0.668756    0.000048
      2          6           0       -2.177873   -0.728562    0.000036
      3          6           0       -0.928971   -1.439909    0.000009
      4          6           0        0.240496   -0.666048    0.000041
      5          6           0        0.262734    0.769639   -0.000000
      6          6           0       -0.973181    1.451464    0.000052
      7          7           0        1.552715   -1.058558    0.000081
      8          6           0        1.642995    1.170372   -0.000029
      9          6           0        2.436589    0.031247    0.000108
     10          1           0        1.849348   -2.028930    0.000731
     11          1           0        2.009185    2.189312   -0.000168
     12          1           0        3.505961   -0.108344   -0.000016
     13          1           0       -3.117545   -1.269735    0.000077
     14          1           0       -0.889086   -2.525621   -0.000078
     15          1           0       -3.127854    1.192750    0.000067
     16          1           0       -1.017494    2.536487    0.000162
 ---------------------------------------------------------------------
                    Distance matrix (angstroms):
                    1          2          3          4          5
     1  C    0.000000
     2  C    1.397321   0.000000
     3  C    2.449205   1.437279   0.000000
     4  C    2.759611   2.419177   1.402324   0.000000
     5  C    2.439641   2.863768   2.510431   1.435859   0.000000
[...]
 ! A26   A(7,9,12)             122.8031         -DE/DX =   -0.0001              !
 ! A27   A(8,9,12)             131.0456         -DE/DX =    0.0001              !
 ! D1    D(6,1,2,3)              0.0007         -DE/DX =    0.0                 !
 ! D2    D(6,1,2,13)           180.0007         -DE/DX =    0.0                 !
 ! D3    D(15,1,2,3)          -180.0008         -DE/DX =    0.0                 !
 ! D4    D(15,1,2,13)           -0.0009         -DE/DX =    0.0                 !
 ! D5    D(2,1,6,5)             -0.0004         -DE/DX =    0.0                 !
 ! D6    D(2,1,6,16)           179.9958         -DE/DX =    0.0                 !
 ! D7    D(15,1,6,5)           180.0011         -DE/DX =    0.0                 !
 ! D8    D(15,1,6,16)           -0.0027         -DE/DX =    0.0                 !
 ! D9    D(1,2,3,4)             -0.0014         -DE/DX =    0.0                 !
 ! D10   D(1,2,3,14)           180.0            -DE/DX =    0.0                 !
 ! D11   D(13,2,3,4)           179.9987         -DE/DX =    0.0                 !
 ! D12   D(13,2,3,14)            0.0001         -DE/DX =    0.0                 !
 ! D13   D(2,3,4,5)              0.0019         -DE/DX =    0.0                 !
 ! D14   D(2,3,4,7)            179.9937         -DE/DX =    0.0                 !
 ! D15   D(14,3,4,5)          -179.9995         -DE/DX =    0.0                 !
 ! D16   D(14,3,4,7)            -0.0077         -DE/DX =    0.0                 !
 ! D17   D(3,4,5,6)             -0.0017         -DE/DX =    0.0                 !
 ! D18   D(3,4,5,8)            179.9971         -DE/DX =    0.0                 !
 ! D19   D(7,4,5,6)           -179.9951         -DE/DX =    0.0                 !
 ! D20   D(7,4,5,8)              0.0038         -DE/DX =    0.0                 !
 ! D21   D(3,4,7,9)            180.0112         -DE/DX =    0.0                 !
 ! D22   D(3,4,7,10)             0.0284         -DE/DX =    0.0                 !
 ! D23   D(5,4,7,9)              0.0042         -DE/DX =    0.0                 !
 ! D24   D(5,4,7,10)          -179.9786         -DE/DX =    0.0                 !
 ! D25   D(4,5,6,1)              0.0009         -DE/DX =    0.0                 !
 ! D26   D(4,5,6,16)          -179.9954         -DE/DX =    0.0                 !
 ! D27   D(8,5,6,1)           -179.9976         -DE/DX =    0.0                 !
 ! D28   D(8,5,6,16)             0.0062         -DE/DX =    0.0                 !
 ! D29   D(4,5,8,9)             -0.0099         -DE/DX =    0.0                 !
 ! D30   D(4,5,8,11)          -179.9947         -DE/DX =    0.0                 !
 ! D31   D(6,5,8,9)           -180.0113         -DE/DX =    0.0                 !
 ! D32   D(6,5,8,11)             0.0039         -DE/DX =    0.0                 !
 ! D33   D(4,7,9,8)             -0.0102         -DE/DX =    0.0                 !
 ! D34   D(4,7,9,12)          -179.9985         -DE/DX =    0.0                 !
 ! D35   D(10,7,9,8)           179.9724         -DE/DX =    0.0                 !
 ! D36   D(10,7,9,12)           -0.0159         -DE/DX =    0.0                 !
 ! D37   D(5,8,9,7)              0.0124         -DE/DX =    0.0                 !
 ! D38   D(5,8,9,12)           179.9993         -DE/DX =    0.0                 !
 ! D39   D(11,8,9,7)           179.9976         -DE/DX =    0.0                 !
 ! D40   D(11,8,9,12)           -0.0154         -DE/DX =    0.0                 !
 --------------------------------------------------------------------------------
 GradGradGradGradGradGradGradGradGradGradGradGradGradGradGradGradGradGrad

                          Input orientation:                          
 ---------------------------------------------------------------------
 Center     Atomic      Atomic             Coordinates (Angstroms)
 Number     Number       Type             X           Y           Z
 ---------------------------------------------------------------------
      1          6           0       -2.184303    0.683634    0.000054
      2          6           0       -2.157136   -0.696411    0.000121
      3          6           0       -0.910526   -1.442147    0.000133
      4          6           0        0.241401   -0.656416    0.000041
      5          6           0        0.244034    0.753110   -0.000018
      6          6           0       -0.992702    1.466799   -0.000023
      7          7           0        1.591491   -1.063222    0.000147
      8          6           0        1.603970    1.159975   -0.000036
      9          6           0        2.431592   -0.008885    0.000249
     10          1           0        1.883923   -2.034598   -0.000109
     11          1           0        1.979470    2.175824    0.000001
     12          1           0        3.505961   -0.116971    0.000314
     13          1           0       -3.090687   -1.253755    0.000168
     14          1           0       -0.888659   -2.526557    0.000185
     15          1           0       -3.145596    1.192449    0.000035
     16          1           0       -1.019031    2.551490   -0.000143
 ---------------------------------------------------------------------
                    Distance matrix (angstroms):
                    1          2          3          4          5
     1  C    0.000000
     2  C    1.380313   0.000000
     3  C    2.478196   1.452639   0.000000
     4  C    2.771240   2.398871   1.394385   0.000000
     5  C    2.429331   2.804770   2.480356   1.409529   0.000000
     6  C    1.425925   2.456703   2.910107   2.455820   1.427889
     7  N    4.160304   3.766531   2.530548   1.410048   2.261571
     8  C    3.818103   4.194293   3.618526   2.270654   1.419495
     9  C    4.667555   4.639948   3.636481   2.283907   2.316473
    10  H    4.892775   4.256865   2.856561   2.144123   3.234278
    11  H    4.423080   5.035995   4.630529   3.323021   2.244070
    12  H    5.746310   5.692664   4.611015   3.308830   3.375975
    13  H    2.138928   1.087267   2.188286   3.385207   3.892027
    14  H    3.461794   2.226761   1.084630   2.185054   3.469756
    15  H    1.087648   2.131865   3.454944   3.858763   3.417984
    16  H    2.201533   3.441533   3.995112   3.446643   2.197613
                    6          7          8          9         10
     6  C    0.000000
     7  N    3.616499   0.000000
     8  C    2.614736   2.223232   0.000000
     9  C    3.728730   1.348108   1.432198   0.000000
    10  H    4.531529   1.014439   3.206816   2.098441   0.000000
    11  H    3.055572   3.262200   1.083028   2.231001   4.211506
    12  H    4.769308   2.135553   2.290886   1.079793   2.511634
    13  H    3.435544   4.686054   5.278816   5.660854   5.035520
    14  H    3.994711   2.879669   4.450137   4.166862   2.815890
    15  H    2.170305   5.246718   4.749677   5.705106   5.975776
    16  H    1.085011   4.458809   2.969250   4.296780   5.427646
                   11         12         13         14         15
    11  H    0.000000
    12  H    2.754466   0.000000
    13  H    6.121153   6.693882   0.000000
    14  H    5.508044   5.011866   2.543413   0.000000
    15  H    5.218556   6.779218   2.446821   4.350261   0.000000
    16  H    3.021941   5.253212   4.332627   5.079721   2.523742
                   16
    16  H    0.000000
 Stoichiometry    C8H7N
 Framework group  C1[X(C8H7N)]
 Deg. of freedom    42
 Full point group                 C1      NOp   1
 Largest Abelian subgroup         C1      NOp   1
 Largest concise Abelian subgroup C1      NOp   1
                         Standard orientation:                         
 ---------------------------------------------------------------------
 Center     Atomic      Atomic             Coordinates (Angstroms)
 Number     Number       Type             X           Y           Z
 ---------------------------------------------------------------------
      1          6           0       -2.195512    0.646270   -0.000020
      2          6           0       -2.145856   -0.733150    0.000047
      3          6           0       -0.887256   -1.458468    0.000059
      4          6           0        0.251711   -0.654066   -0.000033
      5          6           0        0.231370    0.755316   -0.000093
      6          6           0       -1.016834    1.448753   -0.000097
      7          7           0        1.608253   -1.038813    0.000072
      8          6           0        1.584494    1.184292   -0.000110
      9          6           0        2.431057    0.029077    0.000174
     10          1           0        1.916478   -2.005294   -0.000183
     11          1           0        1.943387    2.206126   -0.000074
     12          1           0        3.507046   -0.061484    0.000240
     13          1           0       -3.070199   -1.305635    0.000094
     14          1           0       -0.847718   -2.542377    0.000111
     15          1           0       -3.164971    1.139350   -0.000039
     16          1           0       -1.060838    2.532871   -0.000217
 ---------------------------------------------------------------------
 Rotational constants (GHZ):           3.8556922           1.6045044           1.1330133

 **********************************************************************

            Population analysis using the CI Density.

 **********************************************************************

 Orbital symmetries:
       Occupied  (A) (A) (A) (A) (A) (A) (A) (A) (A) (A) (A) (A)
                 (A) (A) (A) (A) (A) (A) (A) (A) (A) (A) (A) (A)
                 (A) (A) (A) (A) (A) (A) (A)
       Virtual   (A) (A) (A) (A) (A) (A) (A) (A) (A) (A) (A) (A)
                 (A) (A) (A) (A) (A) (A) (A) (A) (A) (A) (A) (A)
                 (A) (A) (A) (A) (A) (A) (A) (A) (A) (A) (A) (A)
                 (A) (A) (A) (A) (A) (A) (A) (A) (A) (A) (A) (A)
                 (A) (A) (A) (A) (A) (A) (A) (A) (A) (A) (A) (A)
                 (A) (A) (A) (A) (A) (A) (A) (A) (A) (A) (A) (A)
                 (A) (A) (A) (A) (A) (A) (A) (A) (A) (A) (A) (A)
                 (A) (A) (A) (A) (A) (A) (A) (A) (A) (A) (A) (A)
                 (A) (A) (A) (A) (A) (A) (A) (A) (A) (A) (A) (A)
                 (A) (A) (A) (A) (A) (A) (A) (A) (A) (A)
 The electronic state is 1-A.
 Alpha  occ. eigenvalues --  -14.16488 -10.10391 -10.09668 -10.07247 -10.06587
 Alpha  occ. eigenvalues --  -10.06339 -10.06107 -10.05858 -10.05030  -1.01515
 Alpha  occ. eigenvalues --   -0.87034  -0.80761  -0.77081  -0.73785  -0.65978
 Alpha  occ. eigenvalues --   -0.62637  -0.60729  -0.57258  -0.51326  -0.50351
 Alpha  occ. eigenvalues --   -0.46750  -0.46122  -0.45995  -0.43162  -0.42126
 Alpha  occ. eigenvalues --   -0.37588  -0.37213  -0.36704  -0.30027  -0.25500
 Alpha  occ. eigenvalues --   -0.21491
 Alpha virt. eigenvalues --    0.01146   0.06445   0.10363   0.12815   0.14743
 Alpha virt. eigenvalues --    0.18150   0.19119   0.21304   0.22055   0.22233
 Alpha virt. eigenvalues --    0.23422   0.26403   0.28783   0.31044   0.32649
 Alpha virt. eigenvalues --    0.36480   0.37898   0.41618   0.47506   0.53155
 Alpha virt. eigenvalues --    0.54906   0.55219   0.56710   0.57468   0.58811
 Alpha virt. eigenvalues --    0.60122   0.61156   0.62040   0.62383   0.64472
 Alpha virt. eigenvalues --    0.64699   0.64895   0.65597   0.66200   0.68585
 Alpha virt. eigenvalues --    0.72299   0.74474   0.80934   0.84388   0.84973
 Alpha virt. eigenvalues --    0.84979   0.87790   0.88493   0.89268   0.90328
 Alpha virt. eigenvalues --    0.92213   0.93942   0.96289   0.98996   0.99649
 Alpha virt. eigenvalues --    1.01367   1.06628   1.08740   1.14085   1.14937
 Alpha virt. eigenvalues --    1.21612   1.24215   1.27489   1.31065   1.33035
 Alpha virt. eigenvalues --    1.35107   1.38584   1.40937   1.42841   1.46729
 Alpha virt. eigenvalues --    1.47887   1.49038   1.49733   1.51890   1.54379
 Alpha virt. eigenvalues --    1.60841   1.75130   1.76857   1.80147   1.88077
 Alpha virt. eigenvalues --    1.88171   1.89248   1.92666   1.93422   1.96512
 Alpha virt. eigenvalues --    1.97621   1.98967   2.06859   2.08379   2.11146
 Alpha virt. eigenvalues --    2.11922   2.17868   2.18768   2.20274   2.23444
 Alpha virt. eigenvalues --    2.24241   2.32081   2.35288   2.35420   2.42553
 Alpha virt. eigenvalues --    2.50619   2.53008   2.55506   2.57616   2.58814
 Alpha virt. eigenvalues --    2.65667   2.68682   2.72760   2.75520   2.83090
 Alpha virt. eigenvalues --    2.88760   2.97466   3.12498   3.29958   3.95042
 Alpha virt. eigenvalues --    4.01819   4.03815   4.07617   4.13846   4.25534
 Alpha virt. eigenvalues --    4.32225   4.37615   4.65781
          Condensed to atoms (all electrons):
               1          2          3          4          5          6
     1  C    4.859186   0.598341  -0.042344  -0.035100   0.006030   0.440659
     2  C    0.598341   4.914902   0.393608   0.019401  -0.031392  -0.037108
     3  C   -0.042344   0.393608   5.188755   0.493080  -0.067880  -0.032856
     4  C   -0.035100   0.019401   0.493080   4.753693   0.505731  -0.052558
     5  C    0.006030  -0.031392  -0.067880   0.505731   4.696555   0.460808
     6  C    0.440659  -0.037108  -0.032856  -0.052558   0.460808   5.182660
     7  N    0.000193   0.004973  -0.084201   0.239193  -0.031942   0.008241
     8  C    0.007827   0.000245   0.012430  -0.014154   0.438269  -0.090404
     9  C   -0.000400  -0.000255   0.006355  -0.106449  -0.032630   0.010754
    10  H   -0.000002  -0.000026  -0.003758  -0.019769   0.005596  -0.000082
    11  H    0.000007   0.000008  -0.000146   0.006663  -0.024295  -0.005165
    12  H    0.000002   0.000001  -0.000101   0.004190   0.001838  -0.000087
    13  H   -0.034496   0.357428  -0.038644   0.002998   0.000935   0.004521
    14  H    0.003941  -0.033145   0.351736  -0.037091   0.004829   0.000481
    15  H    0.359047  -0.037819   0.004821   0.000728   0.003130  -0.037629
    16  H   -0.038980   0.004513   0.000521   0.005327  -0.038344   0.356254
               7          8          9         10         11         12
     1  C    0.000193   0.007827  -0.000400  -0.000002   0.000007   0.000002
     2  C    0.004973   0.000245  -0.000255  -0.000026   0.000008   0.000001
     3  C   -0.084201   0.012430   0.006355  -0.003758  -0.000146  -0.000101
     4  C    0.239193  -0.014154  -0.106449  -0.019769   0.006663   0.004190
     5  C   -0.031942   0.438269  -0.032630   0.005596  -0.024295   0.001838
     6  C    0.008241  -0.090404   0.010754  -0.000082  -0.005165  -0.000087
     7  N    6.866763  -0.065506   0.374627   0.319285   0.004115  -0.041330
     8  C   -0.065506   5.172827   0.407883   0.005127   0.364008  -0.026969
     9  C    0.374627   0.407883   4.976942  -0.031154  -0.047157   0.374477
    10  H    0.319285   0.005127  -0.031154   0.378592  -0.000080  -0.002593
    11  H    0.004115   0.364008  -0.047157  -0.000080   0.545614  -0.001016
    12  H   -0.041330  -0.026969   0.374477  -0.002593  -0.001016   0.525316
    13  H   -0.000100   0.000004   0.000002  -0.000001  -0.000000  -0.000000
    14  H   -0.006326  -0.000310   0.000029   0.002511   0.000002   0.000002
    15  H    0.000001  -0.000156   0.000004  -0.000000  -0.000001  -0.000000
    16  H   -0.000124  -0.007137  -0.000017   0.000003   0.002049  -0.000000
              13         14         15         16
     1  C   -0.034496   0.003941   0.359047  -0.038980
     2  C    0.357428  -0.033145  -0.037819   0.004513
     3  C   -0.038644   0.351736   0.004821   0.000521
     4  C    0.002998  -0.037091   0.000728   0.005327
     5  C    0.000935   0.004829   0.003130  -0.038344
     6  C    0.004521   0.000481  -0.037629   0.356254
     7  N   -0.000100  -0.006326   0.000001  -0.000124
     8  C    0.000004  -0.000310  -0.000156  -0.007137
     9  C    0.000002   0.000029   0.000004  -0.000017
    10  H   -0.000001   0.002511  -0.000000   0.000003
    11  H   -0.000000   0.000002  -0.000001   0.002049
    12  H   -0.000000   0.000002  -0.000000  -0.000000
    13  H    0.616556  -0.004902  -0.007211  -0.000149
    14  H   -0.004902   0.627857  -0.000133   0.000011
    15  H   -0.007211  -0.000133   0.620096  -0.005305
    16  H   -0.000149   0.000011  -0.005305   0.627955
 Mulliken charges:
               1
     1  C   -0.123912
     2  C   -0.153676
     3  C   -0.181375
     4  C    0.234116
     5  C    0.102763
     6  C   -0.208490
     7  N   -0.587864
     8  C   -0.203984
     9  C    0.066990
    10  H    0.346351
    11  H    0.155393
    12  H    0.166271
    13  H    0.103059
    14  H    0.090507
    15  H    0.100428
    16  H    0.093422
 Sum of Mulliken charges =  -0.00000
 Mulliken charges with hydrogens summed into heavy atoms:
               1
     1  C   -0.023484
     2  C   -0.050617
     3  C   -0.090868
     4  C    0.234116
     5  C    0.102763
     6  C   -0.115068
     7  N   -0.241513
     8  C   -0.048591
     9  C    0.233261
 Electronic spatial extent (au):  <R**2>=           1020.3670
 Charge=             -0.0000 electrons
 Dipole moment (field-independent basis, Debye):
    X=              4.3171    Y=             -1.3942    Z=             -0.0003  Tot=              4.5367
 Quadrupole moment (field-independent basis, Debye-Ang):
   XX=            -42.8019   YY=            -44.7251   ZZ=            -56.8720
   XY=             -2.6372   XZ=             -0.0003   YZ=              0.0004
 Traceless Quadrupole moment (field-independent basis, Debye-Ang):
   XX=              5.3311   YY=              3.4079   ZZ=             -8.7390
   XY=             -2.6372   XZ=             -0.0003   YZ=              0.0004
 Octapole moment (field-independent basis, Debye-Ang**2):
  XXX=             29.4238  YYY=             -9.6813  ZZZ=              0.0000  XYY=             14.3270
  XXY=             -7.2736  XXZ=              0.0006  XZZ=              4.3163  YZZ=             -1.4610
  YYZ=             -0.0021  XYZ=              0.0019
 Hexadecapole moment (field-independent basis, Debye-Ang**3):
 XXXX=           -803.8993 YYYY=           -373.5942 ZZZZ=            -58.7045 XXXY=            -18.7934
 XXXZ=             -0.0024 YYYX=            -17.6881 YYYZ=              0.0106 ZZZX=             -0.0067
 ZZZY=              0.0116 XXYY=           -191.4302 XXZZ=           -178.9855 YYZZ=            -88.4935
 XXYZ=              0.0048 YYXZ=             -0.0051 ZZXY=             -2.5455
 N-N= 3.974495171142D+02 E-N=-1.635161163644D+03  KE= 3.577971859795D+02
 Unable to Open any file for archive entry.
 1\1\GINC-COMET-07-23\FOpt\RMN15 TD-FC\6-31G(d)\C8H7N1\SCAPARAS\14-Feb-
 2021\0\\# td= (nstates=6, root=1) MN15/6-31G(d) Opt density=current\\F
 uncsMN15\\0,1\C,-2.1843030235,0.6836341124,0.0000543268\C,-2.157136462
 3,-0.696411446,0.0001213866\C,-0.9105262509,-1.4421474695,0.000132997\
 C,0.2414007863,-0.656415871,0.0000414144\C,0.2440339762,0.7531102,-0.0
 000183677\C,-0.9927017941,1.466799384,-0.00002274\N,1.5914911709,-1.06
 32223682,0.0001466666\C,1.6039699831,1.159975002,-0.0000361118\C,2.431
 5916165,-0.0088848766,0.0002485144\H,1.8839228943,-2.0345978241,-0.000
 1085568\H,1.9794696604,2.1758240604,0.0000005958\H,3.505961278,-0.1169
 705022,0.0003143307\H,-3.0906874326,-1.2537554963,0.0001682488\H,-0.88
 86592514,-2.5265568498,0.0001854884\H,-3.1455963811,1.1924494698,0.000
 0349153\H,-1.01903077,2.551490475,-0.0001431087\\Version=ES64L-G16RevC
 .01\State=1-A\HF=-363.3626246\RMSD=4.919e-09\RMSF=9.838e-05\Dipole=1.6
 9848,-0.5485281,-0.0001042\Quadrupole=3.9635474,2.5336798,-6.4972272,-
 1.9606905,-0.0002361,0.0003082\PG=C01 [X(C8H7N1)]\\@
 The archive entry for this job was punched.


  THE LARGE PRINT GIVETH,
  AND THE SMALL PRINT TAKETH AWAY.

                     -- TOM WAITS
 Job cpu time:       0 days  2 hours 53 minutes 58.9 seconds.
 Elapsed time:       0 days  1 hours 27 minutes 20.7 seconds.
 File lengths (MBytes):  RWF=    202 Int=      0 D2E=      0 Chk=      8 Scr=      1
 Normal termination of Gaussian 16 at Sun Feb 14 22:44:59 2021.
