 Entering Gaussian System, Link 0=/cm/shared/apps/spack/cpu/opt/spack/linux-centos8-zen/gcc-8.3.1/gaussian-16.C.01-po5bqktfeugvmjyga3v7eigbecnokxng/g16/g16
 Initial command:
 /cm/shared/apps/spack/cpu/opt/spack/linux-centos8-zen/gcc-8.3.1/gaussian-16.C.01-po5bqktfeugvmjyga3v7eigbecnokxng/g16/l1.exe "/scratch/cwaldt/job_3576973/Gau-21497.inp" -scrdir="/scratch/cwaldt/job_3576973/"
 Entering Link 1 = /cm/shared/apps/spack/cpu/opt/spack/linux-centos8-zen/gcc-8.3.1/gaussian-16.C.01-po5bqktfeugvmjyga3v7eigbecnokxng/g16/l1.exe PID=     21498.
  
 Copyright (c) 1988-2019, Gaussian, Inc.  All Rights Reserved.
  
 This is part of the Gaussian(R) 16 program.  It is based on
 the Gaussian(R) 09 system (copyright 2009, Gaussian, Inc.),
 the Gaussian(R) 03 system (copyright 2003, Gaussian, Inc.),
 the Gaussian(R) 98 system (copyright 1998, Gaussian, Inc.),
 the Gaussian(R) 94 system (copyright 1995, Gaussian, Inc.),
 the Gaussian 92(TM) system (copyright 1992, Gaussian, Inc.),
 the Gaussian 90(TM) system (copyright 1990, Gaussian, Inc.),
 the Gaussian 88(TM) system (copyright 1988, Gaussian, Inc.),
 the Gaussian 86(TM) system (copyright 1986, Carnegie Mellon
 University), and the Gaussian 82(TM) system (copyright 1983,
 Carnegie Mellon University). Gaussian is a federally registered
 trademark of Gaussian, Inc.
  
 This software contains proprietary and confidential information,
 including trade secrets, belonging to Gaussian, Inc.
  
 This software is provided under written license and may be
 used, copied, transmitted, or stored only in accord with that
 written license.
  
 The following legend is applicable only to US Government
 contracts under FAR:
  
                    RESTRICTED RIGHTS LEGEND
  
 Use, reproduction and disclosure by the US Government is
 subject to restrictions as set forth in subparagraphs (a)
 and (c) of the Commercial Computer Software - Restricted
 Rights clause in FAR 52.227-19.
  
 Gaussian, Inc.
 340 Quinnipiac St., Bldg. 40, Wallingford CT 06492
  
  
 ---------------------------------------------------------------
 Warning -- This program may not be used in any manner that
 competes with the business of Gaussian, Inc. or will provide
 assistance to any competitor of Gaussian, Inc.  The licensee
 of this program is prohibited from giving any competitor of
 Gaussian, Inc. access to this program.  By using this program,
 the user acknowledges that Gaussian, Inc. is engaged in the
 business of creating and licensing software in the field of
 computational chemistry and represents and warrants to the
 licensee that it is not a competitor of Gaussian, Inc. and that
 it will not use this program in any manner prohibited above.
 ---------------------------------------------------------------
  

 Cite this work as:
 Gaussian 16, Revision C.01,
 M. J. Frisch, G. W. Trucks, H. B. Schlegel, G. E. Scuseria, 
 M. A. Robb, J. R. Cheeseman, G. Scalmani, V. Barone, 
 G. A. Petersson, H. Nakatsuji, X. Li, M. Caricato, A. V. Marenich, 
 J. Bloino, B. G. Janesko, R. Gomperts, B. Mennucci, H. P. Hratchian, 
 J. V. Ortiz, A. F. Izmaylov, J. L. Sonnenberg, D. Williams-Young, 
 F. Ding, F. Lipparini, F. Egidi, J. Goings, B. Peng, A. Petrone, 
 T. Henderson, D. Ranasinghe, V. G. Zakrzewski, J. Gao, N. Rega, 
 G. Zheng, W. Liang, M. Hada, M. Ehara, K. Toyota, R. Fukuda, 
 J. Hasegawa, M. Ishida, T. Nakajima, Y. Honda, O. Kitao, H. Nakai, 
 T. Vreven, K. Throssell, J. A. Montgomery, Jr., J. E. Peralta, 
 F. Ogliaro, M. J. Bearpark, J. J. Heyd, E. N. Brothers, K. N. Kudin, 
 V. N. Staroverov, T. A. Keith, R. Kobayashi, J. Normand, 
 K. Raghavachari, A. P. Rendell, J. C. Burant, S. S. Iyengar, 
 J. Tomasi, M. Cossi, J. M. Millam, M. Klene, C. Adamo, R. Cammi, 
 J. W. Ochterski, R. L. Martin, K. Morokuma, O. Farkas, 
 J. B. Foresman, and D. J. Fox, Gaussian, Inc., Wallingford CT, 2019.
 
 ******************************************
 Gaussian 16:  AS64L-G16RevC.01  3-Jul-2019
                23-Jun-2021 
 ******************************************
 %nprocshared=4
 Will use up to    4 processors via shared memory.
 %chk=FuncsBMK-V-2nd.chk
 %Mem=3GB
 ---------------------------------------------------------
 # td= (nstates=6, root=2) BMK/6-31+G* Opt density=current
 ---------------------------------------------------------
 1/18=20,19=15,26=3,38=1/1,3;
 2/9=110,12=2,17=6,18=5,40=1/2;
 3/5=1,6=6,7=11,11=9,25=1,30=1,71=1,74=-34/1,2,3,8;
 4//1;
 5/5=2,38=5/2;
 8/6=1,10=2,107=2,108=6/1;
 9/8=2,15=2,41=6,42=1,70=2/14;
 10/5=4,28=2/2;
 6/7=2,8=2,9=2,10=2,22=-1/1;
 7/12=6,13=5,14=2/1,2,3,16;
 1/18=20,19=15,26=3/3(2);
 2/9=110/2;
 99//99;
 2/9=110/2;
 3/5=1,6=6,7=11,11=9,25=1,30=1,71=1,74=-34/1,2,3,8;
 4/5=5,16=3,69=1/1;
 5/5=2,38=5/2;
 8/6=1,10=2,107=2,108=6/1;
 9/8=2,15=2,41=6,42=1,49=4,70=2/14;
 10/5=4,28=2/2;
 7/12=6,13=5,14=2/1,2,3,16;
 1/18=20,19=15,26=3/3(-8);
 2/9=110/2;
 6/7=2,8=2,9=2,10=2,22=-1/1;
 99/9=10/99;
 --------------
 FuncsBMK-V-2nd
 --------------
 Symbolic Z-matrix:
 Charge =  0 Multiplicity = 1
 C                    -2.15106   0.68921   0.00009 
 C                    -2.12793  -0.71582   0.00008 
 C                    -0.9323   -1.4131   -0.00001 
 C                     0.24691  -0.6702   -0.00004 
 C                     0.24819   0.7483    0. 
 C                    -0.97947   1.42353   0.00003 
 N                     1.56177  -1.07759  -0.00029 
 C                     1.62013   1.1629   -0.00016 
 C                     2.38201   0.03081   0.00025 
 H                     1.87632  -2.03001   0.00044 
 H                     1.99217   2.17301  -0.00035 
 H                     3.45255  -0.08243   0.00041 
 H                    -3.06159  -1.26202   0.00009 
 H                    -0.91725  -2.49534  -0.00007 
 H                    -3.1042    1.20079   0.00009 
 H                    -1.00935   2.50542  -0.00002 
 

 GradGradGradGradGradGradGradGradGradGradGradGradGradGradGradGradGradGrad
 Berny optimization.
 Initialization pass.
                           ----------------------------
                           !    Initial Parameters    !
                           ! (Angstroms and Degrees)  !
 --------------------------                            --------------------------
 ! Name  Definition              Value          Derivative Info.                !
 --------------------------------------------------------------------------------
 ! R1    R(1,2)                  1.4052         estimate D2E/DX2                !
 ! R2    R(1,6)                  1.3827         estimate D2E/DX2                !
 ! R3    R(1,15)                 1.0818         estimate D2E/DX2                !
 ! R4    R(2,3)                  1.3841         estimate D2E/DX2                !
 ! R5    R(2,13)                 1.0817         estimate D2E/DX2                !
 ! R6    R(3,4)                  1.3937         estimate D2E/DX2                !
 ! R7    R(3,14)                 1.0823         estimate D2E/DX2                !
 ! R8    R(4,5)                  1.4185         estimate D2E/DX2                !
 ! R9    R(4,7)                  1.3765         estimate D2E/DX2                !
 ! R10   R(5,6)                  1.4011         estimate D2E/DX2                !
 ! R11   R(5,8)                  1.4332         estimate D2E/DX2                !
 ! R12   R(6,16)                 1.0823         estimate D2E/DX2                !
 ! R13   R(7,9)                  1.3789         estimate D2E/DX2                !
 ! R14   R(7,10)                 1.003          estimate D2E/DX2                !
 ! R15   R(8,9)                  1.3646         estimate D2E/DX2                !
 ! R16   R(8,11)                 1.0764         estimate D2E/DX2                !
 ! R17   R(9,12)                 1.0765         estimate D2E/DX2                !
 ! A1    A(2,1,6)              121.1349         estimate D2E/DX2                !
 ! A2    A(2,1,15)             119.1671         estimate D2E/DX2                !
 ! A3    A(6,1,15)             119.698          estimate D2E/DX2                !
 ! A4    A(1,2,3)              121.1938         estimate D2E/DX2                !
 ! A5    A(1,2,13)             119.3846         estimate D2E/DX2                !
 ! A6    A(3,2,13)             119.4217         estimate D2E/DX2                !
 ! A7    A(2,3,4)              117.5387         estimate D2E/DX2                !
 ! A8    A(2,3,14)             121.0469         estimate D2E/DX2                !
 ! A9    A(4,3,14)             121.4144         estimate D2E/DX2                !
 ! A10   A(3,4,5)              122.2626         estimate D2E/DX2                !
 ! A11   A(3,4,7)              130.5743         estimate D2E/DX2                !
 ! A12   A(5,4,7)              107.163          estimate D2E/DX2                !
 ! A13   A(4,5,6)              118.7594         estimate D2E/DX2                !
 ! A14   A(4,5,8)              106.8666         estimate D2E/DX2                !
 ! A15   A(6,5,8)              134.374          estimate D2E/DX2                !
 ! A16   A(1,6,5)              119.1105         estimate D2E/DX2                !
 ! A17   A(1,6,16)             120.4966         estimate D2E/DX2                !
 ! A18   A(5,6,16)             120.3928         estimate D2E/DX2                !
 ! A19   A(4,7,9)              109.2874         estimate D2E/DX2                !
 ! A20   A(4,7,10)             125.4909         estimate D2E/DX2                !
 ! A21   A(9,7,10)             125.2217         estimate D2E/DX2                !
 ! A22   A(5,8,9)              107.125          estimate D2E/DX2                !
 ! A23   A(5,8,11)             127.0344         estimate D2E/DX2                !
 ! A24   A(9,8,11)             125.8405         estimate D2E/DX2                !
 ! A25   A(7,9,8)              109.5578         estimate D2E/DX2                !
 ! A26   A(7,9,12)             120.4645         estimate D2E/DX2                !
 ! A27   A(8,9,12)             129.9776         estimate D2E/DX2                !
 ! D1    D(6,1,2,3)             -0.0008         estimate D2E/DX2                !
 ! D2    D(6,1,2,13)          -179.9981         estimate D2E/DX2                !
 ! D3    D(15,1,2,3)           179.996          estimate D2E/DX2                !
 ! D4    D(15,1,2,13)           -0.0013         estimate D2E/DX2                !
 ! D5    D(2,1,6,5)             -0.0018         estimate D2E/DX2                !
 ! D6    D(2,1,6,16)           179.9965         estimate D2E/DX2                !
 ! D7    D(15,1,6,5)          -179.9986         estimate D2E/DX2                !
 ! D8    D(15,1,6,16)           -0.0003         estimate D2E/DX2                !
 ! D9    D(1,2,3,4)              0.002          estimate D2E/DX2                !
 ! D10   D(1,2,3,14)          -179.9968         estimate D2E/DX2                !
 ! D11   D(13,2,3,4)           179.9992         estimate D2E/DX2                !
 ! D12   D(13,2,3,14)            0.0005         estimate D2E/DX2                !
 ! D13   D(2,3,4,5)             -0.0005         estimate D2E/DX2                !
 ! D14   D(2,3,4,7)           -179.9911         estimate D2E/DX2                !
 ! D15   D(14,3,4,5)           179.9982         estimate D2E/DX2                !
 ! D16   D(14,3,4,7)             0.0076         estimate D2E/DX2                !
 ! D17   D(3,4,5,6)             -0.002          estimate D2E/DX2                !
 ! D18   D(3,4,5,8)           -179.9955         estimate D2E/DX2                !
 ! D19   D(7,4,5,6)            179.9905         estimate D2E/DX2                !
 ! D20   D(7,4,5,8)             -0.003          estimate D2E/DX2                !
 ! D21   D(3,4,7,9)           -179.98           estimate D2E/DX2                !
 ! D22   D(3,4,7,10)            -0.0649         estimate D2E/DX2                !
 ! D23   D(5,4,7,9)              0.0284         estimate D2E/DX2                !
 ! D24   D(5,4,7,10)           179.9434         estimate D2E/DX2                !
 ! D25   D(4,5,6,1)              0.0031         estimate D2E/DX2                !
 ! D26   D(4,5,6,16)          -179.9951         estimate D2E/DX2                !
 ! D27   D(8,5,6,1)            179.9944         estimate D2E/DX2                !
 ! D28   D(8,5,6,16)            -0.0038         estimate D2E/DX2                !
 ! D29   D(4,5,8,9)             -0.0234         estimate D2E/DX2                !
 ! D30   D(4,5,8,11)           179.9883         estimate D2E/DX2                !
 ! D31   D(6,5,8,9)            179.9846         estimate D2E/DX2                !
 ! D32   D(6,5,8,11)            -0.0037         estimate D2E/DX2                !
 ! D33   D(4,7,9,8)             -0.0444         estimate D2E/DX2                !
 ! D34   D(4,7,9,12)           179.9847         estimate D2E/DX2                !
 ! D35   D(10,7,9,8)          -179.9597         estimate D2E/DX2                !
 ! D36   D(10,7,9,12)            0.0693         estimate D2E/DX2                !
 ! D37   D(5,8,9,7)              0.0414         estimate D2E/DX2                !
 ! D38   D(5,8,9,12)          -179.9913         estimate D2E/DX2                !
 ! D39   D(11,8,9,7)          -179.9702         estimate D2E/DX2                !
 ! D40   D(11,8,9,12)           -0.0029         estimate D2E/DX2                !
 --------------------------------------------------------------------------------
 Trust Radius=3.00D-01 FncErr=1.00D-07 GrdErr=1.00D-06 EigMax=2.50D+02 EigMin=1.00D-04
 Number of steps in this run=     94 maximum allowed number of steps=    100.
 GradGradGradGradGradGradGradGradGradGradGradGradGradGradGradGradGradGrad

                          Input orientation:                          
 ---------------------------------------------------------------------
 Center     Atomic      Atomic             Coordinates (Angstroms)
 Number     Number       Type             X           Y           Z
 ---------------------------------------------------------------------
      1          6           0       -2.151063    0.689208    0.000088
      2          6           0       -2.127927   -0.715818    0.000075
      3          6           0       -0.932297   -1.413100   -0.000011
      4          6           0        0.246911   -0.670201   -0.000042
      5          6           0        0.248193    0.748299    0.000000
      6          6           0       -0.979474    1.423526    0.000032
      7          7           0        1.561774   -1.077592   -0.000285
      8          6           0        1.620133    1.162900   -0.000157
      9          6           0        2.382013    0.030806    0.000248
     10          1           0        1.876315   -2.030011    0.000438
     11          1           0        1.992173    2.173010   -0.000348
     12          1           0        3.452549   -0.082425    0.000408
     13          1           0       -3.061594   -1.262020    0.000088
     14          1           0       -0.917252   -2.495342   -0.000073
     15          1           0       -3.104203    1.200785    0.000090
     16          1           0       -1.009348    2.505421   -0.000015
 ---------------------------------------------------------------------
                    Distance matrix (angstroms):
                    1          2          3          4          5
     1  C    0.000000
     2  C    1.405216   0.000000
     3  C    2.430039   1.384100   0.000000
     4  C    2.756496   2.375276   1.393711   0.000000
     5  C    2.399984   2.790983   2.462763   1.418501   0.000000
     6  C    1.382694   2.428114   2.837018   2.426461   1.401106
     7  N    4.111781   3.707395   2.516536   1.376529   2.249305
     8  C    3.800829   4.192557   3.626386   2.290414   1.433218
     9  C    4.580641   4.571324   3.615178   2.247236   2.251218
    10  H    4.859416   4.214387   2.875566   2.122273   3.220216
    11  H    4.400917   5.031953   4.627387   3.336134   2.251948
    12  H    5.656491   5.616307   4.582311   3.259079   3.310287
    13  H    2.153220   1.081698   2.134650   3.361020   3.872476
    14  H    3.415208   2.152310   1.082347   2.164813   3.446661
    15  H    1.081752   2.150926   3.398466   3.838040   3.382795
    16  H    2.145261   3.409927   3.919278   3.415079   2.160761
                    6          7          8          9         10
     6  C    0.000000
     7  N    3.565604   0.000000
     8  C    2.612639   2.241252   0.000000
     9  C    3.638580   1.378890   1.364587   0.000000
    10  H    4.481345   1.003015   3.203172   2.121956   0.000000
    11  H    3.064704   3.278972   1.076446   2.177387   4.204618
    12  H    4.680888   2.136677   2.215532   1.076508   2.505515
    13  H    3.398144   4.627045   5.272457   5.595021   4.997275
    14  H    3.919362   2.855798   4.452085   4.155307   2.832058
    15  H    2.136372   5.192528   4.724488   5.609583   5.936632
    16  H    1.082307   4.410062   2.952378   4.198220   5.375611
                   11         12         13         14         15
    11  H    0.000000
    12  H    2.686947   0.000000
    13  H    6.110646   6.620083   0.000000
    14  H    5.500751   4.991726   2.473719   0.000000
    15  H    5.188282   6.681139   2.463174   4.294661   0.000000
    16  H    3.019872   5.158049   4.290143   5.001611   2.467892
                   16
    16  H    0.000000
 Stoichiometry    C8H7N
 Framework group  C1[X(C8H7N)]
 Deg. of freedom    42
 Full point group                 C1      NOp   1
 Largest Abelian subgroup         C1      NOp   1
 Largest concise Abelian subgroup C1      NOp   1
                         Standard orientation:                         
 ---------------------------------------------------------------------
 Center     Atomic      Atomic             Coordinates (Angstroms)
 Number     Number       Type             X           Y           Z
 ---------------------------------------------------------------------
      1          6           0       -2.151063    0.689208    0.000088
      2          6           0       -2.127927   -0.715818    0.000075
      3          6           0       -0.932297   -1.413100   -0.000011
      4          6           0        0.246911   -0.670201   -0.000042
      5          6           0        0.248193    0.748299    0.000000
      6          6           0       -0.979474    1.423526    0.000032
      7          7           0        1.561774   -1.077592   -0.000285
      8          6           0        1.620133    1.162900   -0.000157
      9          6           0        2.382013    0.030806    0.000248
     10          1           0        1.876315   -2.030011    0.000438
     11          1           0        1.992173    2.173010   -0.000348
     12          1           0        3.452549   -0.082425    0.000408
     13          1           0       -3.061594   -1.262020    0.000088
     14          1           0       -0.917252   -2.495342   -0.000073
     15          1           0       -3.104203    1.200785    0.000090
     16          1           0       -1.009348    2.505421   -0.000015
 ---------------------------------------------------------------------
 Rotational constants (GHZ):           3.9080822           1.6429452           1.1566805
 Standard basis: 6-31+G(d) (6D, 7F)
 There are   185 symmetry adapted cartesian basis functions of A   symmetry.
 There are   185 symmetry adapted basis functions of A   symmetry.
   185 basis functions,   316 primitive gaussians,   185 cartesian basis functions
    31 alpha electrons       31 beta electrons
       nuclear repulsion energy       401.3368668897 Hartrees.
 NAtoms=   16 NActive=   16 NUniq=   16 SFac= 1.00D+00 NAtFMM=   60 NAOKFM=F Big=F
 Integral buffers will be    131072 words long.
 Regular integral format.
 Two-electron integral symmetry is turned on.
 One-electron integrals computed using PRISM.
 NBasis=   185 RedAO= T EigKep=  1.26D-06  NBF=   185
 NBsUse=   185 1.00D-06 EigRej= -1.00D+00 NBFU=   185
 ExpMin= 4.38D-02 ExpMax= 4.17D+03 ExpMxC= 6.27D+02 IAcc=3 IRadAn=         5 AccDes= 0.00D+00
 Harris functional with IExCor= 1009 and IRadAn=       5 diagonalized for initial guess.
 HarFok:  IExCor= 1009 AccDes= 0.00D+00 IRadAn=         5 IDoV= 1 UseB2=F ITyADJ=14
 ICtDFT=  3500011 ScaDFX=  1.000000  1.000000  1.000000  1.000000
 FoFCou: FMM=F IPFlag=           0 FMFlag=      100000 FMFlg1=           0
         NFxFlg=           0 DoJE=T BraDBF=F KetDBF=T FulRan=T
         wScrn=  0.000000 ICntrl=       500 IOpCl=  0 I1Cent=   200000004 NGrid=           0
         NMat0=    1 NMatS0=      1 NMatT0=    0 NMatD0=    1 NMtDS0=    0 NMtDT0=    0
 Petite list used in FoFCou.
 Keep R1 ints in memory in canonical form, NReq=152074523.
 Requested convergence on RMS density matrix=1.00D-08 within 128 cycles.
 Requested convergence on MAX density matrix=1.00D-06.
 Requested convergence on             energy=1.00D-06.
 No special actions if energy rises.
 SCF Done:  E(RBMK) =  -363.584024432     A.U. after   14 cycles
            NFock= 14  Conv=0.97D-08     -V/T= 2.0095
 DoSCS=F DFT=T ScalE2(SS,OS)=  1.000000  1.000000
 ExpMin= 4.38D-02 ExpMax= 4.17D+03 ExpMxC= 6.27D+02 IAcc=3 IRadAn=         5 AccDes= 0.00D+00
 HarFok:  IExCor=  205 AccDes= 0.00D+00 IRadAn=         5 IDoV=-2 UseB2=F ITyADJ=14
 ICtDFT= 12500011 ScaDFX=  1.000000  1.000000  1.000000  1.000000
 Range of M.O.s used for correlation:    10   185
 NBasis=   185 NAE=    31 NBE=    31 NFC=     9 NFV=     0
 NROrb=    176 NOA=    22 NOB=    22 NVA=   154 NVB=   154

 **** Warning!!: The largest alpha MO coefficient is  0.18503603D+03

 Orbital symmetries:
       Occupied  (A) (A) (A) (A) (A) (A) (A) (A) (A) (A) (A) (A)
                 (A) (A) (A) (A) (A) (A) (A) (A) (A) (A) (A) (A)
                 (A) (A) (A) (A) (A) (A) (A)
       Virtual   (A) (A) (A) (A) (A) (A) (A) (A) (A) (A) (A) (A)
                 (A) (A) (A) (A) (A) (A) (A) (A) (A) (A) (A) (A)
                 (A) (A) (A) (A) (A) (A) (A) (A) (A) (A) (A) (A)
                 (A) (A) (A) (A) (A) (A) (A) (A) (A) (A) (A) (A)
                 (A) (A) (A) (A) (A) (A) (A) (A) (A) (A) (A) (A)
                 (A) (A) (A) (A) (A) (A) (A) (A) (A) (A) (A) (A)
                 (A) (A) (A) (A) (A) (A) (A) (A) (A) (A) (A) (A)
                 (A) (A) (A) (A) (A) (A) (A) (A) (A) (A) (A) (A)
                 (A) (A) (A) (A) (A) (A) (A) (A) (A) (A) (A) (A)
                 (A) (A) (A) (A) (A) (A) (A) (A) (A) (A) (A) (A)
                 (A) (A) (A) (A) (A) (A) (A) (A) (A) (A) (A) (A)
                 (A) (A) (A) (A) (A) (A) (A) (A) (A) (A) (A) (A)
                 (A) (A) (A) (A) (A) (A) (A) (A) (A) (A)
    24 initial guesses have been made.
 Convergence on wavefunction:    0.000001000000000
 Iteration     1 Dimension    24 NMult     0 NNew     24
 CISAX will form    24 AO SS matrices at one time.
 New state      1 was old state      2
 New state      2 was old state      1
 New state      6 was old state      7
 Iteration     2 Dimension    36 NMult    24 NNew     12
 New state      1 was old state      2
 New state      2 was old state      1
 Iteration     3 Dimension    48 NMult    36 NNew     12
 Iteration     4 Dimension    60 NMult    48 NNew     12
 Iteration     5 Dimension    72 NMult    60 NNew     12
 Iteration     6 Dimension    84 NMult    72 NNew     12
 Iteration     7 Dimension    96 NMult    84 NNew     12
 Iteration     8 Dimension   108 NMult    96 NNew     12
 No map to state      6
 Iteration     9 Dimension   120 NMult   108 NNew     12
 Iteration    10 Dimension   128 NMult   120 NNew      8
 Iteration    11 Dimension   130 NMult   128 NNew      2
 Iteration    12 Dimension   132 NMult   130 NNew      2
 Iteration    13 Dimension   134 NMult   132 NNew      2
 Iteration    14 Dimension   136 NMult   134 NNew      2
 Iteration    15 Dimension   138 NMult   136 NNew      2
 Iteration    16 Dimension   140 NMult   138 NNew      2
 ***********************************************************************
 Excited states from <AA,BB:AA,BB> singles matrix:
 ***********************************************************************
 
 Ground to excited state transition densities written to RWF  633
 Ground to excited state transition electric dipole moments (Au):
       state          X           Y           Z        Dip. S.      Osc.
         1        -0.4452      0.6927     -0.0001      0.6779      0.0849
         2        -0.7140      0.0174     -0.0001      0.5101      0.0649
         3         0.0004     -0.0003     -0.1247      0.0155      0.0022
         4        -0.0011     -0.0002     -0.1441      0.0208      0.0032
         5         0.0034      0.0008      0.0185      0.0004      0.0001
         6        -1.9257     -0.6145     -0.0011      4.0858      0.6410
 Ground to excited state transition velocity dipole moments (Au):
       state          X           Y           Z        Dip. S.      Osc.
         1         0.0748     -0.1382      0.0000      0.0247      0.0876
         2         0.1273     -0.0043      0.0000      0.0162      0.0567
         3        -0.0001      0.0001      0.0163      0.0003      0.0008
         4         0.0003      0.0000      0.0333      0.0011      0.0032
         5        -0.0008     -0.0002     -0.0037      0.0000      0.0000
         6         0.4394      0.1433      0.0003      0.2136      0.6050
 Ground to excited state transition magnetic dipole moments (Au):
       state          X           Y           Z
         1         0.0003     -0.0000      0.1715
         2        -0.0000     -0.0002     -0.0213
         3         0.1431     -0.0932      0.0001
         4         0.0971     -0.2959     -0.0002
         5         0.2614     -0.1528      0.0012
         6        -0.0016     -0.0040     -0.7438
 Ground to excited state transition velocity quadrupole moments (Au):
       state          XX          YY          ZZ          XY          XZ          YZ
         1         0.1939     -0.0964      0.0007      0.0230      0.0001      0.0001
         2         0.1175     -0.1503      0.0221     -0.0022      0.0001     -0.0000
         3        -0.0001      0.0001      0.0001      0.0000      0.0782      0.0632
         4         0.0000     -0.0000     -0.0000     -0.0001      0.2221      0.0400
         5        -0.0005      0.0002      0.0001      0.0009      0.1981      0.2559
         6         0.1249     -0.1305     -0.0302     -0.4954      0.0033     -0.0004
 <0|del|b> * <b|rxdel|0> + <0|del|b> * <b|delr+rdel|0>
 Rotatory Strengths (R) in cgs (10**-40 erg-esu-cm/Gauss)
       state          XX          YY          ZZ    R(velocity)    E-M Angle
         1         0.0292      0.0525      0.0104      0.0307       90.00
         2         0.0018     -0.0066      0.0040     -0.0003       90.00
         3        -0.0164     -0.0252     -0.0120     -0.0179       90.00
         4        -0.0436      0.0503      0.0195      0.0087       90.00
         5         0.0846     -0.5980     -0.0187     -0.1773       98.80
         6        -2.0475     -1.4399     -0.8990     -1.4621       90.24
 1/2[<0|r|b>*<b|rxdel|0> + (<0|rxdel|b>*<b|r|0>)*]
 Rotatory Strengths (R) in cgs (10**-40 erg-esu-cm/Gauss)
       state          XX          YY          ZZ     R(length)
         1         0.0854      0.0075      0.0114      0.0348
         2        -0.0026      0.0026     -0.0020     -0.0007
         3        -0.0454     -0.0173      0.0060     -0.0189
         4         0.0784     -0.0346     -0.0226      0.0070
         5        -0.6204      0.0837     -0.0163     -0.1843
         6        -2.1672     -1.7397     -0.5938     -1.5002
  1/2[<0|del|b>*<b|r|0> + (<0|r|b>*<b|del|0>)*] (Au)
       state          X           Y           Z        Dip. S.   Osc.(frdel)
         1        -0.0333     -0.0957     -0.0000      0.1290      0.0860
         2        -0.0909     -0.0001     -0.0000      0.0910      0.0607
         3        -0.0000     -0.0000     -0.0020      0.0020      0.0014
         4        -0.0000     -0.0000     -0.0048      0.0048      0.0032
         5        -0.0000     -0.0000     -0.0001      0.0001      0.0000
         6        -0.8461     -0.0880     -0.0000      0.9341      0.6227

 Excitation energies and oscillator strengths:
 
 Excited State   1:      Singlet-A      5.1121 eV  242.53 nm  f=0.0849  <S**2>=0.000
      30 -> 32        -0.24656
      30 -> 35         0.16073
      31 -> 32         0.62712
 
 Excited State   2:      Singlet-A      5.1968 eV  238.58 nm  f=0.0649  <S**2>=0.000
      30 -> 32         0.53626
      31 -> 32         0.25165
      31 -> 35        -0.36532
 This state for optimization and/or second-order correction.
 Total Energy, E(TD-HF/TD-DFT) =  -363.393047297    
 Copying the excited state density for this state as the 1-particle RhoCI density.
 
 Excited State   3:      Singlet-A      5.7189 eV  216.80 nm  f=0.0022  <S**2>=0.000
      31 -> 33         0.69320
 
 Excited State   4:      Singlet-A      6.2294 eV  199.03 nm  f=0.0032  <S**2>=0.000
      30 -> 33         0.63201
      31 -> 34         0.26630
 
 Excited State   5:      Singlet-A      6.3337 eV  195.75 nm  f=0.0001  <S**2>=0.000
      30 -> 33        -0.26598
      31 -> 34         0.63844
 
 Excited State   6:      Singlet-A      6.4038 eV  193.61 nm  f=0.6410  <S**2>=0.000
      30 -> 32         0.34658
      31 -> 35         0.57678
      31 -> 39         0.12591
 SavETr:  write IOETrn=   770 NScale= 10 NData=  16 NLR=1 NState=    6 LETran=     118.
          IDoAtm=1111111111111111
          Differentiating once with respect to electric field.
                with respect to dipole field.
          Differentiating once with respect to nuclear coordinates.
 Keep R1 ints in memory in canonical form, NReq=152086915.
          There are     1 degrees of freedom in the 1st order CPHF.  IDoFFX=0 NUNeed=     1.
 LinEq1:  Iter=  0 NonCon=     1 RMS=5.51D-03 Max=1.54D-01 NDo=     1
 AX will form     1 AO Fock derivatives at one time.
 LinEq1:  Iter=  1 NonCon=     1 RMS=1.96D-03 Max=5.78D-02 NDo=     1
 LinEq1:  Iter=  2 NonCon=     1 RMS=1.32D-03 Max=4.44D-02 NDo=     1
 LinEq1:  Iter=  3 NonCon=     1 RMS=5.17D-04 Max=1.35D-02 NDo=     1
 LinEq1:  Iter=  4 NonCon=     1 RMS=2.13D-04 Max=7.24D-03 NDo=     1
 LinEq1:  Iter=  5 NonCon=     1 RMS=1.26D-04 Max=3.45D-03 NDo=     1
 LinEq1:  Iter=  6 NonCon=     1 RMS=5.51D-05 Max=1.24D-03 NDo=     1
 LinEq1:  Iter=  7 NonCon=     1 RMS=2.93D-05 Max=7.20D-04 NDo=     1
 LinEq1:  Iter=  8 NonCon=     1 RMS=1.23D-05 Max=2.47D-04 NDo=     1
 LinEq1:  Iter=  9 NonCon=     1 RMS=6.31D-06 Max=1.75D-04 NDo=     1
 LinEq1:  Iter= 10 NonCon=     1 RMS=1.92D-06 Max=3.41D-05 NDo=     1
 LinEq1:  Iter= 11 NonCon=     1 RMS=1.13D-06 Max=1.83D-05 NDo=     1
 LinEq1:  Iter= 12 NonCon=     1 RMS=3.41D-07 Max=6.44D-06 NDo=     1
 LinEq1:  Iter= 13 NonCon=     1 RMS=2.09D-07 Max=5.16D-06 NDo=     1
 LinEq1:  Iter= 14 NonCon=     1 RMS=8.02D-08 Max=1.79D-06 NDo=     1
 LinEq1:  Iter= 15 NonCon=     1 RMS=3.36D-08 Max=4.18D-07 NDo=     1
 LinEq1:  Iter= 16 NonCon=     1 RMS=1.61D-08 Max=3.95D-07 NDo=     1
 LinEq1:  Iter= 17 NonCon=     1 RMS=3.76D-09 Max=6.08D-08 NDo=     1
 LinEq1:  Iter= 18 NonCon=     1 RMS=2.00D-09 Max=2.96D-08 NDo=     1
 LinEq1:  Iter= 19 NonCon=     1 RMS=5.90D-10 Max=9.09D-09 NDo=     1
 LinEq1:  Iter= 20 NonCon=     1 RMS=1.21D-10 Max=1.46D-09 NDo=     1
 LinEq1:  Iter= 21 NonCon=     0 RMS=1.93D-11 Max=1.50D-10 NDo=     1
 Linear equations converged to 1.000D-10 1.000D-09 after    21 iterations.
 End of Minotr F.D. properties file   721 does not exist.
 End of Minotr F.D. properties file   722 does not exist.
 End of Minotr F.D. properties file   788 does not exist.

 **********************************************************************

            Population analysis using the CI Density.

 **********************************************************************

 Orbital symmetries:
       Occupied  (A) (A) (A) (A) (A) (A) (A) (A) (A) (A) (A) (A)
                 (A) (A) (A) (A) (A) (A) (A) (A) (A) (A) (A) (A)
                 (A) (A) (A) (A) (A) (A) (A)
       Virtual   (A) (A) (A) (A) (A) (A) (A) (A) (A) (A) (A) (A)
                 (A) (A) (A) (A) (A) (A) (A) (A) (A) (A) (A) (A)
                 (A) (A) (A) (A) (A) (A) (A) (A) (A) (A) (A) (A)
                 (A) (A) (A) (A) (A) (A) (A) (A) (A) (A) (A) (A)
                 (A) (A) (A) (A) (A) (A) (A) (A) (A) (A) (A) (A)
                 (A) (A) (A) (A) (A) (A) (A) (A) (A) (A) (A) (A)
                 (A) (A) (A) (A) (A) (A) (A) (A) (A) (A) (A) (A)
                 (A) (A) (A) (A) (A) (A) (A) (A) (A) (A) (A) (A)
                 (A) (A) (A) (A) (A) (A) (A) (A) (A) (A) (A) (A)
                 (A) (A) (A) (A) (A) (A) (A) (A) (A) (A) (A) (A)
                 (A) (A) (A) (A) (A) (A) (A) (A) (A) (A) (A) (A)
                 (A) (A) (A) (A) (A) (A) (A) (A) (A) (A) (A) (A)
                 (A) (A) (A) (A) (A) (A) (A) (A) (A) (A)
 The electronic state is 1-A.
 Alpha  occ. eigenvalues --  -14.72320 -10.51980 -10.51638 -10.48393 -10.47834
 Alpha  occ. eigenvalues --  -10.47773 -10.47763 -10.47231 -10.47090  -1.06508
 Alpha  occ. eigenvalues --   -0.91471  -0.85401  -0.80354  -0.78424  -0.68504
 Alpha  occ. eigenvalues --   -0.65344  -0.63934  -0.59573  -0.53337  -0.52238
 Alpha  occ. eigenvalues --   -0.48366  -0.47726  -0.47471  -0.45666  -0.43587
 Alpha  occ. eigenvalues --   -0.39668  -0.37981  -0.37482  -0.31814  -0.25464
 Alpha  occ. eigenvalues --   -0.23689
 Alpha virt. eigenvalues --    0.01115   0.03124   0.04958   0.05020   0.05493
 Alpha virt. eigenvalues --    0.06663   0.07068   0.08054   0.09175   0.09489
 Alpha virt. eigenvalues --    0.09848   0.10164   0.12593   0.12882   0.13450
 Alpha virt. eigenvalues --    0.13720   0.14916   0.16539   0.17600   0.17762
 Alpha virt. eigenvalues --    0.18699   0.19396   0.19994   0.20364   0.20451
 Alpha virt. eigenvalues --    0.21170   0.22280   0.22936   0.23024   0.23240
 Alpha virt. eigenvalues --    0.23861   0.24493   0.25287   0.26041   0.26643
 Alpha virt. eigenvalues --    0.27264   0.27487   0.27778   0.28866   0.29443
 Alpha virt. eigenvalues --    0.30229   0.30741   0.31911   0.33666   0.34490
 Alpha virt. eigenvalues --    0.35408   0.36030   0.37532   0.39752   0.41136
 Alpha virt. eigenvalues --    0.42347   0.44542   0.48783   0.49949   0.56838
 Alpha virt. eigenvalues --    0.63404   0.68057   0.72718   0.72762   0.75250
 Alpha virt. eigenvalues --    0.76901   0.77553   0.78714   0.79054   0.79495
 Alpha virt. eigenvalues --    0.80743   0.80857   0.83262   0.84756   0.85422
 Alpha virt. eigenvalues --    0.87252   0.91178   0.95191   0.97093   0.98018
 Alpha virt. eigenvalues --    1.00610   1.01452   1.02121   1.03609   1.04906
 Alpha virt. eigenvalues --    1.06228   1.09777   1.11910   1.14534   1.16433
 Alpha virt. eigenvalues --    1.18279   1.18845   1.23998   1.24680   1.27424
 Alpha virt. eigenvalues --    1.29699   1.31459   1.31965   1.38601   1.39598
 Alpha virt. eigenvalues --    1.41848   1.43814   1.48700   1.49335   1.52002
 Alpha virt. eigenvalues --    1.53978   1.54231   1.57670   1.58459   1.60777
 Alpha virt. eigenvalues --    1.66256   1.72623   1.85419   1.93941   1.97200
 Alpha virt. eigenvalues --    1.98319   2.01127   2.03585   2.08334   2.08643
 Alpha virt. eigenvalues --    2.09845   2.15371   2.18983   2.22387   2.24839
 Alpha virt. eigenvalues --    2.26146   2.28348   2.32819   2.33756   2.34480
 Alpha virt. eigenvalues --    2.35866   2.39388   2.46110   2.48898   2.52503
 Alpha virt. eigenvalues --    2.62830   2.63850   2.70319   2.72470   2.74849
 Alpha virt. eigenvalues --    2.77918   2.81403   2.88953   2.92556   2.93579
 Alpha virt. eigenvalues --    3.03560   3.05213   3.20876   3.31552   3.53168
 Alpha virt. eigenvalues --    4.24419   4.33450   4.36166   4.39705   4.43458
 Alpha virt. eigenvalues --    4.47176   4.55207   4.59126   4.85909
          Condensed to atoms (all electrons):
               1          2          3          4          5          6
     1  C    5.865503   0.349016   0.137946  -0.465690  -0.119452  -0.116454
     2  C    0.349016   5.853711  -0.180698   0.365880  -0.552866   0.509267
     3  C    0.137946  -0.180698  15.212012  -4.446057  -3.799241  -2.426784
     4  C   -0.465690   0.365880  -4.446057  14.147597  -1.975140  -0.473453
     5  C   -0.119452  -0.552866  -3.799241  -1.975140  15.142307  -1.388842
     6  C   -0.116454   0.509267  -2.426784  -0.473453  -1.388842  11.738775
     7  N   -0.039965   0.025590  -0.443363  -0.406640   0.705802   0.207085
     8  C    0.183774  -0.278117   3.632060  -0.022966  -5.604376  -2.235715
     9  C   -0.089986   0.051641  -1.507833   0.045912   2.128022   0.620636
    10  H   -0.002675  -0.010532  -0.120170  -0.054370   0.135926   0.022519
    11  H    0.007222   0.001031  -0.009446  -0.034059   0.069763   0.047965
    12  H    0.001937  -0.000607   0.036663   0.088358  -0.089173  -0.029076
    13  H   -0.006408   0.285083  -0.032254   0.039027  -0.010616   0.023705
    14  H   -0.000291   0.025356   0.050439   0.194933   0.027518  -0.000417
    15  H    0.312371  -0.026507   0.041544  -0.035674   0.052552  -0.052541
    16  H    0.007989   0.009046  -0.027455   0.008971   0.135118   0.186126
               7          8          9         10         11         12
     1  C   -0.039965   0.183774  -0.089986  -0.002675   0.007222   0.001937
     2  C    0.025590  -0.278117   0.051641  -0.010532   0.001031  -0.000607
     3  C   -0.443363   3.632060  -1.507833  -0.120170  -0.009446   0.036663
     4  C   -0.406640  -0.022966   0.045912  -0.054370  -0.034059   0.088358
     5  C    0.705802  -5.604376   2.128022   0.135926   0.069763  -0.089173
     6  C    0.207085  -2.235715   0.620636   0.022519   0.047965  -0.029076
     7  N    7.401724  -0.673181   0.532462   0.270572   0.007978  -0.057323
     8  C   -0.673181  13.050162  -2.503739   0.037032   0.205197   0.042758
     9  C    0.532462  -2.503739   6.717732  -0.044355  -0.005149   0.309480
    10  H    0.270572   0.037032  -0.044355   0.341410  -0.000100  -0.002328
    11  H    0.007978   0.205197  -0.005149  -0.000100   0.494925  -0.000513
    12  H   -0.057323   0.042758   0.309480  -0.002328  -0.000513   0.481225
    13  H   -0.000365  -0.002744   0.001802  -0.000002   0.000000  -0.000000
    14  H   -0.010493  -0.023622   0.017437   0.002168   0.000002   0.000003
    15  H    0.000352   0.008104  -0.000861  -0.000000  -0.000002  -0.000000
    16  H   -0.000265  -0.044874   0.007652   0.000004   0.001524  -0.000002
              13         14         15         16
     1  C   -0.006408  -0.000291   0.312371   0.007989
     2  C    0.285083   0.025356  -0.026507   0.009046
     3  C   -0.032254   0.050439   0.041544  -0.027455
     4  C    0.039027   0.194933  -0.035674   0.008971
     5  C   -0.010616   0.027518   0.052552   0.135118
     6  C    0.023705  -0.000417  -0.052541   0.186126
     7  N   -0.000365  -0.010493   0.000352  -0.000265
     8  C   -0.002744  -0.023622   0.008104  -0.044874
     9  C    0.001802   0.017437  -0.000861   0.007652
    10  H   -0.000002   0.002168  -0.000000   0.000004
    11  H    0.000000   0.000002  -0.000002   0.001524
    12  H   -0.000000   0.000003  -0.000000  -0.000002
    13  H    0.520548  -0.004046  -0.004114  -0.000167
    14  H   -0.004046   0.535858  -0.000171   0.000019
    15  H   -0.004114  -0.000171   0.522042  -0.003977
    16  H   -0.000167   0.000019  -0.003977   0.534396
 Mulliken charges:
               1
     1  C   -0.024835
     2  C   -0.426294
     3  C   -0.117362
     4  C   -0.976628
     5  C    1.142696
     6  C   -0.632794
     7  N   -0.519968
     8  C    0.230248
     9  C   -0.280853
    10  H    0.424899
    11  H    0.213662
    12  H    0.218597
    13  H    0.190551
    14  H    0.185307
    15  H    0.186880
    16  H    0.185895
 Sum of Mulliken charges =  -0.00000
 Mulliken charges with hydrogens summed into heavy atoms:
               1
     1  C    0.162045
     2  C   -0.235743
     3  C    0.067945
     4  C   -0.976628
     5  C    1.142696
     6  C   -0.446899
     7  N   -0.095069
     8  C    0.443909
     9  C   -0.062256
 Electronic spatial extent (au):  <R**2>=           1006.7544
 Charge=              0.0000 electrons
 Dipole moment (field-independent basis, Debye):
    X=              2.4219    Y=             -1.5513    Z=              0.0006  Tot=              2.8762
 Quadrupole moment (field-independent basis, Debye-Ang):
   XX=            -44.8165   YY=            -46.2302   ZZ=            -59.6849
   XY=             -2.4295   XZ=              0.0020   YZ=             -0.0024
 Traceless Quadrupole moment (field-independent basis, Debye-Ang):
   XX=              5.4274   YY=              4.0136   ZZ=             -9.4410
   XY=             -2.4295   XZ=              0.0020   YZ=             -0.0024
 Octapole moment (field-independent basis, Debye-Ang**2):
  XXX=             19.4483  YYY=             -9.9602  ZZZ=             -0.0042  XYY=             11.3786
  XXY=             -7.5991  XXZ=              0.0043  XZZ=              3.2786  YZZ=             -1.6762
  YYZ=             -0.0007  XYZ=             -0.0052
 Hexadecapole moment (field-independent basis, Debye-Ang**3):
 XXXX=           -818.0351 YYYY=           -381.3653 ZZZZ=            -79.0096 XXXY=            -16.6748
 XXXZ=              0.0124 YYYX=            -17.4261 YYYZ=             -0.0080 ZZZX=              0.0012
 ZZZY=              0.0015 XXYY=           -195.7709 XXZZ=           -194.8980 YYZZ=            -99.3116
 XXYZ=             -0.0085 YYXZ=              0.0067 ZZXY=             -2.6606
 N-N= 4.013368668897D+02 E-N=-1.644817846605D+03  KE= 3.603524858081D+02
 Calling FoFJK, ICntrl=  10005127 FMM=F ISym2X=0 I1Cent= 0 IOpClX= 0 NMat=1 NMatS=1 NMatT=0.
 ***** Axes restored to original set *****
 -------------------------------------------------------------------
 Center     Atomic                   Forces (Hartrees/Bohr)
 Number     Number              X              Y              Z
 -------------------------------------------------------------------
      1        6          -0.026692833    0.004416543   -0.000001235
      2        6          -0.022869538   -0.005009142   -0.000000376
      3        6           0.009078282   -0.038184526    0.000004124
      4        6           0.019482448   -0.015839293   -0.000012771
      5        6           0.022075293    0.024269394   -0.000024858
      6        6           0.009221279    0.037925025   -0.000000287
      7        7          -0.003056763    0.000080408    0.000036402
      8        6          -0.027322021    0.018136302    0.000029940
      9        6           0.018779166   -0.023539361   -0.000046273
     10        1           0.001777758   -0.005382611    0.000005513
     11        1           0.001547656    0.004881698    0.000007691
     12        1           0.005244420   -0.000940027   -0.000000121
     13        1          -0.004008179   -0.002536062    0.000000403
     14        1           0.000442451   -0.004106111   -0.000000653
     15        1          -0.004132804    0.001869855    0.000000580
     16        1           0.000433384    0.003957907    0.000001922
 -------------------------------------------------------------------
 Cartesian Forces:  Max     0.038184526 RMS     0.013074280

 GradGradGradGradGradGradGradGradGradGradGradGradGradGradGradGradGradGrad
 Berny optimization.
 FormGI is forming the generalized inverse of G from B-inverse, IUseBI=4.
 Internal  Forces:  Max     0.037963606 RMS     0.009794310
 Search for a local minimum.
 Step number   1 out of a maximum of   94
 All quantities printed in internal units (Hartrees-Bohrs-Radians)
 Mixed Optimization -- RFO/linear search
 Second derivative matrix not updated -- first step.
 ITU=  0
     Eigenvalues ---    0.01853   0.01931   0.01986   0.02012   0.02070
     Eigenvalues ---    0.02113   0.02148   0.02153   0.02172   0.02209
     Eigenvalues ---    0.02233   0.02248   0.02338   0.16000   0.16000
     Eigenvalues ---    0.16000   0.16000   0.16000   0.16000   0.16000
     Eigenvalues ---    0.22000   0.22188   0.22662   0.24011   0.24651
     Eigenvalues ---    0.35712   0.35717   0.35783   0.35790   0.36420
     Eigenvalues ---    0.36427   0.37009   0.38432   0.42633   0.43465
     Eigenvalues ---    0.45769   0.46692   0.47162   0.47468   0.47567
     Eigenvalues ---    0.48125   0.50955
 RFO step:  Lambda=-1.71389715D-02 EMin= 1.85287394D-02
 Linear search not attempted -- first point.
 Iteration  1 RMS(Cart)=  0.03183376 RMS(Int)=  0.00017319
 Iteration  2 RMS(Cart)=  0.00029010 RMS(Int)=  0.00002336
 Iteration  3 RMS(Cart)=  0.00000005 RMS(Int)=  0.00002336
 Variable       Old X    -DE/DX   Delta X   Delta X   Delta X     New X
                                 (Linear)    (Quad)   (Total)
    R1        2.65547   0.03075   0.00000   0.06663   0.06661   2.72208
    R2        2.61291   0.03796   0.00000   0.07579   0.07579   2.68870
    R3        2.04421   0.00453   0.00000   0.01207   0.01207   2.05628
    R4        2.61557   0.03606   0.00000   0.07211   0.07208   2.68766
    R5        2.04411   0.00474   0.00000   0.01264   0.01264   2.05675
    R6        2.63373   0.02600   0.00000   0.05336   0.05336   2.68710
    R7        2.04534   0.00411   0.00000   0.01099   0.01099   2.05632
    R8        2.68058   0.03744   0.00000   0.08350   0.08352   2.76410
    R9        2.60126   0.00297   0.00000   0.00485   0.00480   2.60606
   R10        2.64771   0.02577   0.00000   0.05458   0.05460   2.70231
   R11        2.70839  -0.00636   0.00000  -0.01415  -0.01410   2.69429
   R12        2.04526   0.00394   0.00000   0.01054   0.01054   2.05580
   R13        2.60573   0.00440   0.00000   0.00833   0.00830   2.61402
   R14        1.89542   0.00567   0.00000   0.01160   0.01160   1.90702
   R15        2.57870   0.03403   0.00000   0.06401   0.06404   2.64274
   R16        2.03419   0.00512   0.00000   0.01341   0.01341   2.04760
   R17        2.03430   0.00531   0.00000   0.01394   0.01394   2.04824
    A1        2.11420   0.00180   0.00000   0.00963   0.00960   2.12380
    A2        2.07986  -0.00121   0.00000  -0.00658  -0.00656   2.07329
    A3        2.08912  -0.00059   0.00000  -0.00305  -0.00304   2.08609
    A4        2.11523   0.00360   0.00000   0.01662   0.01658   2.13181
    A5        2.08365  -0.00163   0.00000  -0.00737  -0.00735   2.07631
    A6        2.08430  -0.00197   0.00000  -0.00926  -0.00923   2.07507
    A7        2.05144  -0.00617   0.00000  -0.02624  -0.02626   2.02518
    A8        2.11267   0.00348   0.00000   0.01534   0.01535   2.12802
    A9        2.11908   0.00269   0.00000   0.01090   0.01091   2.12999
   A10        2.13389   0.00275   0.00000   0.01043   0.01048   2.14436
   A11        2.27895  -0.00469   0.00000  -0.01570  -0.01569   2.26326
   A12        1.87035   0.00194   0.00000   0.00528   0.00521   1.87556
   A13        2.07274   0.00489   0.00000   0.01746   0.01748   2.09022
   A14        1.86517  -0.00434   0.00000  -0.01552  -0.01549   1.84969
   A15        2.34527  -0.00054   0.00000  -0.00194  -0.00199   2.34327
   A16        2.07887  -0.00685   0.00000  -0.02790  -0.02788   2.05099
   A17        2.10306   0.00398   0.00000   0.01709   0.01708   2.12014
   A18        2.10125   0.00287   0.00000   0.01081   0.01080   2.11205
   A19        1.90743   0.00146   0.00000   0.00335   0.00328   1.91070
   A20        2.19023  -0.00073   0.00000  -0.00168  -0.00164   2.18859
   A21        2.18553  -0.00073   0.00000  -0.00167  -0.00163   2.18390
   A22        1.86968   0.00188   0.00000   0.01046   0.01055   1.88023
   A23        2.21717  -0.00118   0.00000  -0.00657  -0.00662   2.21055
   A24        2.19633  -0.00070   0.00000  -0.00389  -0.00393   2.19240
   A25        1.91215  -0.00094   0.00000  -0.00356  -0.00355   1.90860
   A26        2.10250   0.00008   0.00000  -0.00043  -0.00044   2.10207
   A27        2.26854   0.00086   0.00000   0.00399   0.00398   2.27252
    D1       -0.00001   0.00000   0.00000  -0.00000  -0.00000  -0.00002
    D2       -3.14156  -0.00000   0.00000  -0.00004  -0.00004   3.14159
    D3        3.14152   0.00000   0.00000   0.00005   0.00005   3.14158
    D4       -0.00002   0.00000   0.00000   0.00001   0.00001  -0.00001
    D5       -0.00003   0.00000   0.00000   0.00007   0.00007   0.00004
    D6        3.14153   0.00000   0.00000   0.00008   0.00008  -3.14158
    D7       -3.14157   0.00000   0.00000   0.00001   0.00001  -3.14155
    D8       -0.00001   0.00000   0.00000   0.00002   0.00002   0.00002
    D9        0.00003  -0.00000   0.00000  -0.00006  -0.00006  -0.00003
   D10       -3.14154  -0.00000   0.00000  -0.00002  -0.00002  -3.14156
   D11        3.14158  -0.00000   0.00000  -0.00002  -0.00003   3.14155
   D12        0.00001   0.00000   0.00000   0.00002   0.00002   0.00003
   D13       -0.00001   0.00000   0.00000   0.00006   0.00006   0.00005
   D14       -3.14144  -0.00000   0.00000  -0.00000  -0.00000  -3.14144
   D15        3.14156   0.00000   0.00000   0.00002   0.00002   3.14158
   D16        0.00013  -0.00000   0.00000  -0.00004  -0.00004   0.00009
   D17       -0.00004   0.00000   0.00000   0.00000   0.00000  -0.00003
   D18       -3.14151  -0.00000   0.00000  -0.00012  -0.00012   3.14155
   D19        3.14143   0.00000   0.00000   0.00005   0.00005   3.14148
   D20       -0.00005  -0.00000   0.00000  -0.00007  -0.00007  -0.00013
   D21       -3.14124  -0.00001   0.00000  -0.00023  -0.00023  -3.14147
   D22       -0.00113   0.00000   0.00000   0.00007   0.00007  -0.00107
   D23        0.00049  -0.00001   0.00000  -0.00029  -0.00029   0.00021
   D24        3.14060   0.00000   0.00000   0.00001   0.00001   3.14062
   D25        0.00005  -0.00000   0.00000  -0.00007  -0.00007  -0.00001
   D26       -3.14151  -0.00000   0.00000  -0.00008  -0.00008  -3.14159
   D27        3.14150   0.00000   0.00000   0.00010   0.00010  -3.14159
   D28       -0.00007   0.00000   0.00000   0.00009   0.00009   0.00002
   D29       -0.00041   0.00002   0.00000   0.00041   0.00041   0.00000
   D30        3.14139   0.00001   0.00000   0.00015   0.00015   3.14154
   D31        3.14132   0.00001   0.00000   0.00026   0.00026   3.14158
   D32       -0.00006   0.00000   0.00000  -0.00001  -0.00001  -0.00007
   D33       -0.00077   0.00002   0.00000   0.00057   0.00056  -0.00021
   D34        3.14133   0.00001   0.00000   0.00016   0.00016   3.14148
   D35       -3.14089   0.00001   0.00000   0.00027   0.00027  -3.14062
   D36        0.00121  -0.00000   0.00000  -0.00014  -0.00014   0.00107
   D37        0.00072  -0.00002   0.00000  -0.00059  -0.00060   0.00013
   D38       -3.14144  -0.00000   0.00000  -0.00014  -0.00014  -3.14158
   D39       -3.14107  -0.00001   0.00000  -0.00033  -0.00034  -3.14141
   D40       -0.00005   0.00001   0.00000   0.00012   0.00012   0.00007
         Item               Value     Threshold  Converged?
 Maximum Force            0.037964     0.000450     NO 
 RMS     Force            0.009794     0.000300     NO 
 Maximum Displacement     0.122918     0.001800     NO 
 RMS     Displacement     0.031800     0.001200     NO 
 Predicted change in Energy=-8.891106D-03
 GradGradGradGradGradGradGradGradGradGradGradGradGradGradGradGradGradGrad

                          Input orientation:                          
 ---------------------------------------------------------------------
 Center     Atomic      Atomic             Coordinates (Angstroms)
 Number     Number       Type             X           Y           Z
 ---------------------------------------------------------------------
      1          6           0       -2.182169    0.708633    0.000005
      2          6           0       -2.149827   -0.731468    0.000032
      3          6           0       -0.928902   -1.460938    0.000047
      4          6           0        0.262174   -0.684227   -0.000004
      5          6           0        0.255899    0.778457   -0.000001
      6          6           0       -0.988523    1.482953    0.000013
      7          7           0        1.579455   -1.092394   -0.000168
      8          6           0        1.624870    1.176829    0.000001
      9          6           0        2.405964    0.016818   -0.000001
     10          1           0        1.894328   -2.051166    0.000595
     11          1           0        2.003100    2.192215   -0.000047
     12          1           0        3.483401   -0.101208    0.000009
     13          1           0       -3.090011   -1.279772    0.000032
     14          1           0       -0.908599   -2.548908    0.000035
     15          1           0       -3.147321    1.211155   -0.000022
     16          1           0       -1.016934    2.570466    0.000008
 ---------------------------------------------------------------------
                    Distance matrix (angstroms):
                    1          2          3          4          5
     1  C    0.000000
     2  C    1.440464   0.000000
     3  C    2.505537   1.422246   0.000000
     4  C    2.813338   2.412463   1.421950   0.000000
     5  C    2.439068   2.840315   2.533504   1.462697   0.000000
     6  C    1.422801   2.500457   2.944495   2.502181   1.430001
     7  N    4.170553   3.746706   2.535287   1.379068   2.291699
     8  C    3.835720   4.229649   3.671453   2.306614   1.425756
     9  C    4.639997   4.616834   3.647615   2.255504   2.280981
    10  H    4.922836   4.254032   2.884267   2.128955   3.269742
    11  H    4.440438   5.078850   4.684246   3.362252   2.247537
    12  H    5.723157   5.668375   4.617064   3.273563   3.345232
    13  H    2.185848   1.088386   2.168689   3.404676   3.928285
    14  H    3.497650   2.200849   1.088160   2.201760   3.525254
    15  H    1.088139   2.183753   3.472961   3.900913   3.430617
    16  H    2.196405   3.490876   4.032365   3.497019   2.198045
                    6          7          8          9         10
     6  C    0.000000
     7  N    3.636884   0.000000
     8  C    2.631261   2.269678   0.000000
     9  C    3.697580   1.383281   1.398476   0.000000
    10  H    4.560792   1.009153   3.239222   2.130335   0.000000
    11  H    3.074550   3.311817   1.083543   2.212386   4.244774
    12  H    4.744225   2.146500   2.255553   1.083882   2.515450
    13  H    3.471153   4.673224   5.316483   5.646847   5.043678
    14  H    4.032653   2.883027   4.505506   4.191572   2.846779
    15  H    2.175840   5.258207   4.772314   5.680265   6.005078
    16  H    1.087884   4.489742   2.986863   4.270522   5.462136
                   11         12         13         14         15
    11  H    0.000000
    12  H    2.729667   0.000000
    13  H    6.163966   6.678230   0.000000
    14  H    5.563833   5.028011   2.523740   0.000000
    15  H    5.243025   6.759346   2.491586   4.376065   0.000000
    16  H    3.043630   5.233628   4.372869   5.120521   2.527108
                   16
    16  H    0.000000
 Stoichiometry    C8H7N
 Framework group  C1[X(C8H7N)]
 Deg. of freedom    42
 Full point group                 C1      NOp   1
 Largest Abelian subgroup         C1      NOp   1
 Largest concise Abelian subgroup C1      NOp   1
                         Standard orientation:                         
 ---------------------------------------------------------------------
 Center     Atomic      Atomic             Coordinates (Angstroms)
 Number     Number       Type             X           Y           Z
 ---------------------------------------------------------------------
      1          6           0       -2.188677    0.690765    0.000005
      2          6           0       -2.145291   -0.749045    0.000032
      3          6           0       -0.918808   -1.469130    0.000047
      4          6           0        0.266276   -0.683307   -0.000004
      5          6           0        0.248784    0.779285   -0.000001
      6          6           0       -1.001005    1.474217    0.000013
      7          7           0        1.586649   -1.081360   -0.000168
      8          6           0        1.614659    1.188145    0.000001
      9          6           0        2.404626    0.034158   -0.000000
     10          1           0        1.908866   -2.037689    0.000596
     11          1           0        1.985091    2.206401   -0.000046
     12          1           0        3.482937   -0.075601    0.000010
     13          1           0       -3.081243   -1.304545    0.000032
     14          1           0       -0.890162   -2.556913    0.000035
     15          1           0       -3.157654    1.185870   -0.000021
     16          1           0       -1.037756    2.561480    0.000008
 ---------------------------------------------------------------------
 Rotational constants (GHZ):           3.7136160           1.6107758           1.1234716
 Standard basis: 6-31+G(d) (6D, 7F)
 There are   185 symmetry adapted cartesian basis functions of A   symmetry.
 There are   185 symmetry adapted basis functions of A   symmetry.
   185 basis functions,   316 primitive gaussians,   185 cartesian basis functions
    31 alpha electrons       31 beta electrons
       nuclear repulsion energy       395.1064576334 Hartrees.
 NAtoms=   16 NActive=   16 NUniq=   16 SFac= 1.00D+00 NAtFMM=   60 NAOKFM=F Big=F
 Integral buffers will be    131072 words long.
 Regular integral format.
 Two-electron integral symmetry is turned on.
 One-electron integrals computed using PRISM.
 NBasis=   185 RedAO= T EigKep=  1.54D-06  NBF=   185
 NBsUse=   185 1.00D-06 EigRej= -1.00D+00 NBFU=   185
 Initial guess from the checkpoint file:  "FuncsBMK-V-2nd.chk"
 B after Tr=     0.000000   -0.000000    0.000000
         Rot=    0.999993    0.000004    0.000002   -0.003716 Ang=   0.43 deg.
 ExpMin= 4.38D-02 ExpMax= 4.17D+03 ExpMxC= 6.27D+02 IAcc=3 IRadAn=         5 AccDes= 0.00D+00
 Harris functional with IExCor= 1009 and IRadAn=       5 diagonalized for initial guess.
 HarFok:  IExCor= 1009 AccDes= 0.00D+00 IRadAn=         5 IDoV= 1 UseB2=F ITyADJ=14
 ICtDFT=  3500011 ScaDFX=  1.000000  1.000000  1.000000  1.000000
 FoFCou: FMM=F IPFlag=           0 FMFlag=      100000 FMFlg1=           0
         NFxFlg=           0 DoJE=T BraDBF=F KetDBF=T FulRan=T
         wScrn=  0.000000 ICntrl=       500 IOpCl=  0 I1Cent=   200000004 NGrid=           0
         NMat0=    1 NMatS0=      1 NMatT0=    0 NMatD0=    1 NMtDS0=    0 NMtDT0=    0
 Petite list used in FoFCou.
 Keep R1 ints in memory in canonical form, NReq=152074523.
 Requested convergence on RMS density matrix=1.00D-08 within 128 cycles.
 Requested convergence on MAX density matrix=1.00D-06.
 Requested convergence on             energy=1.00D-06.
 No special actions if energy rises.
 SCF Done:  E(RBMK) =  -363.580787661     A.U. after   13 cycles
            NFock= 13  Conv=0.75D-08     -V/T= 2.0114
 DoSCS=F DFT=T ScalE2(SS,OS)=  1.000000  1.000000
 ExpMin= 4.38D-02 ExpMax= 4.17D+03 ExpMxC= 6.27D+02 IAcc=3 IRadAn=         5 AccDes= 0.00D+00
 HarFok:  IExCor=  205 AccDes= 0.00D+00 IRadAn=         5 IDoV=-2 UseB2=F ITyADJ=14
 ICtDFT= 12500011 ScaDFX=  1.000000  1.000000  1.000000  1.000000
 Range of M.O.s used for correlation:    10   185
 NBasis=   185 NAE=    31 NBE=    31 NFC=     9 NFV=     0
 NROrb=    176 NOA=    22 NOB=    22 NVA=   154 NVB=   154

 **** Warning!!: The largest alpha MO coefficient is  0.17481652D+03

 Orbital symmetries:
       Occupied  (A) (A) (A) (A) (A) (A) (A) (A) (A) (A) (A) (A)
                 (A) (A) (A) (A) (A) (A) (A) (A) (A) (A) (A) (A)
                 (A) (A) (A) (A) (A) (A) (A)
       Virtual   (A) (A) (A) (A) (A) (A) (A) (A) (A) (A) (A) (A)
                 (A) (A) (A) (A) (A) (A) (A) (A) (A) (A) (A) (A)
                 (A) (A) (A) (A) (A) (A) (A) (A) (A) (A) (A) (A)
                 (A) (A) (A) (A) (A) (A) (A) (A) (A) (A) (A) (A)
                 (A) (A) (A) (A) (A) (A) (A) (A) (A) (A) (A) (A)
                 (A) (A) (A) (A) (A) (A) (A) (A) (A) (A) (A) (A)
                 (A) (A) (A) (A) (A) (A) (A) (A) (A) (A) (A) (A)
                 (A) (A) (A) (A) (A) (A) (A) (A) (A) (A) (A) (A)
                 (A) (A) (A) (A) (A) (A) (A) (A) (A) (A) (A) (A)
                 (A) (A) (A) (A) (A) (A) (A) (A) (A) (A) (A) (A)
                 (A) (A) (A) (A) (A) (A) (A) (A) (A) (A) (A) (A)
                 (A) (A) (A) (A) (A) (A) (A) (A) (A) (A) (A) (A)
                 (A) (A) (A) (A) (A) (A) (A) (A) (A) (A)
 Generating guess from densities on rwf.
 Convergence on wavefunction:    0.000001000000000
 Iteration     1 Dimension    12 NMult     0 NNew     12
 CISAX will form    12 AO SS matrices at one time.
 New state      1 was old state      2
 New state      2 was old state      1
 New state      4 was old state      6
 New state      5 was old state      4
 New state      6 was old state      5
 Iteration     2 Dimension    24 NMult    12 NNew     12
 Iteration     3 Dimension    36 NMult    24 NNew     12
 New state      4 was old state      5
 New state      5 was old state      4
 Iteration     4 Dimension    48 NMult    36 NNew     12
 Iteration     5 Dimension    60 NMult    48 NNew     12
 Iteration     6 Dimension    72 NMult    60 NNew     12
 Iteration     7 Dimension    84 NMult    72 NNew     12
 Iteration     8 Dimension    96 NMult    84 NNew     12
 Iteration     9 Dimension   108 NMult    96 NNew     12
 Iteration    10 Dimension   116 NMult   108 NNew      8
 Iteration    11 Dimension   122 NMult   116 NNew      6
 Iteration    12 Dimension   126 NMult   122 NNew      4
 Iteration    13 Dimension   128 NMult   126 NNew      2
 ***********************************************************************
 Excited states from <AA,BB:AA,BB> singles matrix:
 ***********************************************************************
 
 Ground to excited state transition densities written to RWF  633
 Ground to excited state transition electric dipole moments (Au):
       state          X           Y           Z        Dip. S.      Osc.
         1         0.1567      0.4937      0.0000      0.2683      0.0322
         2        -0.9099      0.5047     -0.0000      1.0827      0.1288
         3         0.0003     -0.0000     -0.1446      0.0209      0.0029
         4        -0.0250     -0.0099     -0.1088      0.0126      0.0019
         5        -1.8559     -0.7469      0.0014      4.0021      0.6018
         6        -0.0006     -0.0004     -0.0016      0.0000      0.0000
 Ground to excited state transition velocity dipole moments (Au):
       state          X           Y           Z        Dip. S.      Osc.
         1        -0.0289     -0.0932     -0.0000      0.0095      0.0352
         2         0.1496     -0.0958      0.0000      0.0315      0.1178
         3        -0.0000      0.0000      0.0202      0.0004      0.0013
         4         0.0055      0.0022      0.0267      0.0007      0.0022
         5         0.4049      0.1669     -0.0003      0.1918      0.5668
         6         0.0001      0.0001      0.0003      0.0000      0.0000
 Ground to excited state transition magnetic dipole moments (Au):
       state          X           Y           Z
         1         0.0001      0.0001      0.1293
         2         0.0000      0.0000      0.1220
         3         0.1402     -0.1285      0.0002
         4         0.0802     -0.2879     -0.0092
         5        -0.0011      0.0037     -0.6874
         6         0.2327     -0.2192     -0.0002
 Ground to excited state transition velocity quadrupole moments (Au):
       state          XX          YY          ZZ          XY          XZ          YZ
         1         0.0739      0.0267     -0.0107      0.0172     -0.0000      0.0000
         2         0.2080     -0.1781      0.0126      0.0226      0.0000     -0.0000
         3        -0.0001      0.0000      0.0001      0.0001      0.0989      0.0461
         4         0.0020     -0.0017     -0.0003     -0.0064      0.2008      0.0309
         5         0.1519     -0.1245     -0.0197     -0.4812     -0.0026     -0.0005
         6         0.0000     -0.0001     -0.0000     -0.0002      0.2545      0.2371
 <0|del|b> * <b|rxdel|0> + <0|del|b> * <b|delr+rdel|0>
 Rotatory Strengths (R) in cgs (10**-40 erg-esu-cm/Gauss)
       state          XX          YY          ZZ    R(velocity)    E-M Angle
         1        -0.0203     -0.0077     -0.0189     -0.0157       90.00
         2         0.0055      0.0004      0.0102      0.0053       90.00
         3         0.0074     -0.0129     -0.0083     -0.0046       90.00
         4        -2.3443      0.8353      0.1197     -0.4631       93.11
         5         2.2768     -0.8809     -0.1401      0.4186       89.92
         6        -0.0674      0.0890      0.0042      0.0086       90.00
 1/2[<0|r|b>*<b|rxdel|0> + (<0|rxdel|b>*<b|r|0>)*]
 Rotatory Strengths (R) in cgs (10**-40 erg-esu-cm/Gauss)
       state          XX          YY          ZZ     R(length)
         1        -0.0120     -0.0310     -0.0012     -0.0147
         2         0.0157     -0.0006      0.0031      0.0060
         3        -0.0285     -0.0007      0.0183     -0.0036
         4         1.4175     -2.0114     -0.7054     -0.4331
         5        -1.4568      1.9387      0.6810      0.3876
         6         0.0916     -0.0638     -0.0003      0.0092
  1/2[<0|del|b>*<b|r|0> + (<0|r|b>*<b|del|0>)*] (Au)
       state          X           Y           Z        Dip. S.   Osc.(frdel)
         1        -0.0045     -0.0460     -0.0000      0.0506      0.0337
         2        -0.1361     -0.0483     -0.0000      0.1845      0.1230
         3        -0.0000     -0.0000     -0.0029      0.0029      0.0019
         4        -0.0001     -0.0000     -0.0029      0.0031      0.0020
         5        -0.7514     -0.1246     -0.0000      0.8761      0.5840
         6        -0.0000     -0.0000     -0.0000      0.0000      0.0000

 Excitation energies and oscillator strengths:
 
 Excited State   1:      Singlet-A      4.9040 eV  252.82 nm  f=0.0322  <S**2>=0.000
      30 -> 32        -0.57261
      31 -> 32         0.21702
      31 -> 34         0.33027
 
 Excited State   2:      Singlet-A      4.8573 eV  255.25 nm  f=0.1288  <S**2>=0.000
      30 -> 32         0.15942
      30 -> 34         0.17188
      31 -> 32         0.63877
      31 -> 34        -0.16961
 This state for optimization and/or second-order correction.
 Total Energy, E(TD-HF/TD-DFT) =  -363.402285014    
 Copying the excited state density for this state as the 1-particle RhoCI density.
 
 Excited State   3:      Singlet-A      5.6231 eV  220.49 nm  f=0.0029  <S**2>=0.000
      31 -> 33         0.69478
 
 Excited State   4:      Singlet-A      6.1346 eV  202.11 nm  f=0.0019  <S**2>=0.000
      30 -> 33         0.64805
      31 -> 35         0.22549
 
 Excited State   5:      Singlet-A      6.1379 eV  202.00 nm  f=0.6018  <S**2>=0.000
      30 -> 32         0.34205
      31 -> 34         0.58403
      31 -> 39         0.11492
 
 Excited State   6:      Singlet-A      6.2378 eV  198.76 nm  f=0.0000  <S**2>=0.000
      30 -> 33        -0.22370
      31 -> 35         0.65443
 SavETr:  write IOETrn=   770 NScale= 10 NData=  16 NLR=1 NState=    6 LETran=     118.
          IDoAtm=1111111111111111
          Differentiating once with respect to electric field.
                with respect to dipole field.
          Differentiating once with respect to nuclear coordinates.
 Keep R1 ints in memory in canonical form, NReq=152086915.
          There are     1 degrees of freedom in the 1st order CPHF.  IDoFFX=0 NUNeed=     1.
 LinEq1:  Iter=  0 NonCon=     1 RMS=9.08D-03 Max=2.53D-01 NDo=     1
 AX will form     1 AO Fock derivatives at one time.
 LinEq1:  Iter=  1 NonCon=     1 RMS=3.21D-03 Max=8.37D-02 NDo=     1
 LinEq1:  Iter=  2 NonCon=     1 RMS=2.05D-03 Max=6.48D-02 NDo=     1
 LinEq1:  Iter=  3 NonCon=     1 RMS=9.34D-04 Max=1.86D-02 NDo=     1
 LinEq1:  Iter=  4 NonCon=     1 RMS=4.59D-04 Max=1.31D-02 NDo=     1
 LinEq1:  Iter=  5 NonCon=     1 RMS=2.22D-04 Max=4.44D-03 NDo=     1
 LinEq1:  Iter=  6 NonCon=     1 RMS=1.14D-04 Max=2.22D-03 NDo=     1
 LinEq1:  Iter=  7 NonCon=     1 RMS=6.29D-05 Max=1.54D-03 NDo=     1
 LinEq1:  Iter=  8 NonCon=     1 RMS=2.68D-05 Max=6.25D-04 NDo=     1
 LinEq1:  Iter=  9 NonCon=     1 RMS=1.35D-05 Max=3.04D-04 NDo=     1
 LinEq1:  Iter= 10 NonCon=     1 RMS=6.55D-06 Max=1.18D-04 NDo=     1
 LinEq1:  Iter= 11 NonCon=     1 RMS=2.70D-06 Max=4.62D-05 NDo=     1
 LinEq1:  Iter= 12 NonCon=     1 RMS=1.46D-06 Max=2.63D-05 NDo=     1
 LinEq1:  Iter= 13 NonCon=     1 RMS=5.76D-07 Max=9.31D-06 NDo=     1
 LinEq1:  Iter= 14 NonCon=     1 RMS=1.38D-07 Max=3.25D-06 NDo=     1
 LinEq1:  Iter= 15 NonCon=     1 RMS=4.85D-08 Max=1.51D-06 NDo=     1
 LinEq1:  Iter= 16 NonCon=     1 RMS=2.57D-08 Max=4.73D-07 NDo=     1
 LinEq1:  Iter= 17 NonCon=     1 RMS=6.13D-09 Max=1.41D-07 NDo=     1
 LinEq1:  Iter= 18 NonCon=     1 RMS=1.99D-09 Max=3.78D-08 NDo=     1
 LinEq1:  Iter= 19 NonCon=     1 RMS=1.03D-09 Max=1.80D-08 NDo=     1
 LinEq1:  Iter= 20 NonCon=     1 RMS=2.84D-10 Max=3.33D-09 NDo=     1
 LinEq1:  Iter= 21 NonCon=     0 RMS=4.48D-11 Max=4.06D-10 NDo=     1
 Linear equations converged to 1.000D-10 1.000D-09 after    21 iterations.
 End of Minotr F.D. properties file   721 does not exist.
 End of Minotr F.D. properties file   722 does not exist.
 End of Minotr F.D. properties file   788 does not exist.
 Calling FoFJK, ICntrl=  10005127 FMM=F ISym2X=0 I1Cent= 0 IOpClX= 0 NMat=1 NMatS=1 NMatT=0.
 ***** Axes restored to original set *****
 -------------------------------------------------------------------
 Center     Atomic                   Forces (Hartrees/Bohr)
 Number     Number              X              Y              Z
 -------------------------------------------------------------------
      1        6          -0.001624937   -0.024795180   -0.000000008
      2        6          -0.011105193    0.037050171    0.000000007
      3        6           0.023439606   -0.007477896    0.000001856
      4        6          -0.022142771    0.019950511   -0.000004485
      5        6           0.013095657   -0.022487956    0.000001889
      6        6          -0.007629749    0.006745064   -0.000001813
      7        7           0.025189448    0.028550881    0.000024672
      8        6          -0.031360454    0.011258574   -0.000006788
      9        6           0.010287461   -0.047269477   -0.000007102
     10        1           0.000990281   -0.000948412   -0.000011258
     11        1           0.001428537   -0.000033102    0.000000908
     12        1          -0.000223903    0.000010579    0.000001976
     13        1          -0.000355153    0.000403509   -0.000000348
     14        1          -0.000003642    0.000734171   -0.000001110
     15        1           0.000017181   -0.000937580    0.000000576
     16        1          -0.000002370   -0.000753856    0.000001028
 -------------------------------------------------------------------
 Cartesian Forces:  Max     0.047269477 RMS     0.013915244

 GradGradGradGradGradGradGradGradGradGradGradGradGradGradGradGradGradGrad
 Berny optimization.
 Using GEDIIS/GDIIS optimizer.
 FormGI is forming the generalized inverse of G from B-inverse, IUseBI=4.
 Internal  Forces:  Max     0.031509192 RMS     0.006812967
 Search for a local minimum.
 Step number   2 out of a maximum of   94
 All quantities printed in internal units (Hartrees-Bohrs-Radians)
 Mixed Optimization -- RFO/linear search
 Update second derivatives using D2CorX and points    1    2
 DE= -9.24D-03 DEPred=-8.89D-03 R= 1.04D+00
 TightC=F SS=  1.41D+00  RLast= 1.94D-01 DXNew= 5.0454D-01 5.8139D-01
 Trust test= 1.04D+00 RLast= 1.94D-01 DXMaxT set to 5.05D-01
 ITU=  1  0
 Use linear search instead of GDIIS.
     Eigenvalues ---    0.01853   0.01932   0.01986   0.02011   0.02071
     Eigenvalues ---    0.02113   0.02148   0.02154   0.02171   0.02209
     Eigenvalues ---    0.02234   0.02248   0.02339   0.15935   0.16000
     Eigenvalues ---    0.16000   0.16000   0.16000   0.16000   0.16010
     Eigenvalues ---    0.18465   0.22011   0.22910   0.23878   0.24654
     Eigenvalues ---    0.30417   0.35715   0.35736   0.35787   0.35917
     Eigenvalues ---    0.36423   0.36612   0.37587   0.38623   0.43088
     Eigenvalues ---    0.44552   0.46475   0.46847   0.47173   0.47656
     Eigenvalues ---    0.49363   0.91296
 RFO step:  Lambda=-8.38494009D-03 EMin= 1.85334871D-02
 Quartic linear search produced a step of -0.01356.
 Iteration  1 RMS(Cart)=  0.02343250 RMS(Int)=  0.00018588
 Iteration  2 RMS(Cart)=  0.00021620 RMS(Int)=  0.00007864
 Iteration  3 RMS(Cart)=  0.00000003 RMS(Int)=  0.00007864
 Variable       Old X    -DE/DX   Delta X   Delta X   Delta X     New X
                                 (Linear)    (Quad)   (Total)
    R1        2.72208  -0.02639  -0.00090  -0.02307  -0.02398   2.69811
    R2        2.68870  -0.00071  -0.00103   0.03668   0.03563   2.72433
    R3        2.05628  -0.00045  -0.00016   0.00478   0.00461   2.06090
    R4        2.68766   0.01719  -0.00098   0.06997   0.06901   2.75666
    R5        2.05675   0.00010  -0.00017   0.00654   0.00637   2.06312
    R6        2.68710  -0.01069  -0.00072   0.00405   0.00335   2.69044
    R7        2.05632  -0.00073  -0.00015   0.00348   0.00333   2.05966
    R8        2.76410  -0.02097  -0.00113  -0.00806  -0.00927   2.75483
    R9        2.60606   0.01512  -0.00007   0.03001   0.03011   2.63617
   R10        2.70231   0.00960  -0.00074   0.04740   0.04664   2.74895
   R11        2.69429  -0.00963   0.00019  -0.02893  -0.02896   2.66533
   R12        2.05580  -0.00076  -0.00014   0.00320   0.00305   2.05886
   R13        2.61402  -0.03151  -0.00011  -0.05669  -0.05661   2.55741
   R14        1.90702   0.00121  -0.00016   0.00822   0.00806   1.91508
   R15        2.64274   0.02558  -0.00087   0.08104   0.08013   2.72287
   R16        2.04760   0.00047  -0.00018   0.00788   0.00770   2.05530
   R17        2.04824  -0.00022  -0.00019   0.00631   0.00612   2.05437
    A1        2.12380  -0.00195  -0.00013  -0.00232  -0.00250   2.12130
    A2        2.07329   0.00012   0.00009  -0.00467  -0.00456   2.06874
    A3        2.08609   0.00183   0.00004   0.00699   0.00706   2.09314
    A4        2.13181   0.00298  -0.00022   0.02120   0.02097   2.15278
    A5        2.07631  -0.00202   0.00010  -0.01324  -0.01313   2.06317
    A6        2.07507  -0.00096   0.00013  -0.00797  -0.00784   2.06723
    A7        2.02518  -0.00191   0.00036  -0.02271  -0.02233   2.00285
    A8        2.12802   0.00097  -0.00021   0.01254   0.01232   2.14034
    A9        2.12999   0.00094  -0.00015   0.01017   0.01001   2.14000
   A10        2.14436  -0.00006  -0.00014   0.00600   0.00584   2.15020
   A11        2.26326  -0.00231   0.00021  -0.01214  -0.01196   2.25130
   A12        1.87556   0.00237  -0.00007   0.00613   0.00612   1.88168
   A13        2.09022   0.00282  -0.00024   0.01912   0.01900   2.10922
   A14        1.84969  -0.00241   0.00021  -0.01841  -0.01848   1.83121
   A15        2.34327  -0.00041   0.00003  -0.00071  -0.00052   2.34275
   A16        2.05099  -0.00187   0.00038  -0.02130  -0.02098   2.03001
   A17        2.12014   0.00091  -0.00023   0.01201   0.01181   2.13195
   A18        2.11205   0.00097  -0.00015   0.00929   0.00917   2.12122
   A19        1.91070   0.00582  -0.00004   0.02386   0.02413   1.93484
   A20        2.18859  -0.00229   0.00002  -0.00833  -0.00846   2.18013
   A21        2.18390  -0.00353   0.00002  -0.01554  -0.01567   2.16822
   A22        1.88023   0.00423  -0.00014   0.02824   0.02786   1.90809
   A23        2.21055  -0.00074   0.00009  -0.00680  -0.00659   2.20397
   A24        2.19240  -0.00349   0.00005  -0.02145  -0.02128   2.17113
   A25        1.90860  -0.01001   0.00005  -0.03984  -0.03964   1.86896
   A26        2.10207   0.00500   0.00001   0.01881   0.01874   2.12081
   A27        2.27252   0.00501  -0.00005   0.02102   0.02090   2.29342
    D1       -0.00002   0.00000   0.00000   0.00001   0.00001  -0.00001
    D2        3.14159   0.00000   0.00000  -0.00000  -0.00000   3.14158
    D3        3.14158   0.00000  -0.00000   0.00003   0.00003  -3.14158
    D4       -0.00001   0.00000  -0.00000   0.00002   0.00002   0.00001
    D5        0.00004  -0.00000  -0.00000   0.00002   0.00002   0.00006
    D6       -3.14158  -0.00000  -0.00000   0.00003   0.00003  -3.14154
    D7       -3.14155  -0.00000  -0.00000  -0.00000  -0.00001  -3.14156
    D8        0.00002  -0.00000  -0.00000   0.00001   0.00001   0.00003
    D9       -0.00003   0.00000   0.00000  -0.00002  -0.00002  -0.00005
   D10       -3.14156  -0.00000   0.00000  -0.00000  -0.00000  -3.14156
   D11        3.14155   0.00000   0.00000  -0.00001  -0.00001   3.14154
   D12        0.00003  -0.00000  -0.00000   0.00001   0.00001   0.00004
   D13        0.00005  -0.00000  -0.00000   0.00001   0.00001   0.00006
   D14       -3.14144  -0.00000   0.00000  -0.00004  -0.00004  -3.14147
   D15        3.14158  -0.00000  -0.00000  -0.00001  -0.00001   3.14157
   D16        0.00009  -0.00000   0.00000  -0.00005  -0.00005   0.00004
   D17       -0.00003   0.00000  -0.00000   0.00002   0.00002  -0.00001
   D18        3.14155   0.00000   0.00000  -0.00001  -0.00001   3.14154
   D19        3.14148   0.00000  -0.00000   0.00005   0.00005   3.14153
   D20       -0.00013   0.00000   0.00000   0.00003   0.00003  -0.00010
   D21       -3.14147   0.00000   0.00000  -0.00014  -0.00015   3.14157
   D22       -0.00107   0.00001  -0.00000   0.00021   0.00021  -0.00086
   D23        0.00021   0.00000   0.00000  -0.00018  -0.00018   0.00002
   D24        3.14062   0.00001  -0.00000   0.00017   0.00017   3.14078
   D25       -0.00001  -0.00000   0.00000  -0.00003  -0.00003  -0.00005
   D26       -3.14159  -0.00000   0.00000  -0.00005  -0.00005   3.14155
   D27       -3.14159  -0.00000  -0.00000   0.00000   0.00001  -3.14159
   D28        0.00002  -0.00000  -0.00000  -0.00001  -0.00001   0.00001
   D29        0.00000  -0.00000  -0.00001   0.00014   0.00014   0.00014
   D30        3.14154  -0.00000  -0.00000   0.00005   0.00005   3.14158
   D31        3.14158   0.00000  -0.00000   0.00011   0.00010  -3.14150
   D32       -0.00007   0.00000   0.00000   0.00001   0.00001  -0.00006
   D33       -0.00021   0.00000  -0.00001   0.00028   0.00027   0.00006
   D34        3.14148   0.00000  -0.00000   0.00011   0.00011   3.14159
   D35       -3.14062  -0.00000  -0.00000  -0.00007  -0.00008  -3.14071
   D36        0.00107  -0.00001   0.00000  -0.00025  -0.00025   0.00082
   D37        0.00013  -0.00000   0.00001  -0.00026  -0.00025  -0.00013
   D38       -3.14158   0.00000   0.00000  -0.00007  -0.00006   3.14154
   D39       -3.14141  -0.00000   0.00000  -0.00017  -0.00016  -3.14157
   D40        0.00007  -0.00000  -0.00000   0.00003   0.00002   0.00009
         Item               Value     Threshold  Converged?
 Maximum Force            0.031509     0.000450     NO 
 RMS     Force            0.006813     0.000300     NO 
 Maximum Displacement     0.071462     0.001800     NO 
 RMS     Displacement     0.023417     0.001200     NO 
 Predicted change in Energy=-4.282034D-03
 GradGradGradGradGradGradGradGradGradGradGradGradGradGradGradGradGradGrad

                          Input orientation:                          
 ---------------------------------------------------------------------
 Center     Atomic      Atomic             Coordinates (Angstroms)
 Number     Number       Type             X           Y           Z
 ---------------------------------------------------------------------
      1          6           0       -2.208879    0.713995   -0.000027
      2          6           0       -2.157547   -0.712858    0.000006
      3          6           0       -0.910893   -1.470385    0.000073
      4          6           0        0.269975   -0.675066    0.000036
      5          6           0        0.250565    0.782596    0.000013
      6          6           0       -1.008125    1.511840    0.000011
      7          7           0        1.603667   -1.084078   -0.000049
[...]
 ! D11   D(13,2,3,4)          -180.0002         -DE/DX =    0.0                 !
 ! D12   D(13,2,3,14)            0.0028         -DE/DX =    0.0                 !
 ! D13   D(2,3,4,5)             -0.0014         -DE/DX =    0.0                 !
 ! D14   D(2,3,4,7)           -179.9967         -DE/DX =    0.0                 !
 ! D15   D(14,3,4,5)           179.9956         -DE/DX =    0.0                 !
 ! D16   D(14,3,4,7)             0.0002         -DE/DX =    0.0                 !
 ! D17   D(3,4,5,6)              0.0023         -DE/DX =    0.0                 !
 ! D18   D(3,4,5,8)           -179.9968         -DE/DX =    0.0                 !
 ! D19   D(7,4,5,6)            179.9985         -DE/DX =    0.0                 !
 ! D20   D(7,4,5,8)             -0.0006         -DE/DX =    0.0                 !
 ! D21   D(3,4,7,9)            179.9968         -DE/DX =    0.0                 !
 ! D22   D(3,4,7,10)            -0.0147         -DE/DX =    0.0                 !
 ! D23   D(5,4,7,9)              0.0008         -DE/DX =    0.0                 !
 ! D24   D(5,4,7,10)           179.9893         -DE/DX =    0.0                 !
 ! D25   D(4,5,6,1)             -0.002          -DE/DX =    0.0                 !
 ! D26   D(4,5,6,16)           179.9963         -DE/DX =    0.0                 !
 ! D27   D(8,5,6,1)            179.9968         -DE/DX =    0.0                 !
 ! D28   D(8,5,6,16)            -0.0049         -DE/DX =    0.0                 !
 ! D29   D(4,5,8,9)              0.0003         -DE/DX =    0.0                 !
 ! D30   D(4,5,8,11)           179.9971         -DE/DX =    0.0                 !
 ! D31   D(6,5,8,9)            180.0013         -DE/DX =    0.0                 !
 ! D32   D(6,5,8,11)            -0.0018         -DE/DX =    0.0                 !
 ! D33   D(4,7,9,8)             -0.0006         -DE/DX =    0.0                 !
 ! D34   D(4,7,9,12)           180.0012         -DE/DX =    0.0                 !
 ! D35   D(10,7,9,8)          -179.989          -DE/DX =    0.0                 !
 ! D36   D(10,7,9,12)            0.0128         -DE/DX =    0.0                 !
 ! D37   D(5,8,9,7)              0.0002         -DE/DX =    0.0                 !
 ! D38   D(5,8,9,12)          -180.0018         -DE/DX =    0.0                 !
 ! D39   D(11,8,9,7)          -179.9968         -DE/DX =    0.0                 !
 ! D40   D(11,8,9,12)            0.0012         -DE/DX =    0.0                 !
 --------------------------------------------------------------------------------
 GradGradGradGradGradGradGradGradGradGradGradGradGradGradGradGradGradGrad

                          Input orientation:                          
 ---------------------------------------------------------------------
 Center     Atomic      Atomic             Coordinates (Angstroms)
 Number     Number       Type             X           Y           Z
 ---------------------------------------------------------------------
      1          6           0       -2.193527    0.686613   -0.000019
      2          6           0       -2.161168   -0.700721    0.000027
      3          6           0       -0.908773   -1.449551    0.000083
      4          6           0        0.249396   -0.656566    0.000097
      5          6           0        0.246511    0.757740    0.000032
      6          6           0       -0.996308    1.476565   -0.000006
      7          7           0        1.593080   -1.060558    0.000085
      8          6           0        1.610312    1.168269   -0.000003
      9          6           0        2.433595   -0.015173    0.000035
     10          1           0        1.884743   -2.030314    0.000280
     11          1           0        1.993992    2.182940   -0.000098
     12          1           0        3.509485   -0.131733   -0.000000
     13          1           0       -3.095244   -1.259740    0.000010
     14          1           0       -0.887912   -2.535575    0.000064
     15          1           0       -3.157373    1.192684   -0.000054
     16          1           0       -1.023904    2.562566    0.000004
 ---------------------------------------------------------------------
                    Distance matrix (angstroms):
                    1          2          3          4          5
     1  C    0.000000
     2  C    1.387711   0.000000
     3  C    2.492747   1.459192   0.000000
     4  C    2.787831   2.410968   1.403631   0.000000
     5  C    2.441074   2.814964   2.491348   1.414309   0.000000
     6  C    1.434350   2.469306   2.927425   2.470228   1.435726
     7  N    4.170252   3.771453   2.531913   1.403103   2.262622
     8  C    3.834212   4.209178   3.633011   2.276426   1.424250
     9  C    4.680039   4.645623   3.637150   2.276425   2.319640
    10  H    4.900405   4.258780   2.853246   2.135777   3.233736
    11  H    4.446832   5.057751   4.649842   3.332628   2.254969
    12  H    5.761427   5.699127   4.610602   3.302065   3.382035
    13  H    2.145083   1.088578   2.194695   3.398593   3.903531
    14  H    3.476655   2.233354   1.086225   2.196394   3.483223
    15  H    1.088627   2.139488   3.469526   3.876313   3.431560
    16  H    2.210706   3.455779   4.013768   3.461806   2.207113
                    6          7          8          9         10
     6  C    0.000000
     7  N    3.625179   0.000000
     8  C    2.624788   2.228894   0.000000
     9  C    3.740256   1.341378   1.441641   0.000000
    10  H    4.538574   1.012666   3.210334   2.088547   0.000000
    11  H    3.072598   3.268181   1.084789   2.241640   4.214669
    12  H    4.784224   2.129630   2.301492   1.082186   2.498879
    13  H    3.448609   4.692554   5.295044   5.667187   5.039251
    14  H    4.013605   2.886347   4.467615   4.169513   2.818316
    15  H    2.179631   5.257747   4.767748   5.719951   5.984200
    16  H    1.086351   4.469411   2.980462   4.312660   5.436429
                   11         12         13         14         15
    11  H    0.000000
    12  H    2.766663   0.000000
    13  H    6.144296   6.700362   0.000000
    14  H    5.528992   5.011543   2.549524   0.000000
    15  H    5.245681   6.797138   2.453211   4.364674   0.000000
    16  H    3.041679   5.273600   4.347468   5.099955   2.535403
                   16
    16  H    0.000000
 Stoichiometry    C8H7N
 Framework group  C1[X(C8H7N)]
 Deg. of freedom    42
 Full point group                 C1      NOp   1
 Largest Abelian subgroup         C1      NOp   1
 Largest concise Abelian subgroup C1      NOp   1
                         Standard orientation:                         
 ---------------------------------------------------------------------
 Center     Atomic      Atomic             Coordinates (Angstroms)
 Number     Number       Type             X           Y           Z
 ---------------------------------------------------------------------
      1          6           0       -2.205525    0.647344   -0.000056
      2          6           0       -2.150035   -0.739257   -0.000010
      3          6           0       -0.885327   -1.467099    0.000047
      4          6           0        0.259457   -0.654911    0.000060
      5          6           0        0.232988    0.759150   -0.000005
      6          6           0       -1.021645    1.457151   -0.000042
      7          7           0        1.609691   -1.036440    0.000048
      8          6           0        1.589753    1.192365   -0.000040
      9          6           0        2.432656    0.022816   -0.000002
     10          1           0        1.917484   -2.001197    0.000244
     11          1           0        1.956460    2.213292   -0.000134
     12          1           0        3.510341   -0.075786   -0.000037
     13          1           0       -3.074660   -1.313775   -0.000027
     14          1           0       -0.846359   -2.552624    0.000027
     15          1           0       -3.177676    1.137272   -0.000091
     16          1           0       -1.067347    2.542540   -0.000033
 ---------------------------------------------------------------------
 Rotational constants (GHZ):           3.8236938           1.5972279           1.1266185

 **********************************************************************

            Population analysis using the CI Density.

 **********************************************************************

 Orbital symmetries:
       Occupied  (A) (A) (A) (A) (A) (A) (A) (A) (A) (A) (A) (A)
                 (A) (A) (A) (A) (A) (A) (A) (A) (A) (A) (A) (A)
                 (A) (A) (A) (A) (A) (A) (A)
       Virtual   (A) (A) (A) (A) (A) (A) (A) (A) (A) (A) (A) (A)
                 (A) (A) (A) (A) (A) (A) (A) (A) (A) (A) (A) (A)
                 (A) (A) (A) (A) (A) (A) (A) (A) (A) (A) (A) (A)
                 (A) (A) (A) (A) (A) (A) (A) (A) (A) (A) (A) (A)
                 (A) (A) (A) (A) (A) (A) (A) (A) (A) (A) (A) (A)
                 (A) (A) (A) (A) (A) (A) (A) (A) (A) (A) (A) (A)
                 (A) (A) (A) (A) (A) (A) (A) (A) (A) (A) (A) (A)
                 (A) (A) (A) (A) (A) (A) (A) (A) (A) (A) (A) (A)
                 (A) (A) (A) (A) (A) (A) (A) (A) (A) (A) (A) (A)
                 (A) (A) (A) (A) (A) (A) (A) (A) (A) (A) (A) (A)
                 (A) (A) (A) (A) (A) (A) (A) (A) (A) (A) (A) (A)
                 (A) (A) (A) (A) (A) (A) (A) (A) (A) (A) (A) (A)
                 (A) (A) (A) (A) (A) (A) (A) (A) (A) (A)
 The electronic state is 1-A.
 Alpha  occ. eigenvalues --  -14.72828 -10.52864 -10.52118 -10.49512 -10.48778
 Alpha  occ. eigenvalues --  -10.48486 -10.48438 -10.48060 -10.47301  -1.06714
 Alpha  occ. eigenvalues --   -0.90658  -0.84324  -0.80580  -0.77105  -0.68762
 Alpha  occ. eigenvalues --   -0.65249  -0.63219  -0.59395  -0.53463  -0.52172
 Alpha  occ. eigenvalues --   -0.48256  -0.47671  -0.47346  -0.44716  -0.43418
 Alpha  occ. eigenvalues --   -0.38924  -0.38451  -0.37639  -0.30982  -0.26364
 Alpha  occ. eigenvalues --   -0.22289
 Alpha virt. eigenvalues --   -0.00329   0.03001   0.04897   0.04926   0.05561
 Alpha virt. eigenvalues --    0.06592   0.07054   0.07511   0.09086   0.09403
 Alpha virt. eigenvalues --    0.09947   0.10164   0.12471   0.12876   0.13444
 Alpha virt. eigenvalues --    0.13590   0.14892   0.16617   0.17401   0.17550
 Alpha virt. eigenvalues --    0.18421   0.19281   0.19700   0.20312   0.20486
 Alpha virt. eigenvalues --    0.20907   0.22019   0.22809   0.22845   0.23130
 Alpha virt. eigenvalues --    0.23585   0.23884   0.24952   0.25440   0.26669
 Alpha virt. eigenvalues --    0.27053   0.27184   0.27392   0.28287   0.29391
 Alpha virt. eigenvalues --    0.30010   0.30466   0.31452   0.32632   0.33717
 Alpha virt. eigenvalues --    0.34602   0.35805   0.37271   0.39305   0.39462
 Alpha virt. eigenvalues --    0.40820   0.43321   0.46466   0.49632   0.55657
 Alpha virt. eigenvalues --    0.61837   0.64901   0.71922   0.72783   0.75057
 Alpha virt. eigenvalues --    0.76814   0.77562   0.77917   0.78289   0.78791
 Alpha virt. eigenvalues --    0.80880   0.80946   0.82835   0.83475   0.84560
 Alpha virt. eigenvalues --    0.86322   0.90824   0.94192   0.96180   0.96831
 Alpha virt. eigenvalues --    1.01058   1.01434   1.01965   1.03272   1.04343
 Alpha virt. eigenvalues --    1.05688   1.09547   1.11681   1.13689   1.15832
 Alpha virt. eigenvalues --    1.17379   1.19277   1.23461   1.23840   1.27403
 Alpha virt. eigenvalues --    1.29250   1.30713   1.31539   1.38119   1.39103
 Alpha virt. eigenvalues --    1.42352   1.42377   1.46617   1.47849   1.49892
 Alpha virt. eigenvalues --    1.54196   1.54980   1.56579   1.57388   1.60678
 Alpha virt. eigenvalues --    1.64672   1.69948   1.84535   1.90128   1.96443
 Alpha virt. eigenvalues --    1.97150   1.97462   2.02270   2.07185   2.07349
 Alpha virt. eigenvalues --    2.08396   2.10753   2.13797   2.19097   2.22107
 Alpha virt. eigenvalues --    2.23262   2.27279   2.28093   2.30532   2.33385
 Alpha virt. eigenvalues --    2.34533   2.37643   2.43102   2.46655   2.52477
 Alpha virt. eigenvalues --    2.59068   2.61472   2.66916   2.69874   2.71073
 Alpha virt. eigenvalues --    2.72899   2.79133   2.85628   2.89250   2.90637
 Alpha virt. eigenvalues --    3.00656   3.03480   3.15552   3.28771   3.45056
 Alpha virt. eigenvalues --    4.23863   4.30811   4.34867   4.37940   4.42477
 Alpha virt. eigenvalues --    4.46976   4.54085   4.58356   4.83163
          Condensed to atoms (all electrons):
               1          2          3          4          5          6
     1  C    5.523340   0.442779   0.247060  -0.328265  -0.183826   0.000638
     2  C    0.442779   5.729736  -0.317147   0.197340  -0.261830   0.438954
     3  C    0.247060  -0.317147  14.491171  -2.697436  -4.663454  -2.347232
     4  C   -0.328265   0.197340  -2.697436  13.300690  -3.047667  -1.278511
     5  C   -0.183826  -0.261830  -4.663454  -3.047667  15.935903  -0.289513
     6  C    0.000638   0.438954  -2.347232  -1.278511  -0.289513  11.632058
     7  N   -0.021278   0.024406  -0.432745  -0.331752   0.766156   0.120967
     8  C    0.122746  -0.258655   3.335163   1.442977  -5.709724  -2.618058
     9  C   -0.067742   0.033757  -1.251019  -0.360754   1.885829   0.673523
    10  H   -0.004119  -0.003924  -0.125325  -0.044252   0.140415   0.017494
    11  H    0.006049   0.001653  -0.005195  -0.055056   0.054549   0.067759
    12  H    0.001621  -0.000802   0.029822   0.077433  -0.081591  -0.019839
    13  H    0.001654   0.295852  -0.059560   0.041579  -0.011277   0.029716
    14  H    0.005754   0.007414   0.094491   0.151089   0.040419   0.002253
    15  H    0.294465  -0.004433   0.037281  -0.030797   0.047554  -0.055461
    16  H   -0.007715   0.014870  -0.028200   0.012117   0.106302   0.236811
               7          8          9         10         11         12
     1  C   -0.021278   0.122746  -0.067742  -0.004119   0.006049   0.001621
     2  C    0.024406  -0.258655   0.033757  -0.003924   0.001653  -0.000802
     3  C   -0.432745   3.335163  -1.251019  -0.125325  -0.005195   0.029822
     4  C   -0.331752   1.442977  -0.360754  -0.044252  -0.055056   0.077433
     5  C    0.766156  -5.709724   1.885829   0.140415   0.054549  -0.081591
     6  C    0.120967  -2.618058   0.673523   0.017494   0.067759  -0.019839
     7  N    7.208826  -0.643399   0.533015   0.259714   0.008216  -0.050526
     8  C   -0.643399  12.003780  -2.013239   0.020573   0.235045   0.033391
     9  C    0.533015  -2.013239   6.516749  -0.033307  -0.019694   0.322017
    10  H    0.259714   0.020573  -0.033307   0.333042  -0.000079  -0.002166
    11  H    0.008216   0.235045  -0.019694  -0.000079   0.475602  -0.000188
    12  H   -0.050526   0.033391   0.322017  -0.002166  -0.000188   0.457104
    13  H   -0.000226  -0.003720   0.001950  -0.000002   0.000000  -0.000000
    14  H   -0.007374  -0.026408   0.017553   0.002272   0.000002   0.000002
    15  H    0.000280   0.008474  -0.000842  -0.000000  -0.000002  -0.000000
    16  H   -0.000228  -0.054688   0.005835   0.000004   0.001462  -0.000001
              13         14         15         16
     1  C    0.001654   0.005754   0.294465  -0.007715
     2  C    0.295852   0.007414  -0.004433   0.014870
     3  C   -0.059560   0.094491   0.037281  -0.028200
     4  C    0.041579   0.151089  -0.030797   0.012117
     5  C   -0.011277   0.040419   0.047554   0.106302
     6  C    0.029716   0.002253  -0.055461   0.236811
     7  N   -0.000226  -0.007374   0.000280  -0.000228
     8  C   -0.003720  -0.026408   0.008474  -0.054688
     9  C    0.001950   0.017553  -0.000842   0.005835
    10  H   -0.000002   0.002272  -0.000000   0.000004
    11  H    0.000000   0.000002  -0.000002   0.001462
    12  H   -0.000000   0.000002  -0.000000  -0.000001
    13  H    0.533437  -0.003134  -0.004549  -0.000145
    14  H   -0.003134   0.535989  -0.000138   0.000014
    15  H   -0.004549  -0.000138   0.534351  -0.003087
    16  H   -0.000145   0.000014  -0.003087   0.533754
 Mulliken charges:
               1
     1  C   -0.033162
     2  C   -0.339972
     3  C   -0.307673
     4  C   -1.048736
     5  C    1.271755
     6  C   -0.611559
     7  N   -0.434050
     8  C    0.125743
     9  C   -0.243632
    10  H    0.439661
    11  H    0.229877
    12  H    0.233721
    13  H    0.178425
    14  H    0.179804
    15  H    0.176905
    16  H    0.182895
 Sum of Mulliken charges =  -0.00000
 Mulliken charges with hydrogens summed into heavy atoms:
               1
     1  C    0.143742
     2  C   -0.161548
     3  C   -0.127870
     4  C   -1.048736
     5  C    1.271755
     6  C   -0.428664
     7  N    0.005611
     8  C    0.355620
     9  C   -0.009911
 Electronic spatial extent (au):  <R**2>=           1029.9820
 Charge=             -0.0000 electrons
 Dipole moment (field-independent basis, Debye):
    X=              4.4977    Y=             -1.3370    Z=              0.0001  Tot=              4.6922
 Quadrupole moment (field-independent basis, Debye-Ang):
   XX=            -43.8230   YY=            -46.0404   ZZ=            -60.5948
   XY=             -2.3890   XZ=              0.0005   YZ=             -0.0008
 Traceless Quadrupole moment (field-independent basis, Debye-Ang):
   XX=              6.3297   YY=              4.1123   ZZ=            -10.4421
   XY=             -2.3890   XZ=              0.0005   YZ=             -0.0008
 Octapole moment (field-independent basis, Debye-Ang**2):
  XXX=             30.1873  YYY=             -9.2155  ZZZ=              0.0001  XYY=             15.6808
  XXY=             -7.1595  XXZ=             -0.0003  XZZ=              5.5902  YZZ=             -1.4905
  YYZ=              0.0008  XYZ=             -0.0022
 Hexadecapole moment (field-independent basis, Debye-Ang**3):
 XXXX=           -834.9183 YYYY=           -394.3946 ZZZZ=            -83.0972 XXXY=            -18.4639
 XXXZ=             -0.0029 YYYX=            -15.4395 YYYZ=              0.0031 ZZZX=             -0.0043
 ZZZY=              0.0087 XXYY=           -197.4609 XXZZ=           -200.5199 YYZZ=           -103.8782
 XXYZ=             -0.0020 YYXZ=              0.0017 ZZXY=             -2.0729
 N-N= 3.963548389330D+02 E-N=-1.634310728822D+03  KE= 3.597280797507D+02
 Unable to Open any file for archive entry.
 1\1\GINC-EXP-2-22\FOpt\RBMK TD-FC\6-31+G(d)\C8H7N1\CWALDT\23-Jun-2021\
 0\\# td= (nstates=6, root=2) BMK/6-31+G* Opt density=current\\FuncsBMK
 -V-2nd\\0,1\C,-2.1935272983,0.6866126879,-0.0000193769\C,-2.1611677172
 ,-0.7007207519,0.0000265274\C,-0.9087726697,-1.4495509645,0.0000833607
 \C,0.2493957745,-0.6565659237,0.0000970955\C,0.2465107314,0.7577398751
 ,0.0000320794\C,-0.9963080462,1.4765654214,-0.0000056635\N,1.593079946
 2,-1.0605581109,0.0000847531\C,1.6103116455,1.1682689178,-0.0000033457
 \C,2.4335946131,-0.0151730557,0.0000349175\H,1.884742568,-2.030313569,
 0.0002803317\H,1.99399207,2.1829395093,-0.0000975833\H,3.5094851876,-0
 .13173264,-0.0000003406\H,-3.095244418,-1.2597401182,0.0000100326\H,-0
 .8879122195,-2.5355754405,0.0000637187\H,-3.1573733475,1.1926844059,-0
 .0000544239\H,-1.0239038201,2.5625657568,0.0000039174\\Version=AS64L-G
 16RevC.01\State=1-A\HF=-363.5735877\RMSD=9.465e-09\RMSF=1.182e-04\Dipo
 le=1.7695176,-0.5260297,0.0000536\Quadrupole=4.7059979,3.0574229,-7.76
 34208,-1.7761501,0.0003511,-0.0006013\PG=C01 [X(C8H7N1)]\\@
 The archive entry for this job was punched.


 WE SHOULD BE CAREFUL TO GET OUT OF AN EXPERIENCE ONLY THE WISDOM
 THAT IS IN IT -- AND STOP THERE;
 LEST WE BE LIKE THE CAT THAT SITS DOWN ON A HOT STOVE-LID.
 SHE WILL NEVER SIT DOWN ON A HOT STOVE LID AGAIN;
 BUT ALSO SHE WILL NEVER SIT DOWN ON A COLD ONE ANY MORE.

                                                     -- MARK TWAIN
 Job cpu time:       0 days  6 hours 18 minutes 51.4 seconds.
 Elapsed time:       0 days  1 hours 36 minutes 16.9 seconds.
 File lengths (MBytes):  RWF=    239 Int=      0 D2E=      0 Chk=     11 Scr=      1
 Normal termination of Gaussian 16 at Wed Jun 23 10:09:21 2021.
