 Entering Gaussian System, Link 0=/cm/shared/apps/spack/cpu/opt/spack/linux-centos8-zen/gcc-8.3.1/gaussian-16.C.01-po5bqktfeugvmjyga3v7eigbecnokxng/g16/g16
 Initial command:
 /cm/shared/apps/spack/cpu/opt/spack/linux-centos8-zen/gcc-8.3.1/gaussian-16.C.01-po5bqktfeugvmjyga3v7eigbecnokxng/g16/l1.exe "/scratch/scaparas/job_3575968/Gau-30094.inp" -scrdir="/scratch/scaparas/job_3575968/"
 Entering Link 1 = /cm/shared/apps/spack/cpu/opt/spack/linux-centos8-zen/gcc-8.3.1/gaussian-16.C.01-po5bqktfeugvmjyga3v7eigbecnokxng/g16/l1.exe PID=     30095.
  
 Copyright (c) 1988-2019, Gaussian, Inc.  All Rights Reserved.
  
 This is part of the Gaussian(R) 16 program.  It is based on
 the Gaussian(R) 09 system (copyright 2009, Gaussian, Inc.),
 the Gaussian(R) 03 system (copyright 2003, Gaussian, Inc.),
 the Gaussian(R) 98 system (copyright 1998, Gaussian, Inc.),
 the Gaussian(R) 94 system (copyright 1995, Gaussian, Inc.),
 the Gaussian 92(TM) system (copyright 1992, Gaussian, Inc.),
 the Gaussian 90(TM) system (copyright 1990, Gaussian, Inc.),
 the Gaussian 88(TM) system (copyright 1988, Gaussian, Inc.),
 the Gaussian 86(TM) system (copyright 1986, Carnegie Mellon
 University), and the Gaussian 82(TM) system (copyright 1983,
 Carnegie Mellon University). Gaussian is a federally registered
 trademark of Gaussian, Inc.
  
 This software contains proprietary and confidential information,
 including trade secrets, belonging to Gaussian, Inc.
  
 This software is provided under written license and may be
 used, copied, transmitted, or stored only in accord with that
 written license.
  
 The following legend is applicable only to US Government
 contracts under FAR:
  
                    RESTRICTED RIGHTS LEGEND
  
 Use, reproduction and disclosure by the US Government is
 subject to restrictions as set forth in subparagraphs (a)
 and (c) of the Commercial Computer Software - Restricted
 Rights clause in FAR 52.227-19.
  
 Gaussian, Inc.
 340 Quinnipiac St., Bldg. 40, Wallingford CT 06492
  
  
 ---------------------------------------------------------------
 Warning -- This program may not be used in any manner that
 competes with the business of Gaussian, Inc. or will provide
 assistance to any competitor of Gaussian, Inc.  The licensee
 of this program is prohibited from giving any competitor of
 Gaussian, Inc. access to this program.  By using this program,
 the user acknowledges that Gaussian, Inc. is engaged in the
 business of creating and licensing software in the field of
 computational chemistry and represents and warrants to the
 licensee that it is not a competitor of Gaussian, Inc. and that
 it will not use this program in any manner prohibited above.
 ---------------------------------------------------------------
  

 Cite this work as:
 Gaussian 16, Revision C.01,
 M. J. Frisch, G. W. Trucks, H. B. Schlegel, G. E. Scuseria, 
 M. A. Robb, J. R. Cheeseman, G. Scalmani, V. Barone, 
 G. A. Petersson, H. Nakatsuji, X. Li, M. Caricato, A. V. Marenich, 
 J. Bloino, B. G. Janesko, R. Gomperts, B. Mennucci, H. P. Hratchian, 
 J. V. Ortiz, A. F. Izmaylov, J. L. Sonnenberg, D. Williams-Young, 
 F. Ding, F. Lipparini, F. Egidi, J. Goings, B. Peng, A. Petrone, 
 T. Henderson, D. Ranasinghe, V. G. Zakrzewski, J. Gao, N. Rega, 
 G. Zheng, W. Liang, M. Hada, M. Ehara, K. Toyota, R. Fukuda, 
 J. Hasegawa, M. Ishida, T. Nakajima, Y. Honda, O. Kitao, H. Nakai, 
 T. Vreven, K. Throssell, J. A. Montgomery, Jr., J. E. Peralta, 
 F. Ogliaro, M. J. Bearpark, J. J. Heyd, E. N. Brothers, K. N. Kudin, 
 V. N. Staroverov, T. A. Keith, R. Kobayashi, J. Normand, 
 K. Raghavachari, A. P. Rendell, J. C. Burant, S. S. Iyengar, 
 J. Tomasi, M. Cossi, J. M. Millam, M. Klene, C. Adamo, R. Cammi, 
 J. W. Ochterski, R. L. Martin, K. Morokuma, O. Farkas, 
 J. B. Foresman, and D. J. Fox, Gaussian, Inc., Wallingford CT, 2019.
 
 ******************************************
 Gaussian 16:  AS64L-G16RevC.01  3-Jul-2019
                23-Jun-2021 
 ******************************************
 %nprocshared=4
 Will use up to    4 processors via shared memory.
 %chk=FuncsLSDA-V-1st.chk
 %Mem=3GB
 ----------------------------------------------------------
 # td= (nstates=6, root=1) LSDA/6-31+G* Opt density=current
 ----------------------------------------------------------
 1/18=20,19=15,26=3,38=1/1,3;
 2/9=110,12=2,17=6,18=5,40=1/2;
 3/5=1,6=6,7=11,11=9,25=1,30=1,71=1,74=205/1,2,3,8;
 4//1;
 5/5=2,38=5/2;
 8/6=1,10=2,107=1,108=6/1;
 9/8=1,15=2,41=6,42=1,70=2/14;
 10/5=4,28=1/2;
 6/7=2,8=2,9=2,10=2,22=-1/1;
 7/12=6,13=5,14=1/1,2,3,16;
 1/18=20,19=15,26=3/3(2);
 2/9=110/2;
 99//99;
 2/9=110/2;
 3/5=1,6=6,7=11,11=9,25=1,30=1,71=1,74=205/1,2,3,8;
 4/5=5,16=3,69=1/1;
 5/5=2,38=5/2;
 8/6=1,10=2,107=1,108=6/1;
 9/8=1,15=2,41=6,42=1,49=4,70=2/14;
 10/5=4,28=1/2;
 7/12=6,13=5,14=1/1,2,3,16;
 1/18=20,19=15,26=3/3(-8);
 2/9=110/2;
 6/7=2,8=2,9=2,10=2,22=-1/1;
 99/9=10/99;
 ---------------
 FuncsLSDA-V-1st
 ---------------
 Symbolic Z-matrix:
 Charge =  0 Multiplicity = 1
 C                    -2.15106   0.68921   0.00009 
 C                    -2.12793  -0.71582   0.00008 
 C                    -0.9323   -1.4131   -0.00001 
 C                     0.24691  -0.6702   -0.00004 
 C                     0.24819   0.7483    0. 
 C                    -0.97947   1.42353   0.00003 
 N                     1.56177  -1.07759  -0.00029 
 C                     1.62013   1.1629   -0.00016 
 C                     2.38201   0.03081   0.00025 
 H                     1.87632  -2.03001   0.00044 
 H                     1.99217   2.17301  -0.00035 
 H                     3.45255  -0.08243   0.00041 
 H                    -3.06159  -1.26202   0.00009 
 H                    -0.91725  -2.49534  -0.00007 
 H                    -3.1042    1.20079   0.00009 
 H                    -1.00935   2.50542  -0.00002 
 

 GradGradGradGradGradGradGradGradGradGradGradGradGradGradGradGradGradGrad
 Berny optimization.
 Initialization pass.
                           ----------------------------
                           !    Initial Parameters    !
                           ! (Angstroms and Degrees)  !
 --------------------------                            --------------------------
 ! Name  Definition              Value          Derivative Info.                !
 --------------------------------------------------------------------------------
 ! R1    R(1,2)                  1.4052         estimate D2E/DX2                !
 ! R2    R(1,6)                  1.3827         estimate D2E/DX2                !
 ! R3    R(1,15)                 1.0818         estimate D2E/DX2                !
 ! R4    R(2,3)                  1.3841         estimate D2E/DX2                !
 ! R5    R(2,13)                 1.0817         estimate D2E/DX2                !
 ! R6    R(3,4)                  1.3937         estimate D2E/DX2                !
 ! R7    R(3,14)                 1.0823         estimate D2E/DX2                !
 ! R8    R(4,5)                  1.4185         estimate D2E/DX2                !
 ! R9    R(4,7)                  1.3765         estimate D2E/DX2                !
 ! R10   R(5,6)                  1.4011         estimate D2E/DX2                !
 ! R11   R(5,8)                  1.4332         estimate D2E/DX2                !
 ! R12   R(6,16)                 1.0823         estimate D2E/DX2                !
 ! R13   R(7,9)                  1.3789         estimate D2E/DX2                !
 ! R14   R(7,10)                 1.003          estimate D2E/DX2                !
 ! R15   R(8,9)                  1.3646         estimate D2E/DX2                !
 ! R16   R(8,11)                 1.0764         estimate D2E/DX2                !
 ! R17   R(9,12)                 1.0765         estimate D2E/DX2                !
 ! A1    A(2,1,6)              121.1349         estimate D2E/DX2                !
 ! A2    A(2,1,15)             119.1671         estimate D2E/DX2                !
 ! A3    A(6,1,15)             119.698          estimate D2E/DX2                !
 ! A4    A(1,2,3)              121.1938         estimate D2E/DX2                !
 ! A5    A(1,2,13)             119.3846         estimate D2E/DX2                !
 ! A6    A(3,2,13)             119.4217         estimate D2E/DX2                !
 ! A7    A(2,3,4)              117.5387         estimate D2E/DX2                !
 ! A8    A(2,3,14)             121.0469         estimate D2E/DX2                !
 ! A9    A(4,3,14)             121.4144         estimate D2E/DX2                !
 ! A10   A(3,4,5)              122.2626         estimate D2E/DX2                !
 ! A11   A(3,4,7)              130.5743         estimate D2E/DX2                !
 ! A12   A(5,4,7)              107.163          estimate D2E/DX2                !
 ! A13   A(4,5,6)              118.7594         estimate D2E/DX2                !
 ! A14   A(4,5,8)              106.8666         estimate D2E/DX2                !
 ! A15   A(6,5,8)              134.374          estimate D2E/DX2                !
 ! A16   A(1,6,5)              119.1105         estimate D2E/DX2                !
 ! A17   A(1,6,16)             120.4966         estimate D2E/DX2                !
 ! A18   A(5,6,16)             120.3928         estimate D2E/DX2                !
 ! A19   A(4,7,9)              109.2874         estimate D2E/DX2                !
 ! A20   A(4,7,10)             125.4909         estimate D2E/DX2                !
 ! A21   A(9,7,10)             125.2217         estimate D2E/DX2                !
 ! A22   A(5,8,9)              107.125          estimate D2E/DX2                !
 ! A23   A(5,8,11)             127.0344         estimate D2E/DX2                !
 ! A24   A(9,8,11)             125.8405         estimate D2E/DX2                !
 ! A25   A(7,9,8)              109.5578         estimate D2E/DX2                !
 ! A26   A(7,9,12)             120.4645         estimate D2E/DX2                !
 ! A27   A(8,9,12)             129.9776         estimate D2E/DX2                !
 ! D1    D(6,1,2,3)             -0.0008         estimate D2E/DX2                !
 ! D2    D(6,1,2,13)          -179.9981         estimate D2E/DX2                !
 ! D3    D(15,1,2,3)           179.996          estimate D2E/DX2                !
 ! D4    D(15,1,2,13)           -0.0013         estimate D2E/DX2                !
 ! D5    D(2,1,6,5)             -0.0018         estimate D2E/DX2                !
 ! D6    D(2,1,6,16)           179.9965         estimate D2E/DX2                !
 ! D7    D(15,1,6,5)          -179.9986         estimate D2E/DX2                !
 ! D8    D(15,1,6,16)           -0.0003         estimate D2E/DX2                !
 ! D9    D(1,2,3,4)              0.002          estimate D2E/DX2                !
 ! D10   D(1,2,3,14)          -179.9968         estimate D2E/DX2                !
 ! D11   D(13,2,3,4)           179.9992         estimate D2E/DX2                !
 ! D12   D(13,2,3,14)            0.0005         estimate D2E/DX2                !
 ! D13   D(2,3,4,5)             -0.0005         estimate D2E/DX2                !
 ! D14   D(2,3,4,7)           -179.9911         estimate D2E/DX2                !
 ! D15   D(14,3,4,5)           179.9982         estimate D2E/DX2                !
 ! D16   D(14,3,4,7)             0.0076         estimate D2E/DX2                !
 ! D17   D(3,4,5,6)             -0.002          estimate D2E/DX2                !
 ! D18   D(3,4,5,8)           -179.9955         estimate D2E/DX2                !
 ! D19   D(7,4,5,6)            179.9905         estimate D2E/DX2                !
 ! D20   D(7,4,5,8)             -0.003          estimate D2E/DX2                !
 ! D21   D(3,4,7,9)           -179.98           estimate D2E/DX2                !
 ! D22   D(3,4,7,10)            -0.0649         estimate D2E/DX2                !
 ! D23   D(5,4,7,9)              0.0284         estimate D2E/DX2                !
 ! D24   D(5,4,7,10)           179.9434         estimate D2E/DX2                !
 ! D25   D(4,5,6,1)              0.0031         estimate D2E/DX2                !
 ! D26   D(4,5,6,16)          -179.9951         estimate D2E/DX2                !
 ! D27   D(8,5,6,1)            179.9944         estimate D2E/DX2                !
 ! D28   D(8,5,6,16)            -0.0038         estimate D2E/DX2                !
 ! D29   D(4,5,8,9)             -0.0234         estimate D2E/DX2                !
 ! D30   D(4,5,8,11)           179.9883         estimate D2E/DX2                !
 ! D31   D(6,5,8,9)            179.9846         estimate D2E/DX2                !
 ! D32   D(6,5,8,11)            -0.0037         estimate D2E/DX2                !
 ! D33   D(4,7,9,8)             -0.0444         estimate D2E/DX2                !
 ! D34   D(4,7,9,12)           179.9847         estimate D2E/DX2                !
 ! D35   D(10,7,9,8)          -179.9597         estimate D2E/DX2                !
 ! D36   D(10,7,9,12)            0.0693         estimate D2E/DX2                !
 ! D37   D(5,8,9,7)              0.0414         estimate D2E/DX2                !
 ! D38   D(5,8,9,12)          -179.9913         estimate D2E/DX2                !
 ! D39   D(11,8,9,7)          -179.9702         estimate D2E/DX2                !
 ! D40   D(11,8,9,12)           -0.0029         estimate D2E/DX2                !
 --------------------------------------------------------------------------------
 Trust Radius=3.00D-01 FncErr=1.00D-07 GrdErr=1.00D-06 EigMax=2.50D+02 EigMin=1.00D-04
 Number of steps in this run=     94 maximum allowed number of steps=    100.
 GradGradGradGradGradGradGradGradGradGradGradGradGradGradGradGradGradGrad

                          Input orientation:                          
 ---------------------------------------------------------------------
 Center     Atomic      Atomic             Coordinates (Angstroms)
 Number     Number       Type             X           Y           Z
 ---------------------------------------------------------------------
      1          6           0       -2.151063    0.689208    0.000088
      2          6           0       -2.127927   -0.715818    0.000075
      3          6           0       -0.932297   -1.413100   -0.000011
      4          6           0        0.246911   -0.670201   -0.000042
      5          6           0        0.248193    0.748299    0.000000
      6          6           0       -0.979474    1.423526    0.000032
      7          7           0        1.561774   -1.077592   -0.000285
      8          6           0        1.620133    1.162900   -0.000157
      9          6           0        2.382013    0.030806    0.000248
     10          1           0        1.876315   -2.030011    0.000438
     11          1           0        1.992173    2.173010   -0.000348
     12          1           0        3.452549   -0.082425    0.000408
     13          1           0       -3.061594   -1.262020    0.000088
     14          1           0       -0.917252   -2.495342   -0.000073
     15          1           0       -3.104203    1.200785    0.000090
     16          1           0       -1.009348    2.505421   -0.000015
 ---------------------------------------------------------------------
                    Distance matrix (angstroms):
                    1          2          3          4          5
     1  C    0.000000
     2  C    1.405216   0.000000
     3  C    2.430039   1.384100   0.000000
     4  C    2.756496   2.375276   1.393711   0.000000
     5  C    2.399984   2.790983   2.462763   1.418501   0.000000
     6  C    1.382694   2.428114   2.837018   2.426461   1.401106
     7  N    4.111781   3.707395   2.516536   1.376529   2.249305
     8  C    3.800829   4.192557   3.626386   2.290414   1.433218
     9  C    4.580641   4.571324   3.615178   2.247236   2.251218
    10  H    4.859416   4.214387   2.875566   2.122273   3.220216
    11  H    4.400917   5.031953   4.627387   3.336134   2.251948
    12  H    5.656491   5.616307   4.582311   3.259079   3.310287
    13  H    2.153220   1.081698   2.134650   3.361020   3.872476
    14  H    3.415208   2.152310   1.082347   2.164813   3.446661
    15  H    1.081752   2.150926   3.398466   3.838040   3.382795
    16  H    2.145261   3.409927   3.919278   3.415079   2.160761
                    6          7          8          9         10
     6  C    0.000000
     7  N    3.565604   0.000000
     8  C    2.612639   2.241252   0.000000
     9  C    3.638580   1.378890   1.364587   0.000000
    10  H    4.481345   1.003015   3.203172   2.121956   0.000000
    11  H    3.064704   3.278972   1.076446   2.177387   4.204618
    12  H    4.680888   2.136677   2.215532   1.076508   2.505515
    13  H    3.398144   4.627045   5.272457   5.595021   4.997275
    14  H    3.919362   2.855798   4.452085   4.155307   2.832058
    15  H    2.136372   5.192528   4.724488   5.609583   5.936632
    16  H    1.082307   4.410062   2.952378   4.198220   5.375611
                   11         12         13         14         15
    11  H    0.000000
    12  H    2.686947   0.000000
    13  H    6.110646   6.620083   0.000000
    14  H    5.500751   4.991726   2.473719   0.000000
    15  H    5.188282   6.681139   2.463174   4.294661   0.000000
    16  H    3.019872   5.158049   4.290143   5.001611   2.467892
                   16
    16  H    0.000000
 Stoichiometry    C8H7N
 Framework group  C1[X(C8H7N)]
 Deg. of freedom    42
 Full point group                 C1      NOp   1
 Largest Abelian subgroup         C1      NOp   1
 Largest concise Abelian subgroup C1      NOp   1
                         Standard orientation:                         
 ---------------------------------------------------------------------
 Center     Atomic      Atomic             Coordinates (Angstroms)
 Number     Number       Type             X           Y           Z
 ---------------------------------------------------------------------
      1          6           0       -2.151063    0.689208    0.000088
      2          6           0       -2.127927   -0.715818    0.000075
      3          6           0       -0.932297   -1.413100   -0.000011
      4          6           0        0.246911   -0.670201   -0.000042
      5          6           0        0.248193    0.748299    0.000000
      6          6           0       -0.979474    1.423526    0.000032
      7          7           0        1.561774   -1.077592   -0.000285
      8          6           0        1.620133    1.162900   -0.000157
      9          6           0        2.382013    0.030806    0.000248
     10          1           0        1.876315   -2.030011    0.000438
     11          1           0        1.992173    2.173010   -0.000348
     12          1           0        3.452549   -0.082425    0.000408
     13          1           0       -3.061594   -1.262020    0.000088
     14          1           0       -0.917252   -2.495342   -0.000073
     15          1           0       -3.104203    1.200785    0.000090
     16          1           0       -1.009348    2.505421   -0.000015
 ---------------------------------------------------------------------
 Rotational constants (GHZ):           3.9080822           1.6429452           1.1566805
 Standard basis: 6-31+G(d) (6D, 7F)
 There are   185 symmetry adapted cartesian basis functions of A   symmetry.
 There are   185 symmetry adapted basis functions of A   symmetry.
   185 basis functions,   316 primitive gaussians,   185 cartesian basis functions
    31 alpha electrons       31 beta electrons
       nuclear repulsion energy       401.3368668897 Hartrees.
 NAtoms=   16 NActive=   16 NUniq=   16 SFac= 1.00D+00 NAtFMM=   60 NAOKFM=F Big=F
 Integral buffers will be    131072 words long.
 Regular integral format.
 Two-electron integral symmetry is turned on.
 One-electron integrals computed using PRISM.
 NBasis=   185 RedAO= T EigKep=  1.26D-06  NBF=   185
 NBsUse=   185 1.00D-06 EigRej= -1.00D+00 NBFU=   185
 ExpMin= 4.38D-02 ExpMax= 4.17D+03 ExpMxC= 6.27D+02 IAcc=3 IRadAn=         5 AccDes= 0.00D+00
 Harris functional with IExCor=  205 and IRadAn=       5 diagonalized for initial guess.
 HarFok:  IExCor=  205 AccDes= 0.00D+00 IRadAn=         5 IDoV= 1 UseB2=F ITyADJ=14
 ICtDFT=  3500011 ScaDFX=  1.000000  1.000000  1.000000  1.000000
 FoFCou: FMM=F IPFlag=           0 FMFlag=      100000 FMFlg1=           0
         NFxFlg=           0 DoJE=T BraDBF=F KetDBF=T FulRan=T
         wScrn=  0.000000 ICntrl=       500 IOpCl=  0 I1Cent=   200000004 NGrid=           0
         NMat0=    1 NMatS0=      1 NMatT0=    0 NMatD0=    1 NMtDS0=    0 NMtDT0=    0
 Petite list used in FoFCou.
 Keep J ints in memory in canonical form, NReq=152068651.
 Requested convergence on RMS density matrix=1.00D-08 within 128 cycles.
 Requested convergence on MAX density matrix=1.00D-06.
 Requested convergence on             energy=1.00D-06.
 No special actions if energy rises.
 SCF Done:  E(RS-VWN) =  -361.774289017     A.U. after   15 cycles
            NFock= 15  Conv=0.58D-08     -V/T= 2.0098
 DoSCS=F DFT=T ScalE2(SS,OS)=  1.000000  1.000000
 ExpMin= 4.38D-02 ExpMax= 4.17D+03 ExpMxC= 6.27D+02 IAcc=3 IRadAn=         5 AccDes= 0.00D+00
 HarFok:  IExCor=  205 AccDes= 0.00D+00 IRadAn=         5 IDoV=-2 UseB2=F ITyADJ=14
 ICtDFT= 12500011 ScaDFX=  1.000000  1.000000  1.000000  1.000000
 Range of M.O.s used for correlation:    10   185
 NBasis=   185 NAE=    31 NBE=    31 NFC=     9 NFV=     0
 NROrb=    176 NOA=    22 NOB=    22 NVA=   154 NVB=   154

 **** Warning!!: The largest alpha MO coefficient is  0.20217470D+03

 Keep J ints in memory in canonical form, NReq=168657019.
 Orbital symmetries:
       Occupied  (A) (A) (A) (A) (A) (A) (A) (A) (A) (A) (A) (A)
                 (A) (A) (A) (A) (A) (A) (A) (A) (A) (A) (A) (A)
                 (A) (A) (A) (A) (A) (A) (A)
       Virtual   (A) (A) (A) (A) (A) (A) (A) (A) (A) (A) (A) (A)
                 (A) (A) (A) (A) (A) (A) (A) (A) (A) (A) (A) (A)
                 (A) (A) (A) (A) (A) (A) (A) (A) (A) (A) (A) (A)
                 (A) (A) (A) (A) (A) (A) (A) (A) (A) (A) (A) (A)
                 (A) (A) (A) (A) (A) (A) (A) (A) (A) (A) (A) (A)
                 (A) (A) (A) (A) (A) (A) (A) (A) (A) (A) (A) (A)
                 (A) (A) (A) (A) (A) (A) (A) (A) (A) (A) (A) (A)
                 (A) (A) (A) (A) (A) (A) (A) (A) (A) (A) (A) (A)
                 (A) (A) (A) (A) (A) (A) (A) (A) (A) (A) (A) (A)
                 (A) (A) (A) (A) (A) (A) (A) (A) (A) (A) (A) (A)
                 (A) (A) (A) (A) (A) (A) (A) (A) (A) (A) (A) (A)
                 (A) (A) (A) (A) (A) (A) (A) (A) (A) (A) (A) (A)
                 (A) (A) (A) (A) (A) (A) (A) (A) (A) (A)
    24 initial guesses have been made.
 Convergence on wavefunction:    0.000001000000000
 Iteration     1 Dimension    24 NMult     0 NNew     24
 CISAX will form    24 AO SS matrices at one time.
 New state      2 was old state      4
 New state      3 was old state      2
 New state      4 was old state      6
 New state      5 was old state      7
 New state      6 was old state     10
 Iteration     2 Dimension    48 NMult    24 NNew     24
 New state      2 was old state      3
 New state      3 was old state      2
 Iteration     3 Dimension    54 NMult    48 NNew      6
 Iteration     4 Dimension    60 NMult    54 NNew      6
 Iteration     5 Dimension    66 NMult    60 NNew      6
 Iteration     6 Dimension    72 NMult    66 NNew      6
 Iteration     7 Dimension    78 NMult    72 NNew      6
 Iteration     8 Dimension    84 NMult    78 NNew      6
 Iteration     9 Dimension    90 NMult    84 NNew      6
 Iteration    10 Dimension    96 NMult    90 NNew      6
 Iteration    11 Dimension   102 NMult    96 NNew      6
 Iteration    12 Dimension   108 NMult   102 NNew      6
 Iteration    13 Dimension   114 NMult   108 NNew      6
 Iteration    14 Dimension   120 NMult   114 NNew      6
 Iteration    15 Dimension   126 NMult   120 NNew      6
 Iteration    16 Dimension   130 NMult   126 NNew      4
 Iteration    17 Dimension   132 NMult   130 NNew      2
 Iteration    18 Dimension   134 NMult   132 NNew      2
 Iteration    19 Dimension   136 NMult   134 NNew      2
 ***********************************************************************
 Excited states from <AA,BB:AA,BB> singles matrix:
 ***********************************************************************
 
 Ground to excited state transition densities written to RWF  633
 Ground to excited state transition electric dipole moments (Au):
       state          X           Y           Z        Dip. S.      Osc.
         1        -0.4479      0.5317     -0.0001      0.4833      0.0527
         2        -0.3750     -0.1219     -0.0001      0.1555      0.0180
         3         0.0006     -0.0003     -0.1047      0.0110      0.0013
         4        -0.0005      0.0001     -0.1273      0.0162      0.0021
         5         0.0006     -0.0000      0.0223      0.0005      0.0001
         6        -0.0015     -0.0003     -0.1034      0.0107      0.0015
 Ground to excited state transition velocity dipole moments (Au):
       state          X           Y           Z        Dip. S.      Osc.
         1         0.0643     -0.0957      0.0000      0.0133      0.0542
         2         0.0604      0.0220      0.0000      0.0041      0.0159
         3        -0.0001      0.0000      0.0102      0.0001      0.0004
         4         0.0001     -0.0000      0.0256      0.0007      0.0022
         5        -0.0001      0.0000     -0.0033      0.0000      0.0000
         6         0.0003      0.0000      0.0218      0.0005      0.0015
 Ground to excited state transition magnetic dipole moments (Au):
       state          X           Y           Z
         1         0.0002      0.0000      0.2104
         2        -0.0000     -0.0002      0.0176
         3         0.1070     -0.0355      0.0001
         4         0.0145     -0.1877      0.0000
         5         0.3030     -0.0735      0.0003
         6        -0.0186     -0.3792     -0.0009
 Ground to excited state transition velocity quadrupole moments (Au):
       state          XX          YY          ZZ          XY          XZ          YZ
         1         0.1363     -0.0848      0.0058      0.0641      0.0001      0.0001
         2         0.0443     -0.0827      0.0219      0.0135      0.0001     -0.0000
         3        -0.0002      0.0001      0.0001      0.0000      0.0304      0.0505
         4        -0.0000      0.0001     -0.0000     -0.0000      0.1150     -0.0408
         5        -0.0002     -0.0001      0.0000      0.0002      0.0974      0.2220
         6         0.0001     -0.0000     -0.0000     -0.0005      0.3254      0.0419
 <0|del|b> * <b|rxdel|0> + <0|del|b> * <b|delr+rdel|0>
 Rotatory Strengths (R) in cgs (10**-40 erg-esu-cm/Gauss)
       state          XX          YY          ZZ    R(velocity)    E-M Angle
         1         0.0169      0.0419      0.0114      0.0234       90.00
         2        -0.0104     -0.0082     -0.0059     -0.0081       90.00
         3        -0.0032     -0.0261     -0.0103     -0.0132       90.00
         4         0.0124     -0.0022      0.0120      0.0074       90.00
         5        -0.0047     -0.1102     -0.0166     -0.0439       90.00
         6        -0.1060     -0.0046     -0.0350     -0.0485       90.00
 1/2[<0|r|b>*<b|rxdel|0> + (<0|rxdel|b>*<b|r|0>)*]
 Rotatory Strengths (R) in cgs (10**-40 erg-esu-cm/Gauss)
       state          XX          YY          ZZ     R(length)
         1         0.0717     -0.0022      0.0157      0.0284
         2        -0.0110     -0.0148      0.0014     -0.0081
         3        -0.0433     -0.0063      0.0081     -0.0138
         4         0.0046      0.0154      0.0026      0.0076
         5        -0.1334     -0.0012     -0.0050     -0.0466
         6        -0.0194     -0.0724     -0.0665     -0.0527
  1/2[<0|del|b>*<b|r|0> + (<0|r|b>*<b|del|0>)*] (Au)
       state          X           Y           Z        Dip. S.   Osc.(frdel)
         1        -0.0288     -0.0509     -0.0000      0.0797      0.0531
         2        -0.0227     -0.0027     -0.0000      0.0253      0.0169
         3        -0.0000     -0.0000     -0.0011      0.0011      0.0007
         4        -0.0000     -0.0000     -0.0033      0.0033      0.0022
         5        -0.0000     -0.0000     -0.0001      0.0001      0.0000
         6        -0.0000     -0.0000     -0.0023      0.0023      0.0015

 Excitation energies and oscillator strengths:
 
 Excited State   1:      Singlet-A      4.4531 eV  278.42 nm  f=0.0527  <S**2>=0.000
      29 -> 32         0.14280
      30 -> 33         0.11313
      31 -> 32         0.66104
 This state for optimization and/or second-order correction.
 Total Energy, E(TD-HF/TD-DFT) =  -361.610640504    
 Copying the excited state density for this state as the 1-particle RhoCI density.
 
 Excited State   2:      Singlet-A      4.7131 eV  263.06 nm  f=0.0180  <S**2>=0.000
      30 -> 32         0.54900
      31 -> 33        -0.43901
 
 Excited State   3:      Singlet-A      4.8659 eV  254.80 nm  f=0.0013  <S**2>=0.000
      31 -> 34         0.70679
 
 Excited State   4:      Singlet-A      5.3187 eV  233.11 nm  f=0.0021  <S**2>=0.000
      30 -> 34         0.70639
 
 Excited State   5:      Singlet-A      5.4054 eV  229.37 nm  f=0.0001  <S**2>=0.000
      31 -> 35         0.70631
 
 Excited State   6:      Singlet-A      5.6222 eV  220.53 nm  f=0.0015  <S**2>=0.000
      31 -> 37         0.70666
 SavETr:  write IOETrn=   770 NScale= 10 NData=  16 NLR=1 NState=    6 LETran=     118.
          IDoAtm=1111111111111111
          Differentiating once with respect to electric field.
                with respect to dipole field.
          Differentiating once with respect to nuclear coordinates.
 Keep J ints in memory in canonical form, NReq=152081043.
          There are     1 degrees of freedom in the 1st order CPHF.  IDoFFX=0 NUNeed=     1.
 LinEq1:  Iter=  0 NonCon=     1 RMS=2.27D-02 Max=7.92D-01 NDo=     1
 AX will form     1 AO Fock derivatives at one time.
 LinEq1:  Iter=  1 NonCon=     1 RMS=1.12D-02 Max=2.80D-01 NDo=     1
 LinEq1:  Iter=  2 NonCon=     1 RMS=1.22D-02 Max=4.27D-01 NDo=     1
 LinEq1:  Iter=  3 NonCon=     1 RMS=5.98D-03 Max=1.70D-01 NDo=     1
 LinEq1:  Iter=  4 NonCon=     1 RMS=7.10D-03 Max=2.06D-01 NDo=     1
 LinEq1:  Iter=  5 NonCon=     1 RMS=3.28D-03 Max=9.02D-02 NDo=     1
 LinEq1:  Iter=  6 NonCon=     1 RMS=2.34D-03 Max=4.29D-02 NDo=     1
 LinEq1:  Iter=  7 NonCon=     1 RMS=1.41D-03 Max=2.56D-02 NDo=     1
 LinEq1:  Iter=  8 NonCon=     1 RMS=7.68D-04 Max=1.66D-02 NDo=     1
 LinEq1:  Iter=  9 NonCon=     1 RMS=6.27D-04 Max=1.35D-02 NDo=     1
 LinEq1:  Iter= 10 NonCon=     1 RMS=3.25D-04 Max=5.72D-03 NDo=     1
 LinEq1:  Iter= 11 NonCon=     1 RMS=2.34D-04 Max=3.81D-03 NDo=     1
 LinEq1:  Iter= 12 NonCon=     1 RMS=8.31D-05 Max=1.23D-03 NDo=     1
 LinEq1:  Iter= 13 NonCon=     1 RMS=5.47D-05 Max=1.43D-03 NDo=     1
 LinEq1:  Iter= 14 NonCon=     1 RMS=1.62D-05 Max=1.70D-04 NDo=     1
 LinEq1:  Iter= 15 NonCon=     1 RMS=3.49D-06 Max=7.99D-05 NDo=     1
 LinEq1:  Iter= 16 NonCon=     1 RMS=2.87D-06 Max=5.31D-05 NDo=     1
 LinEq1:  Iter= 17 NonCon=     1 RMS=7.62D-07 Max=7.00D-06 NDo=     1
 LinEq1:  Iter= 18 NonCon=     1 RMS=1.44D-07 Max=1.66D-06 NDo=     1
 LinEq1:  Iter= 19 NonCon=     1 RMS=2.70D-08 Max=3.63D-07 NDo=     1
 LinEq1:  Iter= 20 NonCon=     1 RMS=9.78D-09 Max=1.10D-07 NDo=     1
 LinEq1:  Iter= 21 NonCon=     1 RMS=2.73D-09 Max=3.15D-08 NDo=     1
 LinEq1:  Iter= 22 NonCon=     1 RMS=5.17D-10 Max=6.53D-09 NDo=     1
 LinEq1:  Iter= 23 NonCon=     0 RMS=7.50D-11 Max=7.33D-10 NDo=     1
 Linear equations converged to 1.000D-10 1.000D-09 after    23 iterations.
 End of Minotr F.D. properties file   721 does not exist.
 End of Minotr F.D. properties file   722 does not exist.
 End of Minotr F.D. properties file   788 does not exist.

 **********************************************************************

            Population analysis using the CI Density.

 **********************************************************************

 Orbital symmetries:
       Occupied  (A) (A) (A) (A) (A) (A) (A) (A) (A) (A) (A) (A)
                 (A) (A) (A) (A) (A) (A) (A) (A) (A) (A) (A) (A)
                 (A) (A) (A) (A) (A) (A) (A)
       Virtual   (A) (A) (A) (A) (A) (A) (A) (A) (A) (A) (A) (A)
                 (A) (A) (A) (A) (A) (A) (A) (A) (A) (A) (A) (A)
                 (A) (A) (A) (A) (A) (A) (A) (A) (A) (A) (A) (A)
                 (A) (A) (A) (A) (A) (A) (A) (A) (A) (A) (A) (A)
                 (A) (A) (A) (A) (A) (A) (A) (A) (A) (A) (A) (A)
                 (A) (A) (A) (A) (A) (A) (A) (A) (A) (A) (A) (A)
                 (A) (A) (A) (A) (A) (A) (A) (A) (A) (A) (A) (A)
                 (A) (A) (A) (A) (A) (A) (A) (A) (A) (A) (A) (A)
                 (A) (A) (A) (A) (A) (A) (A) (A) (A) (A) (A) (A)
                 (A) (A) (A) (A) (A) (A) (A) (A) (A) (A) (A) (A)
                 (A) (A) (A) (A) (A) (A) (A) (A) (A) (A) (A) (A)
                 (A) (A) (A) (A) (A) (A) (A) (A) (A) (A) (A) (A)
                 (A) (A) (A) (A) (A) (A) (A) (A) (A) (A)
 The electronic state is 1-A.
 Alpha  occ. eigenvalues --  -13.94861  -9.84723  -9.84695  -9.81716  -9.81421
 Alpha  occ. eigenvalues --   -9.81088  -9.81083  -9.80649  -9.80521  -0.92124
 Alpha  occ. eigenvalues --   -0.78233  -0.73002  -0.68467  -0.66698  -0.58721
 Alpha  occ. eigenvalues --   -0.55837  -0.54613  -0.50996  -0.45447  -0.44258
 Alpha  occ. eigenvalues --   -0.41455  -0.40414  -0.40301  -0.38688  -0.36870
 Alpha  occ. eigenvalues --   -0.33279  -0.32304  -0.31389  -0.27314  -0.22490
 Alpha  occ. eigenvalues --   -0.20780
 Alpha virt. eigenvalues --   -0.06653  -0.03257  -0.02908  -0.00890  -0.00273
 Alpha virt. eigenvalues --   -0.00053   0.01387   0.01686   0.02857   0.03524
 Alpha virt. eigenvalues --    0.04268   0.04498   0.05935   0.06313   0.07841
 Alpha virt. eigenvalues --    0.08534   0.08741   0.09871   0.10803   0.10901
 Alpha virt. eigenvalues --    0.12379   0.12635   0.13128   0.13401   0.14239
 Alpha virt. eigenvalues --    0.14680   0.15532   0.15693   0.16347   0.16787
 Alpha virt. eigenvalues --    0.17186   0.17209   0.18571   0.18795   0.19940
 Alpha virt. eigenvalues --    0.20457   0.20734   0.21032   0.22076   0.22559
 Alpha virt. eigenvalues --    0.23826   0.24277   0.25069   0.25497   0.25877
 Alpha virt. eigenvalues --    0.26588   0.27637   0.28968   0.31000   0.31743
 Alpha virt. eigenvalues --    0.32445   0.35099   0.36521   0.39354   0.45158
 Alpha virt. eigenvalues --    0.50908   0.55471   0.59732   0.60916   0.62332
 Alpha virt. eigenvalues --    0.64323   0.64569   0.65526   0.66026   0.66559
 Alpha virt. eigenvalues --    0.67596   0.67883   0.69873   0.71392   0.71923
 Alpha virt. eigenvalues --    0.74239   0.77433   0.81187   0.82491   0.83457
 Alpha virt. eigenvalues --    0.86381   0.87045   0.87564   0.88208   0.90870
 Alpha virt. eigenvalues --    0.92137   0.95432   0.97352   0.99141   1.02576
 Alpha virt. eigenvalues --    1.04204   1.04408   1.09738   1.10877   1.13518
 Alpha virt. eigenvalues --    1.15444   1.16148   1.17718   1.24152   1.24377
 Alpha virt. eigenvalues --    1.26480   1.29603   1.33535   1.34204   1.37536
 Alpha virt. eigenvalues --    1.37971   1.38781   1.41787   1.42305   1.45714
 Alpha virt. eigenvalues --    1.50778   1.57051   1.70250   1.75703   1.79512
 Alpha virt. eigenvalues --    1.80670   1.83486   1.86180   1.90753   1.91040
 Alpha virt. eigenvalues --    1.91808   1.97141   2.00759   2.05010   2.07995
 Alpha virt. eigenvalues --    2.08481   2.10819   2.15814   2.17084   2.17582
 Alpha virt. eigenvalues --    2.19508   2.22204   2.28966   2.31673   2.35437
 Alpha virt. eigenvalues --    2.45372   2.46438   2.54227   2.56414   2.57598
 Alpha virt. eigenvalues --    2.60191   2.63645   2.71087   2.75026   2.75743
 Alpha virt. eigenvalues --    2.85704   2.88319   3.01224   3.13788   3.34638
 Alpha virt. eigenvalues --    4.04233   4.15143   4.18187   4.21621   4.25198
 Alpha virt. eigenvalues --    4.28733   4.37045   4.40931   4.67942
          Condensed to atoms (all electrons):
               1          2          3          4          5          6
     1  C    5.615848   0.644455  -0.023681  -0.596792  -0.127645  -0.024171
     2  C    0.644455   5.979828  -0.431910   0.724161  -0.718623   0.342696
     3  C   -0.023681  -0.431910  16.451426  -5.154156  -4.451425  -2.628351
     4  C   -0.596792   0.724161  -5.154156  16.204964  -2.492031  -0.993192
     5  C   -0.127645  -0.718623  -4.451425  -2.492031  17.037362  -1.257313
     6  C   -0.024171   0.342696  -2.628351  -0.993192  -1.257313  13.310566
     7  N   -0.020044   0.002450  -0.356194  -0.511636   0.658475   0.132342
     8  C    0.251451  -0.397525   4.465507  -0.145403  -6.859857  -3.088768
     9  C   -0.105977   0.075957  -1.785464   0.056043   2.595927   0.864486
    10  H   -0.001519  -0.011823  -0.140163  -0.070697   0.183347   0.026055
    11  H    0.005979   0.001303   0.002045   0.040508  -0.038231   0.002788
    12  H    0.001142   0.000743   0.039780   0.108760  -0.100503  -0.031304
    13  H   -0.020671   0.259252  -0.025257   0.041915  -0.006027   0.040589
    14  H    0.032234   0.039672   0.124412   0.071664   0.040532  -0.023724
    15  H    0.269203  -0.018176   0.048509  -0.030572   0.046348  -0.031369
    16  H    0.011548   0.033214  -0.059562   0.060294   0.111375   0.193064
               7          8          9         10         11         12
     1  C   -0.020044   0.251451  -0.105977  -0.001519   0.005979   0.001142
     2  C    0.002450  -0.397525   0.075957  -0.011823   0.001303   0.000743
     3  C   -0.356194   4.465507  -1.785464  -0.140163   0.002045   0.039780
     4  C   -0.511636  -0.145403   0.056043  -0.070697   0.040508   0.108760
     5  C    0.658475  -6.859857   2.595927   0.183347  -0.038231  -0.100503
     6  C    0.132342  -3.088768   0.864486   0.026055   0.002788  -0.031304
     7  N    7.254499  -0.491385   0.517713   0.243954   0.007058  -0.059556
     8  C   -0.491385  15.158590  -3.487688   0.026591   0.309709   0.014565
     9  C    0.517713  -3.487688   7.392488  -0.051596  -0.053933   0.323863
    10  H    0.243954   0.026591  -0.051596   0.353997  -0.000074  -0.002777
    11  H    0.007058   0.309709  -0.053933  -0.000074   0.483466  -0.001087
    12  H   -0.059556   0.014565   0.323863  -0.002777  -0.001087   0.475955
    13  H   -0.000602  -0.003182   0.002207  -0.000004   0.000000  -0.000000
    14  H   -0.011950  -0.021581   0.017052   0.002988   0.000003   0.000004
    15  H    0.000345   0.004863  -0.000359  -0.000000  -0.000003  -0.000000
    16  H   -0.001123  -0.086818   0.007769   0.000006   0.001909  -0.000001
              13         14         15         16
     1  C   -0.020671   0.032234   0.269203   0.011548
     2  C    0.259252   0.039672  -0.018176   0.033214
     3  C   -0.025257   0.124412   0.048509  -0.059562
     4  C    0.041915   0.071664  -0.030572   0.060294
     5  C   -0.006027   0.040532   0.046348   0.111375
     6  C    0.040589  -0.023724  -0.031369   0.193064
     7  N   -0.000602  -0.011950   0.000345  -0.001123
     8  C   -0.003182  -0.021581   0.004863  -0.086818
     9  C    0.002207   0.017052  -0.000359   0.007769
    10  H   -0.000004   0.002988  -0.000000   0.000006
    11  H    0.000000   0.000003  -0.000003   0.001909
    12  H   -0.000000   0.000004  -0.000000  -0.000001
    13  H    0.534706  -0.005798  -0.005698  -0.000209
    14  H   -0.005798   0.548384  -0.000211   0.000025
    15  H   -0.005698  -0.000211   0.534349  -0.005712
    16  H   -0.000209   0.000025  -0.005712   0.544090
 Mulliken charges:
               1
     1  C    0.088640
     2  C   -0.525675
     3  C   -0.075514
     4  C   -1.313828
     5  C    1.378289
     6  C   -0.834393
     7  N   -0.364345
     8  C    0.350930
     9  C   -0.368487
    10  H    0.441713
    11  H    0.238560
    12  H    0.230418
    13  H    0.188781
    14  H    0.186294
    15  H    0.188485
    16  H    0.190131
 Sum of Mulliken charges =  -0.00000
 Mulliken charges with hydrogens summed into heavy atoms:
               1
     1  C    0.277125
     2  C   -0.336894
     3  C    0.110781
     4  C   -1.313828
     5  C    1.378289
     6  C   -0.644262
     7  N    0.077368
     8  C    0.589490
     9  C   -0.138069
 Electronic spatial extent (au):  <R**2>=           1006.8685
 Charge=             -0.0000 electrons
 Dipole moment (field-independent basis, Debye):
    X=              4.5789    Y=             -1.1155    Z=             -0.0006  Tot=              4.7128
 Quadrupole moment (field-independent basis, Debye-Ang):
   XX=            -45.0184   YY=            -45.9030   ZZ=            -59.9636
   XY=             -2.4063   XZ=              0.0001   YZ=             -0.0006
 Traceless Quadrupole moment (field-independent basis, Debye-Ang):
   XX=              5.2765   YY=              4.3920   ZZ=             -9.6686
   XY=             -2.4063   XZ=              0.0001   YZ=             -0.0006
 Octapole moment (field-independent basis, Debye-Ang**2):
  XXX=             27.1057  YYY=             -8.3627  ZZZ=             -0.0093  XYY=             17.1714
  XXY=             -5.5265  XXZ=             -0.0004  XZZ=              5.7453  YZZ=             -0.7645
  YYZ=             -0.0063  XYZ=             -0.0026
 Hexadecapole moment (field-independent basis, Debye-Ang**3):
 XXXX=           -841.5546 YYYY=           -395.0968 ZZZZ=            -83.2082 XXXY=            -17.1883
 XXXZ=             -0.0058 YYYX=            -15.7229 YYYZ=              0.0048 ZZZX=             -0.0065
 ZZZY=              0.0094 XXYY=           -193.0331 XXZZ=           -196.9588 YYZZ=           -102.2100
 XXYZ=             -0.0023 YYXZ=              0.0036 ZZXY=             -1.9450
 N-N= 4.013368668897D+02 E-N=-1.642968779448D+03  KE= 3.584173984978D+02
 Calling FoFJK, ICntrl=  10005527 FMM=F ISym2X=0 I1Cent= 0 IOpClX= 0 NMat=1 NMatS=1 NMatT=0.
 ***** Axes restored to original set *****
 -------------------------------------------------------------------
 Center     Atomic                   Forces (Hartrees/Bohr)
 Number     Number              X              Y              Z
 -------------------------------------------------------------------
      1        6          -0.015121772   -0.039277457   -0.000001977
      2        6          -0.025188423    0.042842677   -0.000000827
      3        6           0.027084458   -0.027933474   -0.000002057
      4        6          -0.013242044    0.034735965   -0.000024463
      5        6           0.000858067   -0.029336799   -0.000021693
      6        6           0.012355787    0.025600942    0.000010458
      7        7           0.016795323    0.043433561    0.000059451
      8        6          -0.032566336    0.011841750    0.000020944
      9        6           0.025457184   -0.054687508   -0.000039941
     10        1           0.006032552   -0.015787482    0.000003524
     11        1           0.004016733    0.010112001   -0.000000266
     12        1           0.009754361   -0.001601561   -0.000003933
     13        1          -0.008524500   -0.004268960    0.000000341
     14        1           0.000679142   -0.009265739   -0.000003641
     15        1          -0.008632405    0.004268371    0.000001172
     16        1           0.000241872    0.009323713    0.000002909
 -------------------------------------------------------------------
 Cartesian Forces:  Max     0.054687508 RMS     0.018637664

 GradGradGradGradGradGradGradGradGradGradGradGradGradGradGradGradGradGrad
 Berny optimization.
 FormGI is forming the generalized inverse of G from B-inverse, IUseBI=4.
 Internal  Forces:  Max     0.040802181 RMS     0.010041956
 Search for a local minimum.
 Step number   1 out of a maximum of   94
 All quantities printed in internal units (Hartrees-Bohrs-Radians)
 Mixed Optimization -- RFO/linear search
 Second derivative matrix not updated -- first step.
 ITU=  0
     Eigenvalues ---    0.01853   0.01931   0.01986   0.02012   0.02070
     Eigenvalues ---    0.02113   0.02148   0.02153   0.02172   0.02209
     Eigenvalues ---    0.02233   0.02248   0.02338   0.16000   0.16000
     Eigenvalues ---    0.16000   0.16000   0.16000   0.16000   0.16000
     Eigenvalues ---    0.22000   0.22188   0.22662   0.24011   0.24651
     Eigenvalues ---    0.35712   0.35717   0.35783   0.35790   0.36420
     Eigenvalues ---    0.36427   0.37009   0.38432   0.42633   0.43465
     Eigenvalues ---    0.45769   0.46692   0.47162   0.47468   0.47567
     Eigenvalues ---    0.48125   0.50955
 RFO step:  Lambda=-1.94305460D-02 EMin= 1.85287394D-02
 Linear search not attempted -- first point.
 Iteration  1 RMS(Cart)=  0.03190295 RMS(Int)=  0.00040309
 Iteration  2 RMS(Cart)=  0.00054395 RMS(Int)=  0.00016360
 Iteration  3 RMS(Cart)=  0.00000014 RMS(Int)=  0.00016360
 Variable       Old X    -DE/DX   Delta X   Delta X   Delta X     New X
                                 (Linear)    (Quad)   (Total)
    R1        2.65547  -0.01472   0.00000  -0.02940  -0.02940   2.62608
    R2        2.61291   0.03123   0.00000   0.06277   0.06275   2.67567
    R3        2.04421   0.00962   0.00000   0.02551   0.02551   2.06973
    R4        2.61557   0.04080   0.00000   0.08216   0.08218   2.69775
    R5        2.04411   0.00951   0.00000   0.02521   0.02521   2.06933
    R6        2.63373   0.01182   0.00000   0.02327   0.02329   2.65702
    R7        2.04534   0.00927   0.00000   0.02463   0.02463   2.06997
    R8        2.68058  -0.01780   0.00000  -0.04568  -0.04586   2.63472
    R9        2.60126   0.02255   0.00000   0.04071   0.04106   2.64232
   R10        2.64771   0.01717   0.00000   0.03517   0.03516   2.68286
   R11        2.70839   0.00580   0.00000   0.01502   0.01457   2.72296
   R12        2.04526   0.00931   0.00000   0.02473   0.02473   2.06999
   R13        2.60573  -0.02531   0.00000  -0.04815  -0.04774   2.55798
   R14        1.89542   0.01688   0.00000   0.03438   0.03438   1.92980
   R15        2.57870   0.04063   0.00000   0.07885   0.07875   2.65745
   R16        2.03419   0.01088   0.00000   0.02835   0.02835   2.06254
   R17        2.03430   0.00987   0.00000   0.02572   0.02572   2.06003
    A1        2.11420   0.00072   0.00000   0.00838   0.00832   2.12252
    A2        2.07986  -0.00069   0.00000  -0.00602  -0.00599   2.07387
    A3        2.08912  -0.00003   0.00000  -0.00236  -0.00233   2.08679
    A4        2.11523   0.00026   0.00000   0.00656   0.00653   2.12176
    A5        2.08365  -0.00076   0.00000  -0.00681  -0.00680   2.07686
    A6        2.08430   0.00051   0.00000   0.00025   0.00026   2.08457
    A7        2.05144  -0.00645   0.00000  -0.02757  -0.02758   2.02386
    A8        2.11267   0.00379   0.00000   0.01692   0.01693   2.12959
    A9        2.11908   0.00266   0.00000   0.01065   0.01065   2.12974
   A10        2.13389   0.00502   0.00000   0.01872   0.01863   2.15251
   A11        2.27895  -0.00780   0.00000  -0.01965  -0.01970   2.25925
   A12        1.87035   0.00279   0.00000   0.00093   0.00107   1.87142
   A13        2.07274   0.00722   0.00000   0.02306   0.02332   2.09606
   A14        1.86517  -0.00487   0.00000  -0.02014  -0.02072   1.84445
   A15        2.34527  -0.00236   0.00000  -0.00293  -0.00259   2.34267
   A16        2.07887  -0.00677   0.00000  -0.02915  -0.02922   2.04966
   A17        2.10306   0.00389   0.00000   0.01742   0.01745   2.12052
   A18        2.10125   0.00287   0.00000   0.01173   0.01176   2.11301
   A19        1.90743   0.01314   0.00000   0.04954   0.05019   1.95762
   A20        2.19023  -0.00583   0.00000  -0.02066  -0.02099   2.16924
   A21        2.18553  -0.00731   0.00000  -0.02887  -0.02920   2.15633
   A22        1.86968   0.00751   0.00000   0.03935   0.03884   1.90853
   A23        2.21717  -0.00348   0.00000  -0.01812  -0.01787   2.19930
   A24        2.19633  -0.00404   0.00000  -0.02123  -0.02098   2.17535
   A25        1.91215  -0.01857   0.00000  -0.06968  -0.06939   1.84276
   A26        2.10250   0.00871   0.00000   0.03163   0.03148   2.13398
   A27        2.26854   0.00986   0.00000   0.03805   0.03791   2.30644
    D1       -0.00001   0.00000   0.00000   0.00002   0.00002   0.00001
    D2       -3.14156  -0.00000   0.00000  -0.00003  -0.00004   3.14159
    D3        3.14152   0.00000   0.00000   0.00005   0.00005   3.14157
    D4       -0.00002  -0.00000   0.00000  -0.00001  -0.00001  -0.00003
    D5       -0.00003   0.00000   0.00000   0.00007   0.00007   0.00003
    D6        3.14153  -0.00000   0.00000   0.00001   0.00001   3.14154
    D7       -3.14157   0.00000   0.00000   0.00004   0.00004  -3.14153
    D8       -0.00001  -0.00000   0.00000  -0.00001  -0.00001  -0.00002
    D9        0.00003  -0.00000   0.00000  -0.00006  -0.00006  -0.00002
   D10       -3.14154  -0.00000   0.00000  -0.00005  -0.00005  -3.14159
   D11        3.14158   0.00000   0.00000   0.00000  -0.00000   3.14158
   D12        0.00001  -0.00000   0.00000   0.00000   0.00000   0.00001
   D13       -0.00001  -0.00000   0.00000   0.00000   0.00001  -0.00000
   D14       -3.14144  -0.00001   0.00000  -0.00010  -0.00010  -3.14153
   D15        3.14156  -0.00000   0.00000  -0.00000   0.00000   3.14156
   D16        0.00013  -0.00000   0.00000  -0.00010  -0.00010   0.00003
   D17       -0.00004   0.00001   0.00000   0.00009   0.00008   0.00005
   D18       -3.14151   0.00001   0.00000   0.00004   0.00003  -3.14148
   D19        3.14143   0.00001   0.00000   0.00016   0.00016   3.14159
   D20       -0.00005   0.00001   0.00000   0.00012   0.00011   0.00006
   D21       -3.14124  -0.00001   0.00000  -0.00030  -0.00032  -3.14156
   D22       -0.00113   0.00001   0.00000   0.00021   0.00020  -0.00094
   D23        0.00049  -0.00001   0.00000  -0.00039  -0.00041   0.00009
   D24        3.14060   0.00001   0.00000   0.00012   0.00011   3.14071
   D25        0.00005  -0.00001   0.00000  -0.00012  -0.00011  -0.00006
   D26       -3.14151  -0.00000   0.00000  -0.00006  -0.00006  -3.14157
   D27        3.14150  -0.00001   0.00000  -0.00006  -0.00005   3.14144
   D28       -0.00007  -0.00000   0.00000  -0.00000   0.00000  -0.00007
   D29       -0.00041   0.00001   0.00000   0.00022   0.00023  -0.00018
   D30        3.14139  -0.00000   0.00000  -0.00007  -0.00006   3.14133
   D31        3.14132   0.00001   0.00000   0.00017   0.00017   3.14149
   D32       -0.00006  -0.00000   0.00000  -0.00012  -0.00012  -0.00019
   D33       -0.00077   0.00003   0.00000   0.00059   0.00058  -0.00020
   D34        3.14133   0.00001   0.00000   0.00033   0.00033  -3.14153
   D35       -3.14089   0.00001   0.00000   0.00007   0.00006  -3.14083
   D36        0.00121  -0.00001   0.00000  -0.00019  -0.00019   0.00102
   D37        0.00072  -0.00002   0.00000  -0.00050  -0.00049   0.00023
   D38       -3.14144  -0.00001   0.00000  -0.00021  -0.00021   3.14153
   D39       -3.14107  -0.00001   0.00000  -0.00021  -0.00021  -3.14128
   D40       -0.00005   0.00000   0.00000   0.00007   0.00007   0.00002
         Item               Value     Threshold  Converged?
 Maximum Force            0.040802     0.000450     NO 
 RMS     Force            0.010042     0.000300     NO 
 Maximum Displacement     0.125645     0.001800     NO 
 RMS     Displacement     0.031828     0.001200     NO 
 Predicted change in Energy=-1.018986D-02
 GradGradGradGradGradGradGradGradGradGradGradGradGradGradGradGradGradGrad

                          Input orientation:                          
 ---------------------------------------------------------------------
 Center     Atomic      Atomic             Coordinates (Angstroms)
 Number     Number       Type             X           Y           Z
 ---------------------------------------------------------------------
      1          6           0       -2.185773    0.683762    0.000046
      2          6           0       -2.155488   -0.705568   -0.000017
      3          6           0       -0.923158   -1.426237   -0.000015
      4          6           0        0.246293   -0.645651    0.000023
      5          6           0        0.236746    0.748551    0.000054
      6          6           0       -0.996423    1.452022    0.000104
      7          7           0        1.584643   -1.050543   -0.000029
      8          6           0        1.621356    1.147457   -0.000067
      9          6           0        2.436422    0.001491    0.000073
     10          1           0        1.890980   -2.024721    0.000683
     11          1           0        1.993562    2.173478   -0.000315
     12          1           0        3.519038   -0.126207   -0.000004
     13          1           0       -3.101480   -1.257121   -0.000060
     14          1           0       -0.890710   -2.521137   -0.000068
     15          1           0       -3.156610    1.190764    0.000020
     16          1           0       -1.022495    2.547106    0.000108
 ---------------------------------------------------------------------
                    Distance matrix (angstroms):
                    1          2          3          4          5
     1  C    0.000000
     2  C    1.389660   0.000000
     3  C    2.458921   1.427586   0.000000
     4  C    2.771693   2.402528   1.406034   0.000000
     5  C    2.423385   2.799508   2.464768   1.394235   0.000000
     6  C    1.415902   2.449210   2.879192   2.438150   1.419710
     7  N    4.150162   3.756007   2.535787   1.398255   2.248014
     8  C    3.835263   4.206929   3.619179   2.259654   1.440927
     9  C    4.672278   4.646028   3.650369   2.283738   2.323074
    10  H    4.894465   4.256063   2.877075   2.146353   3.229169
    11  H    4.436901   5.050101   4.633056   3.316691   2.262039
    12  H    5.762023   5.704025   4.628519   3.313711   3.396857
    13  H    2.146054   1.095040   2.184877   3.403158   3.894416
    14  H    3.456669   2.212680   1.095380   2.193222   3.458615
    15  H    1.095252   2.144370   3.440495   3.866804   3.422049
    16  H    2.196649   3.444352   3.974585   3.435626   2.195561
                    6          7          8          9         10
     6  C    0.000000
     7  N    3.595099   0.000000
     8  C    2.635437   2.198306   0.000000
     9  C    3.726723   1.353626   1.406261   0.000000
    10  H    4.519385   1.021208   3.183616   2.098344   0.000000
    11  H    3.075794   3.249850   1.091447   2.216675   4.199452
    12  H    4.783324   2.143893   2.285479   1.090121   2.500986
    13  H    3.430849   4.690675   5.299734   5.679126   5.051126
    14  H    3.974565   2.879240   4.446240   4.175340   2.825638
    15  H    2.175929   5.244324   4.778162   5.718075   5.984773
    16  H    1.095394   4.443000   2.991483   4.294678   5.421249
                   11         12         13         14         15
    11  H    0.000000
    12  H    2.759642   0.000000
    13  H    6.142350   6.716415   0.000000
    14  H    5.509848   5.018124   2.546613   0.000000
    15  H    5.243090   6.804314   2.448506   4.348851   0.000000
    16  H    3.039111   5.269926   4.335242   5.069956   2.528658
                   16
    16  H    0.000000
 Stoichiometry    C8H7N
 Framework group  C1[X(C8H7N)]
 Deg. of freedom    42
 Full point group                 C1      NOp   1
 Largest Abelian subgroup         C1      NOp   1
 Largest concise Abelian subgroup C1      NOp   1
                         Standard orientation:                         
 ---------------------------------------------------------------------
 Center     Atomic      Atomic             Coordinates (Angstroms)
 Number     Number       Type             X           Y           Z
 ---------------------------------------------------------------------
      1          6           0       -2.193344    0.656585    0.000023
      2          6           0       -2.147490   -0.732317   -0.000039
      3          6           0       -0.907160   -1.439129   -0.000038
      4          6           0        0.253469   -0.645485    0.000001
      5          6           0        0.228296    0.748523    0.000032
      6          6           0       -1.012680    1.438128    0.000082
      7          7           0        1.596273   -1.035351   -0.000051
      8          6           0        1.608348    1.162922   -0.000089
      9          6           0        2.436207    0.026164    0.000051
     10          1           0        1.913509   -2.006035    0.000660
     11          1           0        1.969031    2.193050   -0.000337
     12          1           0        3.520186   -0.089392   -0.000026
     13          1           0       -3.087241   -1.294439   -0.000082
     14          1           0       -0.862443   -2.533596   -0.000090
     15          1           0       -3.169803    1.152675   -0.000003
     16          1           0       -1.051024    2.532851    0.000086
 ---------------------------------------------------------------------
 Rotational constants (GHZ):           3.9138881           1.5979486           1.1346838
 Standard basis: 6-31+G(d) (6D, 7F)
 There are   185 symmetry adapted cartesian basis functions of A   symmetry.
 There are   185 symmetry adapted basis functions of A   symmetry.
   185 basis functions,   316 primitive gaussians,   185 cartesian basis functions
    31 alpha electrons       31 beta electrons
       nuclear repulsion energy       398.0904652460 Hartrees.
 NAtoms=   16 NActive=   16 NUniq=   16 SFac= 1.00D+00 NAtFMM=   60 NAOKFM=F Big=F
 Integral buffers will be    131072 words long.
 Regular integral format.
 Two-electron integral symmetry is turned on.
 One-electron integrals computed using PRISM.
 NBasis=   185 RedAO= T EigKep=  1.30D-06  NBF=   185
 NBsUse=   185 1.00D-06 EigRej= -1.00D+00 NBFU=   185
 Initial guess from the checkpoint file:  "FuncsLSDA-V-1st.chk"
 B after Tr=     0.000000    0.000000   -0.000000
         Rot=    0.999984    0.000002    0.000007   -0.005724 Ang=   0.66 deg.
 ExpMin= 4.38D-02 ExpMax= 4.17D+03 ExpMxC= 6.27D+02 IAcc=3 IRadAn=         5 AccDes= 0.00D+00
 Harris functional with IExCor=  205 and IRadAn=       5 diagonalized for initial guess.
 HarFok:  IExCor=  205 AccDes= 0.00D+00 IRadAn=         5 IDoV= 1 UseB2=F ITyADJ=14
 ICtDFT=  3500011 ScaDFX=  1.000000  1.000000  1.000000  1.000000
 FoFCou: FMM=F IPFlag=           0 FMFlag=      100000 FMFlg1=           0
         NFxFlg=           0 DoJE=T BraDBF=F KetDBF=T FulRan=T
         wScrn=  0.000000 ICntrl=       500 IOpCl=  0 I1Cent=   200000004 NGrid=           0
         NMat0=    1 NMatS0=      1 NMatT0=    0 NMatD0=    1 NMtDS0=    0 NMtDT0=    0
 Petite list used in FoFCou.
 Keep J ints in memory in canonical form, NReq=152068651.
 Requested convergence on RMS density matrix=1.00D-08 within 128 cycles.
 Requested convergence on MAX density matrix=1.00D-06.
 Requested convergence on             energy=1.00D-06.
 No special actions if energy rises.
 SCF Done:  E(RS-VWN) =  -361.768128947     A.U. after   13 cycles
            NFock= 13  Conv=0.46D-08     -V/T= 2.0109
 DoSCS=F DFT=T ScalE2(SS,OS)=  1.000000  1.000000
 ExpMin= 4.38D-02 ExpMax= 4.17D+03 ExpMxC= 6.27D+02 IAcc=3 IRadAn=         5 AccDes= 0.00D+00
 HarFok:  IExCor=  205 AccDes= 0.00D+00 IRadAn=         5 IDoV=-2 UseB2=F ITyADJ=14
 ICtDFT= 12500011 ScaDFX=  1.000000  1.000000  1.000000  1.000000
 Range of M.O.s used for correlation:    10   185
 NBasis=   185 NAE=    31 NBE=    31 NFC=     9 NFV=     0
 NROrb=    176 NOA=    22 NOB=    22 NVA=   154 NVB=   154

 **** Warning!!: The largest alpha MO coefficient is  0.19034957D+03

 Keep J ints in memory in canonical form, NReq=156215995.
 Orbital symmetries:
       Occupied  (A) (A) (A) (A) (A) (A) (A) (A) (A) (A) (A) (A)
                 (A) (A) (A) (A) (A) (A) (A) (A) (A) (A) (A) (A)
                 (A) (A) (A) (A) (A) (A) (A)
       Virtual   (A) (A) (A) (A) (A) (A) (A) (A) (A) (A) (A) (A)
                 (A) (A) (A) (A) (A) (A) (A) (A) (A) (A) (A) (A)
                 (A) (A) (A) (A) (A) (A) (A) (A) (A) (A) (A) (A)
                 (A) (A) (A) (A) (A) (A) (A) (A) (A) (A) (A) (A)
                 (A) (A) (A) (A) (A) (A) (A) (A) (A) (A) (A) (A)
                 (A) (A) (A) (A) (A) (A) (A) (A) (A) (A) (A) (A)
                 (A) (A) (A) (A) (A) (A) (A) (A) (A) (A) (A) (A)
                 (A) (A) (A) (A) (A) (A) (A) (A) (A) (A) (A) (A)
                 (A) (A) (A) (A) (A) (A) (A) (A) (A) (A) (A) (A)
                 (A) (A) (A) (A) (A) (A) (A) (A) (A) (A) (A) (A)
                 (A) (A) (A) (A) (A) (A) (A) (A) (A) (A) (A) (A)
                 (A) (A) (A) (A) (A) (A) (A) (A) (A) (A) (A) (A)
                 (A) (A) (A) (A) (A) (A) (A) (A) (A) (A)
 Generating guess from densities on rwf.
 Convergence on wavefunction:    0.000001000000000
 Iteration     1 Dimension     6 NMult     0 NNew      6
 CISAX will form     6 AO SS matrices at one time.
 New state      4 was old state      5
 New state      5 was old state      4
 Iteration     2 Dimension    12 NMult     6 NNew      6
 Iteration     3 Dimension    18 NMult    12 NNew      6
 Iteration     4 Dimension    24 NMult    18 NNew      6
 Iteration     5 Dimension    30 NMult    24 NNew      6
 Iteration     6 Dimension    36 NMult    30 NNew      6
 Iteration     7 Dimension    42 NMult    36 NNew      6
 Iteration     8 Dimension    48 NMult    42 NNew      6
 Iteration     9 Dimension    54 NMult    48 NNew      6
 No map to state      6
 Iteration    10 Dimension    60 NMult    54 NNew      6
 New state      5 was old state      6
 New state      6 was old state      5
 Iteration    11 Dimension    66 NMult    60 NNew      6
 Iteration    12 Dimension    72 NMult    66 NNew      6
 Iteration    13 Dimension    78 NMult    72 NNew      6
 Iteration    14 Dimension    84 NMult    78 NNew      6
 Iteration    15 Dimension    90 NMult    84 NNew      6
 Iteration    16 Dimension    96 NMult    90 NNew      6
 New state      5 was old state      6
 New state      6 was old state      5
 Iteration    17 Dimension   102 NMult    96 NNew      6
 Iteration    18 Dimension   108 NMult   102 NNew      6
 Iteration    19 Dimension   114 NMult   108 NNew      6
 Iteration    20 Dimension   120 NMult   114 NNew      6
 Iteration    21 Dimension   125 NMult   120 NNew      5
 Iteration    22 Dimension   130 NMult   125 NNew      5
 No map to state      6
 Iteration    23 Dimension   135 NMult   130 NNew      5
 Iteration    24 Dimension   138 NMult   135 NNew      3
 Iteration    25 Dimension   142 NMult   138 NNew      4
 Iteration    26 Dimension   145 NMult   142 NNew      3
 Iteration    27 Dimension   147 NMult   145 NNew      2
 Iteration    28 Dimension   149 NMult   147 NNew      2
 Iteration    29 Dimension   152 NMult   149 NNew      3
 Iteration    30 Dimension   155 NMult   152 NNew      3
 New state      5 was old state      6
 New state      6 was old state      5
 Iteration    31 Dimension   157 NMult   155 NNew      2
 Iteration    32 Dimension   159 NMult   157 NNew      2
 Iteration    33 Dimension   161 NMult   159 NNew      2
 Iteration    34 Dimension   163 NMult   161 NNew      2
 Iteration    35 Dimension   165 NMult   163 NNew      2
 Iteration    36 Dimension   167 NMult   165 NNew      2
 Iteration    37 Dimension   169 NMult   167 NNew      2
 Iteration    38 Dimension   172 NMult   169 NNew      3
 Iteration    39 Dimension   174 NMult   172 NNew      2
 Iteration    40 Dimension   176 NMult   174 NNew      2
 Iteration    41 Dimension   178 NMult   176 NNew      2
 Iteration    42 Dimension   179 NMult   178 NNew      1
 Iteration    43 Dimension   180 NMult   179 NNew      1
 Iteration    44 Dimension   181 NMult   180 NNew      1
 Iteration    45 Dimension   182 NMult   181 NNew      1
 Iteration    46 Dimension   183 NMult   182 NNew      1
 Iteration    47 Dimension   184 NMult   183 NNew      1
 Iteration    48 Dimension   185 NMult   184 NNew      1
 Iteration    49 Dimension   186 NMult   185 NNew      1
 Iteration    50 Dimension   187 NMult   186 NNew      1
 Iteration    51 Dimension   188 NMult   187 NNew      1
 Iteration    52 Dimension   189 NMult   188 NNew      1
 Iteration    53 Dimension   190 NMult   189 NNew      1
 Iteration    54 Dimension   191 NMult   190 NNew      1
 ***********************************************************************
 Excited states from <AA,BB:AA,BB> singles matrix:
 ***********************************************************************
 
 Ground to excited state transition densities written to RWF  633
 Ground to excited state transition electric dipole moments (Au):
       state          X           Y           Z        Dip. S.      Osc.
         1        -0.5110      0.5357     -0.0000      0.5482      0.0535
         2        -0.1540     -0.1587     -0.0010      0.0489      0.0055
         3         0.0018      0.0014     -0.0998      0.0100      0.0011
         4         0.0004      0.0000      0.0200      0.0004      0.0001
         5         0.0000     -0.0001     -0.1180      0.0139      0.0018
         6        -0.0005     -0.0001     -0.1144      0.0131      0.0017
 Ground to excited state transition velocity dipole moments (Au):
       state          X           Y           Z        Dip. S.      Osc.
         1         0.0654     -0.0878     -0.0000      0.0120      0.0546
         2         0.0237      0.0287      0.0001      0.0014      0.0054
         3        -0.0003     -0.0003      0.0090      0.0001      0.0003
         4        -0.0001     -0.0000     -0.0023      0.0000      0.0000
         5        -0.0000      0.0000      0.0232      0.0005      0.0018
         6         0.0001      0.0000      0.0246      0.0006      0.0020
 Ground to excited state transition magnetic dipole moments (Au):
       state          X           Y           Z
         1         0.0001      0.0000      0.2239
         2         0.0012     -0.0005      0.0812
         3         0.1243     -0.0393     -0.0007
         4         0.2880     -0.0598      0.0002
         5        -0.0068     -0.3639     -0.0001
         6         0.0223     -0.1938     -0.0000
 Ground to excited state transition velocity quadrupole moments (Au):
       state          XX          YY          ZZ          XY          XZ          YZ
         1         0.1235     -0.0842      0.0067      0.0706      0.0000      0.0000
         2         0.0026     -0.0572      0.0213      0.0116      0.0003      0.0006
         3        -0.0001      0.0006     -0.0002     -0.0001      0.0317      0.0575
         4        -0.0000     -0.0001      0.0000      0.0001      0.0839      0.2001
         5        -0.0000      0.0001     -0.0000     -0.0001      0.3226      0.0555
         6         0.0000     -0.0000     -0.0000      0.0000      0.1194     -0.0312
 <0|del|b> * <b|rxdel|0> + <0|del|b> * <b|delr+rdel|0>
 Rotatory Strengths (R) in cgs (10**-40 erg-esu-cm/Gauss)
       state          XX          YY          ZZ    R(velocity)    E-M Angle
         1         0.0045      0.0105      0.0033      0.0061       90.00
         2        -0.0291      0.1006      0.0231      0.0315       90.00
         3         0.0252     -0.1137     -0.0334     -0.0406       90.00
         4         0.0006     -0.0660     -0.0121     -0.0259       90.00
         5        -0.0193     -0.0028     -0.0000     -0.0074       90.00
         6        -0.0134     -0.0025      0.0071     -0.0029       90.00
 1/2[<0|r|b>*<b|rxdel|0> + (<0|rxdel|b>*<b|r|0>)*]
 Rotatory Strengths (R) in cgs (10**-40 erg-esu-cm/Gauss)
       state          XX          YY          ZZ     R(length)
         1         0.0233     -0.0007      0.0033      0.0087
         2         0.1282     -0.0520      0.0599      0.0454
         3        -0.1559      0.0399     -0.0465     -0.0542
         4        -0.0818      0.0009     -0.0023     -0.0277
         5         0.0001     -0.0212     -0.0088     -0.0100
         6         0.0084     -0.0146     -0.0009     -0.0024
  1/2[<0|del|b>*<b|r|0> + (<0|r|b>*<b|del|0>)*] (Au)
       state          X           Y           Z        Dip. S.   Osc.(frdel)
         1        -0.0334     -0.0470      0.0000      0.0805      0.0537
         2        -0.0036     -0.0046     -0.0000      0.0082      0.0055
         3        -0.0000     -0.0000     -0.0009      0.0009      0.0006
         4        -0.0000     -0.0000     -0.0000      0.0000      0.0000
         5        -0.0000     -0.0000     -0.0027      0.0027      0.0018
         6        -0.0000     -0.0000     -0.0028      0.0028      0.0019

 Excitation energies and oscillator strengths:
 
 Excited State   1:      Singlet-A      3.9870 eV  310.97 nm  f=0.0535  <S**2>=0.000
      29 -> 32         0.15792
      31 -> 32         0.66907
 This state for optimization and/or second-order correction.
 Total Energy, E(TD-HF/TD-DFT) =  -361.621609590    
 Copying the excited state density for this state as the 1-particle RhoCI density.
 
 Excited State   2:      Singlet-A      4.6018 eV  269.42 nm  f=0.0055  <S**2>=0.000
      30 -> 32         0.52713
      31 -> 33        -0.46247
 
 Excited State   3:      Singlet-A      4.6087 eV  269.02 nm  f=0.0011  <S**2>=0.000
      31 -> 34         0.70680
 
 Excited State   4:      Singlet-A      5.1653 eV  240.03 nm  f=0.0001  <S**2>=0.000
      31 -> 35        -0.70681
 
 Excited State   5:      Singlet-A      5.4181 eV  228.83 nm  f=0.0018  <S**2>=0.000
      31 -> 37         0.70640
 
 Excited State   6:      Singlet-A      5.4561 eV  227.24 nm  f=0.0017  <S**2>=0.000
      30 -> 34         0.70657
 SavETr:  write IOETrn=   770 NScale= 10 NData=  16 NLR=1 NState=    6 LETran=     118.
          IDoAtm=1111111111111111
          Differentiating once with respect to electric field.
                with respect to dipole field.
          Differentiating once with respect to nuclear coordinates.
 Keep J ints in memory in canonical form, NReq=152081043.
          There are     1 degrees of freedom in the 1st order CPHF.  IDoFFX=0 NUNeed=     1.
 LinEq1:  Iter=  0 NonCon=     1 RMS=2.79D-02 Max=1.00D+00 NDo=     1
 AX will form     1 AO Fock derivatives at one time.
 LinEq1:  Iter=  1 NonCon=     1 RMS=1.29D-02 Max=3.08D-01 NDo=     1
 LinEq1:  Iter=  2 NonCon=     1 RMS=1.57D-02 Max=6.38D-01 NDo=     1
 LinEq1:  Iter=  3 NonCon=     1 RMS=8.50D-03 Max=1.97D-01 NDo=     1
 LinEq1:  Iter=  4 NonCon=     1 RMS=1.08D-02 Max=3.00D-01 NDo=     1
 LinEq1:  Iter=  5 NonCon=     1 RMS=4.61D-03 Max=1.19D-01 NDo=     1
 LinEq1:  Iter=  6 NonCon=     1 RMS=3.34D-03 Max=5.50D-02 NDo=     1
 LinEq1:  Iter=  7 NonCon=     1 RMS=1.44D-03 Max=2.63D-02 NDo=     1
 LinEq1:  Iter=  8 NonCon=     1 RMS=8.51D-04 Max=1.32D-02 NDo=     1
 LinEq1:  Iter=  9 NonCon=     1 RMS=4.11D-04 Max=6.53D-03 NDo=     1
 LinEq1:  Iter= 10 NonCon=     1 RMS=2.12D-04 Max=4.14D-03 NDo=     1
 LinEq1:  Iter= 11 NonCon=     1 RMS=1.96D-04 Max=5.17D-03 NDo=     1
 LinEq1:  Iter= 12 NonCon=     1 RMS=1.18D-04 Max=2.06D-03 NDo=     1
 LinEq1:  Iter= 13 NonCon=     1 RMS=9.46D-05 Max=1.93D-03 NDo=     1
 LinEq1:  Iter= 14 NonCon=     1 RMS=2.35D-05 Max=2.70D-04 NDo=     1
 LinEq1:  Iter= 15 NonCon=     1 RMS=4.30D-06 Max=8.03D-05 NDo=     1
 LinEq1:  Iter= 16 NonCon=     1 RMS=3.08D-06 Max=7.59D-05 NDo=     1
 LinEq1:  Iter= 17 NonCon=     1 RMS=1.11D-06 Max=1.46D-05 NDo=     1
 LinEq1:  Iter= 18 NonCon=     1 RMS=2.04D-07 Max=2.53D-06 NDo=     1
 LinEq1:  Iter= 19 NonCon=     1 RMS=3.82D-08 Max=4.16D-07 NDo=     1
 LinEq1:  Iter= 20 NonCon=     1 RMS=8.74D-09 Max=1.05D-07 NDo=     1
 LinEq1:  Iter= 21 NonCon=     1 RMS=3.19D-09 Max=3.85D-08 NDo=     1
 LinEq1:  Iter= 22 NonCon=     1 RMS=7.75D-10 Max=1.05D-08 NDo=     1
 LinEq1:  Iter= 23 NonCon=     1 RMS=1.18D-10 Max=1.01D-09 NDo=     1
 LinEq1:  Iter= 24 NonCon=     0 RMS=2.26D-11 Max=2.22D-10 NDo=     1
 Linear equations converged to 1.000D-10 1.000D-09 after    24 iterations.
 End of Minotr F.D. properties file   721 does not exist.
 End of Minotr F.D. properties file   722 does not exist.
 End of Minotr F.D. properties file   788 does not exist.
 Calling FoFJK, ICntrl=  10005527 FMM=F ISym2X=0 I1Cent= 0 IOpClX= 0 NMat=1 NMatS=1 NMatT=0.
 ***** Axes restored to original set *****
 -------------------------------------------------------------------
 Center     Atomic                   Forces (Hartrees/Bohr)
 Number     Number              X              Y              Z
 -------------------------------------------------------------------
      1        6          -0.000618586   -0.010623181   -0.000001323
      2        6           0.001891349    0.010366856    0.000001075
      3        6           0.000537303   -0.013386153   -0.000006053
      4        6          -0.007669746    0.015457337    0.000000513
      5        6          -0.000732604   -0.012470498   -0.000006774
      6        6           0.004532836    0.010783610    0.000006056
      7        7           0.014344369    0.006339346    0.000029016
      8        6          -0.006520223    0.012174893   -0.000002103
      9        6          -0.003949949   -0.018408267   -0.000014931
     10        1          -0.000996092   -0.001709517   -0.000013609
     11        1           0.000631274    0.000961457    0.000002865
     12        1          -0.000813821    0.000911378    0.000004429
     13        1           0.000110432   -0.001271194    0.000000157
     14        1          -0.000774373    0.000813077   -0.000002037
     15        1          -0.000035734    0.000933864    0.000000843
     16        1           0.000063565   -0.000873006    0.000001877
 -------------------------------------------------------------------
 Cartesian Forces:  Max     0.018408267 RMS     0.006118304

 GradGradGradGradGradGradGradGradGradGradGradGradGradGradGradGradGradGrad
 Berny optimization.
 Using GEDIIS/GDIIS optimizer.
 FormGI is forming the generalized inverse of G from B-inverse, IUseBI=4.
 Internal  Forces:  Max     0.011101457 RMS     0.002551844
 Search for a local minimum.
 Step number   2 out of a maximum of   94
 All quantities printed in internal units (Hartrees-Bohrs-Radians)
 Mixed Optimization -- RFO/linear search
 Update second derivatives using D2CorX and points    1    2
 DE= -1.10D-02 DEPred=-1.02D-02 R= 1.08D+00
 TightC=F SS=  1.41D+00  RLast= 2.21D-01 DXNew= 5.0454D-01 6.6180D-01
 Trust test= 1.08D+00 RLast= 2.21D-01 DXMaxT set to 5.05D-01
 ITU=  1  0
 Use linear search instead of GDIIS.
     Eigenvalues ---    0.01852   0.01931   0.01986   0.02011   0.02070
     Eigenvalues ---    0.02113   0.02146   0.02150   0.02172   0.02210
     Eigenvalues ---    0.02233   0.02248   0.02341   0.15969   0.16000
     Eigenvalues ---    0.16000   0.16000   0.16000   0.16000   0.16013
     Eigenvalues ---    0.19909   0.22003   0.23870   0.24542   0.24787
     Eigenvalues ---    0.35656   0.35715   0.35787   0.36042   0.36274
     Eigenvalues ---    0.36769   0.36873   0.38287   0.41781   0.42761
     Eigenvalues ---    0.44444   0.45868   0.46708   0.47212   0.47704
     Eigenvalues ---    0.49303   0.51570
 RFO step:  Lambda=-1.71096336D-03 EMin= 1.85235270D-02
 Quartic linear search produced a step of  0.15473.
 Iteration  1 RMS(Cart)=  0.01038174 RMS(Int)=  0.00008990
 Iteration  2 RMS(Cart)=  0.00015482 RMS(Int)=  0.00002315
 Iteration  3 RMS(Cart)=  0.00000001 RMS(Int)=  0.00002315
 Variable       Old X    -DE/DX   Delta X   Delta X   Delta X     New X
                                 (Linear)    (Quad)   (Total)
    R1        2.62608  -0.00388  -0.00455  -0.00799  -0.01256   2.61352
    R2        2.67567   0.00357   0.00971   0.00392   0.01360   2.68927
    R3        2.06973   0.00046   0.00395  -0.00035   0.00360   2.07332
    R4        2.69775   0.00104   0.01271  -0.00332   0.00940   2.70714
    R5        2.06933   0.00054   0.00390  -0.00007   0.00383   2.07316
    R6        2.65702   0.00275   0.00360   0.00524   0.00887   2.66589
    R7        2.06997  -0.00084   0.00381  -0.00446  -0.00065   2.06931
    R8        2.63472  -0.00492  -0.00710  -0.01007  -0.01716   2.61756
    R9        2.64232   0.00604   0.00635   0.01025   0.01665   2.65897
   R10        2.68286  -0.00152   0.00544  -0.00635  -0.00092   2.68195
   R11        2.72296  -0.00160   0.00225  -0.00464  -0.00245   2.72051
   R12        2.06999  -0.00087   0.00383  -0.00460  -0.00077   2.06923
   R13        2.55798  -0.01110  -0.00739  -0.02292  -0.03026   2.52772
   R14        1.92980   0.00133   0.00532   0.00082   0.00614   1.93594
   R15        2.65745   0.00977   0.01219   0.01666   0.02883   2.68627
   R16        2.06254   0.00112   0.00439   0.00149   0.00588   2.06841
   R17        2.06003  -0.00091   0.00398  -0.00474  -0.00076   2.05927
    A1        2.12252   0.00231   0.00129   0.01168   0.01292   2.13544
    A2        2.07387  -0.00032  -0.00093   0.00030  -0.00060   2.07326
    A3        2.08679  -0.00200  -0.00036  -0.01198  -0.01232   2.07448
    A4        2.12176   0.00297   0.00101   0.01547   0.01647   2.13823
    A5        2.07686  -0.00029  -0.00105   0.00107   0.00002   2.07688
    A6        2.08457  -0.00268   0.00004  -0.01654  -0.01649   2.06807
    A7        2.02386  -0.00652  -0.00427  -0.03088  -0.03511   1.98875
    A8        2.12959   0.00249   0.00262   0.00965   0.01225   2.14184
    A9        2.12974   0.00404   0.00165   0.02123   0.02286   2.15260
   A10        2.15251   0.00374   0.00288   0.01751   0.02042   2.17293
   A11        2.25925  -0.00434  -0.00305  -0.01825  -0.02133   2.23792
   A12        1.87142   0.00060   0.00017   0.00074   0.00092   1.87234
   A13        2.09606   0.00281   0.00361   0.01119   0.01484   2.11090
   A14        1.84445   0.00146  -0.00321   0.00941   0.00614   1.85059
   A15        2.34267  -0.00427  -0.00040  -0.02060  -0.02098   2.32170
   A16        2.04966  -0.00531  -0.00452  -0.02498  -0.02953   2.02012
   A17        2.12052   0.00270   0.00270   0.01258   0.01530   2.13581
   A18        2.11301   0.00261   0.00182   0.01240   0.01424   2.12725
   A19        1.95762  -0.00028   0.00777  -0.00734   0.00051   1.95813
   A20        2.16924  -0.00127  -0.00325  -0.00673  -0.01002   2.15921
   A21        2.15633   0.00155  -0.00452   0.01408   0.00952   2.16584
   A22        1.90853  -0.00334   0.00601  -0.01702  -0.01107   1.89746
   A23        2.19930   0.00195  -0.00276   0.01034   0.00761   2.20691
   A24        2.17535   0.00140  -0.00325   0.00668   0.00346   2.17882
   A25        1.84276   0.00156  -0.01074   0.01421   0.00350   1.84626
   A26        2.13398   0.00005   0.00487  -0.00089   0.00396   2.13794
   A27        2.30644  -0.00161   0.00587  -0.01331  -0.00746   2.29898
    D1        0.00001  -0.00000   0.00000  -0.00001  -0.00000   0.00000
    D2        3.14159  -0.00000  -0.00001  -0.00002  -0.00002   3.14157
    D3        3.14157  -0.00000   0.00001  -0.00001  -0.00000   3.14157
    D4       -0.00003  -0.00000  -0.00000  -0.00002  -0.00002  -0.00005
    D5        0.00003   0.00000   0.00001   0.00001   0.00002   0.00005
    D6        3.14154  -0.00000   0.00000  -0.00002  -0.00002   3.14153
    D7       -3.14153   0.00000   0.00001   0.00001   0.00002  -3.14151
    D8       -0.00002  -0.00000  -0.00000  -0.00002  -0.00002  -0.00004
    D9       -0.00002   0.00000  -0.00001   0.00005   0.00004   0.00002
   D10       -3.14159  -0.00000  -0.00001  -0.00002  -0.00003   3.14157
   D11        3.14158   0.00000  -0.00000   0.00006   0.00006  -3.14155
   D12        0.00001  -0.00000   0.00000  -0.00001  -0.00001   0.00000
   D13       -0.00000  -0.00000   0.00000  -0.00011  -0.00011  -0.00011
   D14       -3.14153  -0.00000  -0.00001  -0.00007  -0.00009   3.14156
   D15        3.14156  -0.00000   0.00000  -0.00004  -0.00004   3.14152
   D16        0.00003  -0.00000  -0.00002  -0.00000  -0.00002   0.00001
   D17        0.00005   0.00000   0.00001   0.00012   0.00013   0.00018
   D18       -3.14148   0.00000   0.00001   0.00009   0.00009  -3.14139
   D19        3.14159   0.00000   0.00002   0.00009   0.00011  -3.14148
[...]
 ! D9    D(1,2,3,4)             -0.0043         -DE/DX =    0.0                 !
 ! D10   D(1,2,3,14)          -180.0014         -DE/DX =    0.0                 !
 ! D11   D(13,2,3,4)           179.999          -DE/DX =    0.0                 !
 ! D12   D(13,2,3,14)            0.0018         -DE/DX =    0.0                 !
 ! D13   D(2,3,4,5)              0.0012         -DE/DX =    0.0                 !
 ! D14   D(2,3,4,7)           -180.0003         -DE/DX =    0.0                 !
 ! D15   D(14,3,4,5)           179.9983         -DE/DX =    0.0                 !
 ! D16   D(14,3,4,7)            -0.0032         -DE/DX =    0.0                 !
 ! D17   D(3,4,5,6)              0.0054         -DE/DX =    0.0                 !
 ! D18   D(3,4,5,8)           -179.9952         -DE/DX =    0.0                 !
 ! D19   D(7,4,5,6)            180.0066         -DE/DX =    0.0                 !
 ! D20   D(7,4,5,8)              0.0061         -DE/DX =    0.0                 !
 ! D21   D(3,4,7,9)            179.9973         -DE/DX =    0.0                 !
 ! D22   D(3,4,7,10)            -0.0075         -DE/DX =    0.0                 !
 ! D23   D(5,4,7,9)             -0.0039         -DE/DX =    0.0                 !
 ! D24   D(5,4,7,10)           179.9912         -DE/DX =    0.0                 !
 ! D25   D(4,5,6,1)             -0.0084         -DE/DX =    0.0                 !
 ! D26   D(4,5,6,16)           179.9945         -DE/DX =    0.0                 !
 ! D27   D(8,5,6,1)            179.9923         -DE/DX =    0.0                 !
 ! D28   D(8,5,6,16)            -0.0048         -DE/DX =    0.0                 !
 ! D29   D(4,5,8,9)             -0.0062         -DE/DX =    0.0                 !
 ! D30   D(4,5,8,11)           179.997          -DE/DX =    0.0                 !
 ! D31   D(6,5,8,9)           -180.0069         -DE/DX =    0.0                 !
 ! D32   D(6,5,8,11)            -0.0037         -DE/DX =    0.0                 !
 ! D33   D(4,7,9,8)              0.0            -DE/DX =    0.0                 !
 ! D34   D(4,7,9,12)           179.9993         -DE/DX =    0.0                 !
 ! D35   D(10,7,9,8)          -179.9951         -DE/DX =    0.0                 !
 ! D36   D(10,7,9,12)            0.0042         -DE/DX =    0.0                 !
 ! D37   D(5,8,9,7)              0.0039         -DE/DX =    0.0                 !
 ! D38   D(5,8,9,12)           180.0046         -DE/DX =    0.0                 !
 ! D39   D(11,8,9,7)          -179.9993         -DE/DX =    0.0                 !
 ! D40   D(11,8,9,12)            0.0015         -DE/DX =    0.0                 !
 --------------------------------------------------------------------------------
 GradGradGradGradGradGradGradGradGradGradGradGradGradGradGradGradGradGrad

                          Input orientation:                          
 ---------------------------------------------------------------------
 Center     Atomic      Atomic             Coordinates (Angstroms)
 Number     Number       Type             X           Y           Z
 ---------------------------------------------------------------------
      1          6           0       -2.171487    0.681910   -0.000008
      2          6           0       -2.136247   -0.702166   -0.000016
      3          6           0       -0.921891   -1.452824    0.000065
      4          6           0        0.235069   -0.639085    0.000057
      5          6           0        0.226096    0.742484    0.000003
      6          6           0       -0.989185    1.474206    0.000063
      7          7           0        1.589885   -1.048856    0.000130
      8          6           0        1.608550    1.155266   -0.000101
      9          6           0        2.424687   -0.009246    0.000040
     10          1           0        1.879998   -2.029215    0.000312
     11          1           0        1.985156    2.180748   -0.000212
     12          1           0        3.508652   -0.118819    0.000087
     13          1           0       -3.085846   -1.251462   -0.000033
     14          1           0       -0.898418   -2.544772    0.000081
     15          1           0       -3.146756    1.182708   -0.000041
     16          1           0       -1.011361    2.566570    0.000110
 ---------------------------------------------------------------------
                    Distance matrix (angstroms):
                    1          2          3          4          5
     1  C    0.000000
     2  C    1.384525   0.000000
     3  C    2.473576   1.427637   0.000000
     4  C    2.745276   2.372155   1.414470   0.000000
     5  C    2.398348   2.769057   2.477347   1.381599   0.000000
     6  C    1.423226   2.460152   2.927803   2.442294   1.418564
     7  N    4.140468   3.742226   2.544053   1.415428   2.251404
     8  C    3.809559   4.180138   3.633904   2.259678   1.442764
     9  C    4.647851   4.613270   3.644654   2.278404   2.323554
    10  H    4.874909   4.229809   2.860561   2.153660   3.227648
    11  H    4.418619   5.029628   4.653361   3.318775   2.272201
    12  H    5.736300   5.674960   4.627016   3.314667   3.393673
    13  H    2.138687   1.097026   2.173304   3.376905   3.865848
    14  H    3.468744   2.219779   1.092201   2.217304   3.474275
    15  H    1.096334   2.138663   3.449066   3.841311   3.401459
    16  H    2.213105   3.456878   4.020389   3.439449   2.204220
                    6          7          8          9         10
     6  C    0.000000
     7  N    3.607969   0.000000
     8  C    2.617240   2.204201   0.000000
     9  C    3.722251   1.333298   1.422030   0.000000
    10  H    4.528374   1.022384   3.196029   2.092119   0.000000
    11  H    3.057107   3.253703   1.092450   2.233666   4.211277
    12  H    4.771610   2.132284   2.287723   1.089488   2.510404
    13  H    3.438788   4.680119   5.275385   5.648813   5.026382
    14  H    4.020003   2.903345   4.469358   4.179943   2.825844
    15  H    2.177173   5.235995   4.755385   5.697520   5.965292
    16  H    1.092588   4.453963   2.975855   4.294328   5.429659
                   11         12         13         14         15
    11  H    0.000000
    12  H    2.758450   0.000000
    13  H    6.123327   6.691060   0.000000
    14  H    5.535841   5.030657   2.541160   0.000000
    15  H    5.228059   6.781476   2.434933   4.353061   0.000000
    16  H    3.021253   5.257549   4.345211   5.112590   2.544599
                   16
    16  H    0.000000
 Stoichiometry    C8H7N
 Framework group  C1[X(C8H7N)]
 Deg. of freedom    42
 Full point group                 C1      NOp   1
 Largest Abelian subgroup         C1      NOp   1
 Largest concise Abelian subgroup C1      NOp   1
                         Standard orientation:                         
 ---------------------------------------------------------------------
 Center     Atomic      Atomic             Coordinates (Angstroms)
 Number     Number       Type             X           Y           Z
 ---------------------------------------------------------------------
      1          6           0       -2.179937    0.652684   -0.000038
      2          6           0       -2.127618   -0.730852   -0.000046
      3          6           0       -0.904089   -1.466465    0.000036
      4          6           0        0.242739   -0.638510    0.000028
      5          6           0        0.216716    0.742844   -0.000027
      6          6           0       -1.007503    1.459512    0.000033
      7          7           0        1.602509   -1.031529    0.000101
      8          6           0        1.593970    1.172656   -0.000131
      9          6           0        2.424418    0.018305    0.000010
     10          1           0        1.904700   -2.008232    0.000283
     11          1           0        1.957891    2.202708   -0.000242
     12          1           0        3.509651   -0.077881    0.000057
     13          1           0       -3.070365   -1.291826   -0.000063
     14          1           0       -0.867142   -2.558041    0.000052
     15          1           0       -3.161312    1.141408   -0.000071
     16          1           0       -1.043159    2.551518    0.000080
 ---------------------------------------------------------------------
 Rotational constants (GHZ):           3.8601854           1.6149100           1.1385833

 **********************************************************************

            Population analysis using the CI Density.

 **********************************************************************

 Orbital symmetries:
       Occupied  (A) (A) (A) (A) (A) (A) (A) (A) (A) (A) (A) (A)
                 (A) (A) (A) (A) (A) (A) (A) (A) (A) (A) (A) (A)
                 (A) (A) (A) (A) (A) (A) (A)
       Virtual   (A) (A) (A) (A) (A) (A) (A) (A) (A) (A) (A) (A)
                 (A) (A) (A) (A) (A) (A) (A) (A) (A) (A) (A) (A)
                 (A) (A) (A) (A) (A) (A) (A) (A) (A) (A) (A) (A)
                 (A) (A) (A) (A) (A) (A) (A) (A) (A) (A) (A) (A)
                 (A) (A) (A) (A) (A) (A) (A) (A) (A) (A) (A) (A)
                 (A) (A) (A) (A) (A) (A) (A) (A) (A) (A) (A) (A)
                 (A) (A) (A) (A) (A) (A) (A) (A) (A) (A) (A) (A)
                 (A) (A) (A) (A) (A) (A) (A) (A) (A) (A) (A) (A)
                 (A) (A) (A) (A) (A) (A) (A) (A) (A) (A) (A) (A)
                 (A) (A) (A) (A) (A) (A) (A) (A) (A) (A) (A) (A)
                 (A) (A) (A) (A) (A) (A) (A) (A) (A) (A) (A) (A)
                 (A) (A) (A) (A) (A) (A) (A) (A) (A) (A) (A) (A)
                 (A) (A) (A) (A) (A) (A) (A) (A) (A) (A)
 The electronic state is 1-A.
 Alpha  occ. eigenvalues --  -13.95018  -9.85172  -9.85065  -9.82863  -9.82091
 Alpha  occ. eigenvalues --   -9.81708  -9.81641  -9.81398  -9.80668  -0.92164
 Alpha  occ. eigenvalues --   -0.78169  -0.71990  -0.68752  -0.65891  -0.58843
 Alpha  occ. eigenvalues --   -0.55440  -0.53935  -0.50952  -0.45069  -0.44279
 Alpha  occ. eigenvalues --   -0.41407  -0.40753  -0.40322  -0.37614  -0.36739
 Alpha  occ. eigenvalues --   -0.33006  -0.32399  -0.32047  -0.26592  -0.23325
 Alpha  occ. eigenvalues --   -0.19757
 Alpha virt. eigenvalues --   -0.07685  -0.03197  -0.03153  -0.01087  -0.00779
 Alpha virt. eigenvalues --   -0.00069   0.01245   0.01559   0.02751   0.03528
 Alpha virt. eigenvalues --    0.03988   0.04288   0.05748   0.06229   0.07669
 Alpha virt. eigenvalues --    0.08131   0.08516   0.09812   0.10673   0.10713
 Alpha virt. eigenvalues --    0.11925   0.12408   0.13115   0.13309   0.13769
 Alpha virt. eigenvalues --    0.14223   0.15073   0.15519   0.16127   0.16516
 Alpha virt. eigenvalues --    0.17044   0.17262   0.17956   0.18542   0.19637
 Alpha virt. eigenvalues --    0.20168   0.20422   0.20557   0.21547   0.22336
 Alpha virt. eigenvalues --    0.23497   0.24069   0.24442   0.25226   0.25683
 Alpha virt. eigenvalues --    0.26087   0.27374   0.29036   0.30115   0.30325
 Alpha virt. eigenvalues --    0.31136   0.34367   0.35565   0.39233   0.44097
 Alpha virt. eigenvalues --    0.50608   0.53541   0.59639   0.60151   0.62258
 Alpha virt. eigenvalues --    0.64540   0.64737   0.65452   0.65700   0.65852
 Alpha virt. eigenvalues --    0.67508   0.67675   0.69386   0.70619   0.71225
 Alpha virt. eigenvalues --    0.73501   0.77141   0.80537   0.81356   0.82068
 Alpha virt. eigenvalues --    0.85931   0.87005   0.87391   0.87910   0.90015
 Alpha virt. eigenvalues --    0.91752   0.95085   0.96699   0.98038   1.02013
 Alpha virt. eigenvalues --    1.04363   1.05329   1.09749   1.10410   1.13958
 Alpha virt. eigenvalues --    1.15357   1.16268   1.17056   1.23759   1.24033
 Alpha virt. eigenvalues --    1.26943   1.28613   1.31221   1.32391   1.35463
 Alpha virt. eigenvalues --    1.38626   1.39751   1.40751   1.41801   1.45776
 Alpha virt. eigenvalues --    1.49360   1.54121   1.70679   1.73122   1.78026
 Alpha virt. eigenvalues --    1.80745   1.81460   1.82955   1.89328   1.89759
 Alpha virt. eigenvalues --    1.91553   1.94342   1.97221   2.03827   2.07190
 Alpha virt. eigenvalues --    2.07850   2.10394   2.12751   2.14946   2.17884
 Alpha virt. eigenvalues --    2.18305   2.20789   2.26969   2.30124   2.35724
 Alpha virt. eigenvalues --    2.41674   2.44876   2.51031   2.54934   2.55299
 Alpha virt. eigenvalues --    2.56947   2.63531   2.69208   2.72374   2.73775
 Alpha virt. eigenvalues --    2.83500   2.87972   2.96083   3.11506   3.29600
 Alpha virt. eigenvalues --    4.03524   4.13384   4.17263   4.20538   4.24168
 Alpha virt. eigenvalues --    4.28259   4.36130   4.40662   4.66028
          Condensed to atoms (all electrons):
               1          2          3          4          5          6
     1  C    5.607666   0.505874   0.121654  -0.121212  -0.462582   0.033943
     2  C    0.505874   5.721183  -0.124230   0.106594  -0.357449   0.449505
     3  C    0.121654  -0.124230  14.978914  -2.118249  -5.769651  -2.679939
     4  C   -0.121212   0.106594  -2.118249  16.712744  -5.419325  -2.851997
     5  C   -0.462582  -0.357449  -5.769651  -5.419325  19.390156   0.538593
     6  C    0.033943   0.449505  -2.679939  -2.851997   0.538593  13.117854
     7  N   -0.029048   0.012847  -0.337082  -0.508952   0.752178   0.103283
     8  C    0.159681  -0.282877   3.735146   2.088663  -7.024306  -3.174363
     9  C   -0.073066   0.026334  -1.423455  -0.691476   2.521683   0.871997
    10  H   -0.005186  -0.003792  -0.162620  -0.099598   0.234213   0.026944
    11  H    0.005152   0.001415   0.006071   0.043469  -0.066693   0.014046
    12  H    0.001625  -0.000145   0.037304   0.123204  -0.120461  -0.026015
    13  H    0.002444   0.248634  -0.031886   0.024351   0.004558   0.038988
    14  H    0.029341   0.020999   0.170075   0.044718   0.044272  -0.017927
    15  H    0.255483   0.008359   0.036108  -0.021400   0.040440  -0.034348
    16  H    0.002306   0.030044  -0.051423   0.049438   0.100973   0.227831
               7          8          9         10         11         12
     1  C   -0.029048   0.159681  -0.073066  -0.005186   0.005152   0.001625
     2  C    0.012847  -0.282877   0.026334  -0.003792   0.001415  -0.000145
     3  C   -0.337082   3.735146  -1.423455  -0.162620   0.006071   0.037304
     4  C   -0.508952   2.088663  -0.691476  -0.099598   0.043469   0.123204
     5  C    0.752178  -7.024306   2.521683   0.234213  -0.066693  -0.120461
     6  C    0.103283  -3.174363   0.871997   0.026944   0.014046  -0.026015
     7  N    7.160085  -0.523256   0.532942   0.245891   0.007787  -0.055554
     8  C   -0.523256  13.333566  -2.659724   0.003879   0.332785   0.022689
     9  C    0.532942  -2.659724   6.875911  -0.035340  -0.063948   0.319457
    10  H    0.245891   0.003879  -0.035340   0.354760  -0.000096  -0.003260
    11  H    0.007787   0.332785  -0.063948  -0.000096   0.478812  -0.000838
    12  H   -0.055554   0.022689   0.319457  -0.003260  -0.000838   0.462415
    13  H   -0.000478  -0.003196   0.002324  -0.000003  -0.000000  -0.000000
    14  H   -0.008063  -0.019778   0.014512   0.002764   0.000002   0.000001
    15  H    0.000279   0.003337  -0.000184  -0.000000  -0.000002  -0.000000
    16  H   -0.000650  -0.087443   0.006690   0.000005   0.001829  -0.000002
              13         14         15         16
     1  C    0.002444   0.029341   0.255483   0.002306
     2  C    0.248634   0.020999   0.008359   0.030044
     3  C   -0.031886   0.170075   0.036108  -0.051423
     4  C    0.024351   0.044718  -0.021400   0.049438
     5  C    0.004558   0.044272   0.040440   0.100973
     6  C    0.038988  -0.017927  -0.034348   0.227831
     7  N   -0.000478  -0.008063   0.000279  -0.000650
     8  C   -0.003196  -0.019778   0.003337  -0.087443
     9  C    0.002324   0.014512  -0.000184   0.006690
    10  H   -0.000003   0.002764  -0.000000   0.000005
    11  H   -0.000000   0.000002  -0.000002   0.001829
    12  H   -0.000000   0.000001  -0.000000  -0.000002
    13  H    0.539719  -0.004533  -0.006720  -0.000170
    14  H   -0.004533   0.534856  -0.000162   0.000017
    15  H   -0.006720  -0.000162   0.538439  -0.004201
    16  H   -0.000170   0.000017  -0.004201   0.533689
 Mulliken charges:
               1
     1  C   -0.034077
     2  C   -0.363293
     3  C   -0.386737
     4  C   -1.360971
     5  C    1.593400
     6  C   -0.638397
     7  N   -0.352209
     8  C    0.095197
     9  C   -0.224658
    10  H    0.441439
    11  H    0.240207
    12  H    0.239582
    13  H    0.185968
    14  H    0.188907
    15  H    0.184573
    16  H    0.191067
 Sum of Mulliken charges =  -0.00000
 Mulliken charges with hydrogens summed into heavy atoms:
               1
     1  C    0.150497
     2  C   -0.177325
     3  C   -0.197830
     4  C   -1.360971
     5  C    1.593400
     6  C   -0.447329
     7  N    0.089231
     8  C    0.335404
     9  C    0.014924
 Electronic spatial extent (au):  <R**2>=           1020.8542
 Charge=             -0.0000 electrons
 Dipole moment (field-independent basis, Debye):
    X=              5.4209    Y=             -1.0734    Z=              0.0001  Tot=              5.5262
 Quadrupole moment (field-independent basis, Debye-Ang):
   XX=            -43.1325   YY=            -46.6793   ZZ=            -60.1341
   XY=             -2.1427   XZ=              0.0006   YZ=             -0.0011
 Traceless Quadrupole moment (field-independent basis, Debye-Ang):
   XX=              6.8495   YY=              3.3027   ZZ=            -10.1521
   XY=             -2.1427   XZ=              0.0006   YZ=             -0.0011
 Octapole moment (field-independent basis, Debye-Ang**2):
  XXX=             34.9653  YYY=             -7.8038  ZZZ=             -0.0004  XYY=             18.2164
  XXY=             -6.5399  XXZ=              0.0013  XZZ=              7.1771  YZZ=             -0.8500
  YYZ=              0.0008  XYZ=             -0.0027
 Hexadecapole moment (field-independent basis, Debye-Ang**3):
 XXXX=           -824.9893 YYYY=           -403.9584 ZZZZ=            -82.0759 XXXY=            -16.6337
 XXXZ=              0.0004 YYYX=            -15.3764 YYYZ=              0.0019 ZZZX=             -0.0035
 ZZZY=              0.0073 XXYY=           -198.4279 XXZZ=           -196.1758 YYZZ=           -105.1915
 XXYZ=             -0.0028 YYXZ=              0.0013 ZZXY=             -1.8796
 N-N= 3.982029303888D+02 E-N=-1.636466103331D+03  KE= 3.580048379527D+02
 Unable to Open any file for archive entry.
 1\1\GINC-EXP-2-40\FOpt\RSVWN TD-FC\6-31+G(d)\C8H7N1\SCAPARAS\23-Jun-20
 21\0\\# td= (nstates=6, root=1) LSDA/6-31+G* Opt density=current\\Func
 sLSDA-V-1st\\0,1\C,-2.1714870507,0.6819101555,-0.000008257\C,-2.136246
 9523,-0.7021663554,-0.0000162038\C,-0.9218906152,-1.4528237776,0.00006
 5059\C,0.2350693183,-0.6390853787,0.0000573345\C,0.2260959405,0.742484
 0849,0.0000029246\C,-0.9891845961,1.4742062549,0.0000625687\N,1.589884
 8655,-1.0488562782,0.0001304727\C,1.608549616,1.1552655012,-0.00010131
 53\C,2.424687488,-0.0092460437,0.0000398692\H,1.8799983707,-2.02921515
 14,0.0003121728\H,1.9851557529,2.1807482643,-0.0002124216\H,3.50865158
 66,-0.1188186586,0.0000868415\H,-3.0858462517,-1.2514623814,-0.0000334
 28\H,-0.8984176146,-2.5447722653,0.0000814955\H,-3.1467557667,1.182708
 4055,-0.0000410288\H,-1.0113610912,2.5665696236,0.0001099159\\Version=
 AS64L-G16RevC.01\State=1-A\HF=-361.7636026\RMSD=7.813e-09\RMSF=2.185e-
 05\Dipole=2.1327658,-0.422309,0.0000442\Quadrupole=5.0924085,2.4554638
 ,-7.5478723,-1.5930221,0.0004331,-0.0008172\PG=C01 [X(C8H7N1)]\\@
 The archive entry for this job was punched.


 Not by the face shall a man be known, but by the mask.
                               -- Karen Blixen
 Job cpu time:       0 days  1 hours 17 minutes 25.4 seconds.
 Elapsed time:       0 days  0 hours 25 minutes 32.4 seconds.
 File lengths (MBytes):  RWF=    218 Int=      0 D2E=      0 Chk=     11 Scr=      1
 Normal termination of Gaussian 16 at Wed Jun 23 07:56:33 2021.
