 Entering Gaussian System, Link 0=/cm/shared/apps/spack/cpu/opt/spack/linux-centos8-zen/gcc-8.3.1/gaussian-16.C.01-po5bqktfeugvmjyga3v7eigbecnokxng/g16/g16
 Initial command:
 /cm/shared/apps/spack/cpu/opt/spack/linux-centos8-zen/gcc-8.3.1/gaussian-16.C.01-po5bqktfeugvmjyga3v7eigbecnokxng/g16/l1.exe "/scratch/cwaldt/job_3581108/Gau-70204.inp" -scrdir="/scratch/cwaldt/job_3581108/"
 Entering Link 1 = /cm/shared/apps/spack/cpu/opt/spack/linux-centos8-zen/gcc-8.3.1/gaussian-16.C.01-po5bqktfeugvmjyga3v7eigbecnokxng/g16/l1.exe PID=     70205.
  
 Copyright (c) 1988-2019, Gaussian, Inc.  All Rights Reserved.
  
 This is part of the Gaussian(R) 16 program.  It is based on
 the Gaussian(R) 09 system (copyright 2009, Gaussian, Inc.),
 the Gaussian(R) 03 system (copyright 2003, Gaussian, Inc.),
 the Gaussian(R) 98 system (copyright 1998, Gaussian, Inc.),
 the Gaussian(R) 94 system (copyright 1995, Gaussian, Inc.),
 the Gaussian 92(TM) system (copyright 1992, Gaussian, Inc.),
 the Gaussian 90(TM) system (copyright 1990, Gaussian, Inc.),
 the Gaussian 88(TM) system (copyright 1988, Gaussian, Inc.),
 the Gaussian 86(TM) system (copyright 1986, Carnegie Mellon
 University), and the Gaussian 82(TM) system (copyright 1983,
 Carnegie Mellon University). Gaussian is a federally registered
 trademark of Gaussian, Inc.
  
 This software contains proprietary and confidential information,
 including trade secrets, belonging to Gaussian, Inc.
  
 This software is provided under written license and may be
 used, copied, transmitted, or stored only in accord with that
 written license.
  
 The following legend is applicable only to US Government
 contracts under FAR:
  
                    RESTRICTED RIGHTS LEGEND
  
 Use, reproduction and disclosure by the US Government is
 subject to restrictions as set forth in subparagraphs (a)
 and (c) of the Commercial Computer Software - Restricted
 Rights clause in FAR 52.227-19.
  
 Gaussian, Inc.
 340 Quinnipiac St., Bldg. 40, Wallingford CT 06492
  
  
 ---------------------------------------------------------------
 Warning -- This program may not be used in any manner that
 competes with the business of Gaussian, Inc. or will provide
 assistance to any competitor of Gaussian, Inc.  The licensee
 of this program is prohibited from giving any competitor of
 Gaussian, Inc. access to this program.  By using this program,
 the user acknowledges that Gaussian, Inc. is engaged in the
 business of creating and licensing software in the field of
 computational chemistry and represents and warrants to the
 licensee that it is not a competitor of Gaussian, Inc. and that
 it will not use this program in any manner prohibited above.
 ---------------------------------------------------------------
  

 Cite this work as:
 Gaussian 16, Revision C.01,
 M. J. Frisch, G. W. Trucks, H. B. Schlegel, G. E. Scuseria, 
 M. A. Robb, J. R. Cheeseman, G. Scalmani, V. Barone, 
 G. A. Petersson, H. Nakatsuji, X. Li, M. Caricato, A. V. Marenich, 
 J. Bloino, B. G. Janesko, R. Gomperts, B. Mennucci, H. P. Hratchian, 
 J. V. Ortiz, A. F. Izmaylov, J. L. Sonnenberg, D. Williams-Young, 
 F. Ding, F. Lipparini, F. Egidi, J. Goings, B. Peng, A. Petrone, 
 T. Henderson, D. Ranasinghe, V. G. Zakrzewski, J. Gao, N. Rega, 
 G. Zheng, W. Liang, M. Hada, M. Ehara, K. Toyota, R. Fukuda, 
 J. Hasegawa, M. Ishida, T. Nakajima, Y. Honda, O. Kitao, H. Nakai, 
 T. Vreven, K. Throssell, J. A. Montgomery, Jr., J. E. Peralta, 
 F. Ogliaro, M. J. Bearpark, J. J. Heyd, E. N. Brothers, K. N. Kudin, 
 V. N. Staroverov, T. A. Keith, R. Kobayashi, J. Normand, 
 K. Raghavachari, A. P. Rendell, J. C. Burant, S. S. Iyengar, 
 J. Tomasi, M. Cossi, J. M. Millam, M. Klene, C. Adamo, R. Cammi, 
 J. W. Ochterski, R. L. Martin, K. Morokuma, O. Farkas, 
 J. B. Foresman, and D. J. Fox, Gaussian, Inc., Wallingford CT, 2019.
 
 ******************************************
 Gaussian 16:  AS64L-G16RevC.01  3-Jul-2019
                23-Jun-2021 
 ******************************************
 %nprocshared=4
 Will use up to    4 processors via shared memory.
 %chk=FuncsBHandHLYP-V-3rd.chk
 %Mem=3GB
 ---------------------------------------------------------------
 # td= (nstates=6, root=3) BHandHLYP/6-31+G* Opt density=current
 ---------------------------------------------------------------
 1/18=20,19=15,26=3,38=1/1,3;
 2/9=110,12=2,17=6,18=5,40=1/2;
 3/5=1,6=6,7=11,11=9,25=1,30=1,71=1,74=-3/1,2,3,8;
 4//1;
 5/5=2,38=5/2;
 8/6=1,10=2,107=3,108=6/1;
 9/8=3,15=2,41=6,42=1,70=2/14;
 10/5=4,28=3/2;
 6/7=2,8=2,9=2,10=2,22=-1/1;
 7/12=6,13=5,14=3/1,2,3,16;
 1/18=20,19=15,26=3/3(2);
 2/9=110/2;
 99//99;
 2/9=110/2;
 3/5=1,6=6,7=11,11=9,25=1,30=1,71=1,74=-3/1,2,3,8;
 4/5=5,16=3,69=1/1;
 5/5=2,38=5/2;
 8/6=1,10=2,107=3,108=6/1;
 9/8=3,15=2,41=6,42=1,49=4,70=2/14;
 10/5=4,28=3/2;
 7/12=6,13=5,14=3/1,2,3,16;
 1/18=20,19=15,26=3/3(-8);
 2/9=110/2;
 6/7=2,8=2,9=2,10=2,22=-1/1;
 99/9=10/99;
 --------------------
 FuncsBHandHLYP-V-3rd
 --------------------
 Symbolic Z-matrix:
 Charge =  0 Multiplicity = 1
 C                    -2.15106   0.68921   0.00009 
 C                    -2.12793  -0.71582   0.00008 
 C                    -0.9323   -1.4131   -0.00001 
 C                     0.24691  -0.6702   -0.00004 
 C                     0.24819   0.7483    0. 
 C                    -0.97947   1.42353   0.00003 
 N                     1.56177  -1.07759  -0.00029 
 C                     1.62013   1.1629   -0.00016 
 C                     2.38201   0.03081   0.00025 
 H                     1.87632  -2.03001   0.00044 
 H                     1.99217   2.17301  -0.00035 
 H                     3.45255  -0.08243   0.00041 
 H                    -3.06159  -1.26202   0.00009 
 H                    -0.91725  -2.49534  -0.00007 
 H                    -3.1042    1.20079   0.00009 
 H                    -1.00935   2.50542  -0.00002 
 

 GradGradGradGradGradGradGradGradGradGradGradGradGradGradGradGradGradGrad
 Berny optimization.
 Initialization pass.
                           ----------------------------
                           !    Initial Parameters    !
                           ! (Angstroms and Degrees)  !
 --------------------------                            --------------------------
 ! Name  Definition              Value          Derivative Info.                !
 --------------------------------------------------------------------------------
 ! R1    R(1,2)                  1.4052         estimate D2E/DX2                !
 ! R2    R(1,6)                  1.3827         estimate D2E/DX2                !
 ! R3    R(1,15)                 1.0818         estimate D2E/DX2                !
 ! R4    R(2,3)                  1.3841         estimate D2E/DX2                !
 ! R5    R(2,13)                 1.0817         estimate D2E/DX2                !
 ! R6    R(3,4)                  1.3937         estimate D2E/DX2                !
 ! R7    R(3,14)                 1.0823         estimate D2E/DX2                !
 ! R8    R(4,5)                  1.4185         estimate D2E/DX2                !
 ! R9    R(4,7)                  1.3765         estimate D2E/DX2                !
 ! R10   R(5,6)                  1.4011         estimate D2E/DX2                !
 ! R11   R(5,8)                  1.4332         estimate D2E/DX2                !
 ! R12   R(6,16)                 1.0823         estimate D2E/DX2                !
 ! R13   R(7,9)                  1.3789         estimate D2E/DX2                !
 ! R14   R(7,10)                 1.003          estimate D2E/DX2                !
 ! R15   R(8,9)                  1.3646         estimate D2E/DX2                !
 ! R16   R(8,11)                 1.0764         estimate D2E/DX2                !
 ! R17   R(9,12)                 1.0765         estimate D2E/DX2                !
 ! A1    A(2,1,6)              121.1349         estimate D2E/DX2                !
 ! A2    A(2,1,15)             119.1671         estimate D2E/DX2                !
 ! A3    A(6,1,15)             119.698          estimate D2E/DX2                !
 ! A4    A(1,2,3)              121.1938         estimate D2E/DX2                !
 ! A5    A(1,2,13)             119.3846         estimate D2E/DX2                !
 ! A6    A(3,2,13)             119.4217         estimate D2E/DX2                !
 ! A7    A(2,3,4)              117.5387         estimate D2E/DX2                !
 ! A8    A(2,3,14)             121.0469         estimate D2E/DX2                !
 ! A9    A(4,3,14)             121.4144         estimate D2E/DX2                !
 ! A10   A(3,4,5)              122.2626         estimate D2E/DX2                !
 ! A11   A(3,4,7)              130.5743         estimate D2E/DX2                !
 ! A12   A(5,4,7)              107.163          estimate D2E/DX2                !
 ! A13   A(4,5,6)              118.7594         estimate D2E/DX2                !
 ! A14   A(4,5,8)              106.8666         estimate D2E/DX2                !
 ! A15   A(6,5,8)              134.374          estimate D2E/DX2                !
 ! A16   A(1,6,5)              119.1105         estimate D2E/DX2                !
 ! A17   A(1,6,16)             120.4966         estimate D2E/DX2                !
 ! A18   A(5,6,16)             120.3928         estimate D2E/DX2                !
 ! A19   A(4,7,9)              109.2874         estimate D2E/DX2                !
 ! A20   A(4,7,10)             125.4909         estimate D2E/DX2                !
 ! A21   A(9,7,10)             125.2217         estimate D2E/DX2                !
 ! A22   A(5,8,9)              107.125          estimate D2E/DX2                !
 ! A23   A(5,8,11)             127.0344         estimate D2E/DX2                !
 ! A24   A(9,8,11)             125.8405         estimate D2E/DX2                !
 ! A25   A(7,9,8)              109.5578         estimate D2E/DX2                !
 ! A26   A(7,9,12)             120.4645         estimate D2E/DX2                !
 ! A27   A(8,9,12)             129.9776         estimate D2E/DX2                !
 ! D1    D(6,1,2,3)             -0.0008         estimate D2E/DX2                !
 ! D2    D(6,1,2,13)          -179.9981         estimate D2E/DX2                !
 ! D3    D(15,1,2,3)           179.996          estimate D2E/DX2                !
 ! D4    D(15,1,2,13)           -0.0013         estimate D2E/DX2                !
 ! D5    D(2,1,6,5)             -0.0018         estimate D2E/DX2                !
 ! D6    D(2,1,6,16)           179.9965         estimate D2E/DX2                !
 ! D7    D(15,1,6,5)          -179.9986         estimate D2E/DX2                !
 ! D8    D(15,1,6,16)           -0.0003         estimate D2E/DX2                !
 ! D9    D(1,2,3,4)              0.002          estimate D2E/DX2                !
 ! D10   D(1,2,3,14)          -179.9968         estimate D2E/DX2                !
 ! D11   D(13,2,3,4)           179.9992         estimate D2E/DX2                !
 ! D12   D(13,2,3,14)            0.0005         estimate D2E/DX2                !
 ! D13   D(2,3,4,5)             -0.0005         estimate D2E/DX2                !
 ! D14   D(2,3,4,7)           -179.9911         estimate D2E/DX2                !
 ! D15   D(14,3,4,5)           179.9982         estimate D2E/DX2                !
 ! D16   D(14,3,4,7)             0.0076         estimate D2E/DX2                !
 ! D17   D(3,4,5,6)             -0.002          estimate D2E/DX2                !
 ! D18   D(3,4,5,8)           -179.9955         estimate D2E/DX2                !
 ! D19   D(7,4,5,6)            179.9905         estimate D2E/DX2                !
 ! D20   D(7,4,5,8)             -0.003          estimate D2E/DX2                !
 ! D21   D(3,4,7,9)           -179.98           estimate D2E/DX2                !
 ! D22   D(3,4,7,10)            -0.0649         estimate D2E/DX2                !
 ! D23   D(5,4,7,9)              0.0284         estimate D2E/DX2                !
 ! D24   D(5,4,7,10)           179.9434         estimate D2E/DX2                !
 ! D25   D(4,5,6,1)              0.0031         estimate D2E/DX2                !
 ! D26   D(4,5,6,16)          -179.9951         estimate D2E/DX2                !
 ! D27   D(8,5,6,1)            179.9944         estimate D2E/DX2                !
 ! D28   D(8,5,6,16)            -0.0038         estimate D2E/DX2                !
 ! D29   D(4,5,8,9)             -0.0234         estimate D2E/DX2                !
 ! D30   D(4,5,8,11)           179.9883         estimate D2E/DX2                !
 ! D31   D(6,5,8,9)            179.9846         estimate D2E/DX2                !
 ! D32   D(6,5,8,11)            -0.0037         estimate D2E/DX2                !
 ! D33   D(4,7,9,8)             -0.0444         estimate D2E/DX2                !
 ! D34   D(4,7,9,12)           179.9847         estimate D2E/DX2                !
 ! D35   D(10,7,9,8)          -179.9597         estimate D2E/DX2                !
 ! D36   D(10,7,9,12)            0.0693         estimate D2E/DX2                !
 ! D37   D(5,8,9,7)              0.0414         estimate D2E/DX2                !
 ! D38   D(5,8,9,12)          -179.9913         estimate D2E/DX2                !
 ! D39   D(11,8,9,7)          -179.9702         estimate D2E/DX2                !
 ! D40   D(11,8,9,12)           -0.0029         estimate D2E/DX2                !
 --------------------------------------------------------------------------------
 Trust Radius=3.00D-01 FncErr=1.00D-07 GrdErr=1.00D-06 EigMax=2.50D+02 EigMin=1.00D-04
 Number of steps in this run=     94 maximum allowed number of steps=    100.
 GradGradGradGradGradGradGradGradGradGradGradGradGradGradGradGradGradGrad

                          Input orientation:                          
 ---------------------------------------------------------------------
 Center     Atomic      Atomic             Coordinates (Angstroms)
 Number     Number       Type             X           Y           Z
 ---------------------------------------------------------------------
      1          6           0       -2.151063    0.689208    0.000088
      2          6           0       -2.127927   -0.715818    0.000075
      3          6           0       -0.932297   -1.413100   -0.000011
      4          6           0        0.246911   -0.670201   -0.000042
      5          6           0        0.248193    0.748299    0.000000
      6          6           0       -0.979474    1.423526    0.000032
      7          7           0        1.561774   -1.077592   -0.000285
      8          6           0        1.620133    1.162900   -0.000157
      9          6           0        2.382013    0.030806    0.000248
     10          1           0        1.876315   -2.030011    0.000438
     11          1           0        1.992173    2.173010   -0.000348
     12          1           0        3.452549   -0.082425    0.000408
     13          1           0       -3.061594   -1.262020    0.000088
     14          1           0       -0.917252   -2.495342   -0.000073
     15          1           0       -3.104203    1.200785    0.000090
     16          1           0       -1.009348    2.505421   -0.000015
 ---------------------------------------------------------------------
                    Distance matrix (angstroms):
                    1          2          3          4          5
     1  C    0.000000
     2  C    1.405216   0.000000
     3  C    2.430039   1.384100   0.000000
     4  C    2.756496   2.375276   1.393711   0.000000
     5  C    2.399984   2.790983   2.462763   1.418501   0.000000
     6  C    1.382694   2.428114   2.837018   2.426461   1.401106
     7  N    4.111781   3.707395   2.516536   1.376529   2.249305
     8  C    3.800829   4.192557   3.626386   2.290414   1.433218
     9  C    4.580641   4.571324   3.615178   2.247236   2.251218
    10  H    4.859416   4.214387   2.875566   2.122273   3.220216
    11  H    4.400917   5.031953   4.627387   3.336134   2.251948
    12  H    5.656491   5.616307   4.582311   3.259079   3.310287
    13  H    2.153220   1.081698   2.134650   3.361020   3.872476
    14  H    3.415208   2.152310   1.082347   2.164813   3.446661
    15  H    1.081752   2.150926   3.398466   3.838040   3.382795
    16  H    2.145261   3.409927   3.919278   3.415079   2.160761
                    6          7          8          9         10
     6  C    0.000000
     7  N    3.565604   0.000000
     8  C    2.612639   2.241252   0.000000
     9  C    3.638580   1.378890   1.364587   0.000000
    10  H    4.481345   1.003015   3.203172   2.121956   0.000000
    11  H    3.064704   3.278972   1.076446   2.177387   4.204618
    12  H    4.680888   2.136677   2.215532   1.076508   2.505515
    13  H    3.398144   4.627045   5.272457   5.595021   4.997275
    14  H    3.919362   2.855798   4.452085   4.155307   2.832058
    15  H    2.136372   5.192528   4.724488   5.609583   5.936632
    16  H    1.082307   4.410062   2.952378   4.198220   5.375611
                   11         12         13         14         15
    11  H    0.000000
    12  H    2.686947   0.000000
    13  H    6.110646   6.620083   0.000000
    14  H    5.500751   4.991726   2.473719   0.000000
    15  H    5.188282   6.681139   2.463174   4.294661   0.000000
    16  H    3.019872   5.158049   4.290143   5.001611   2.467892
                   16
    16  H    0.000000
 Stoichiometry    C8H7N
 Framework group  C1[X(C8H7N)]
 Deg. of freedom    42
 Full point group                 C1      NOp   1
 Largest Abelian subgroup         C1      NOp   1
 Largest concise Abelian subgroup C1      NOp   1
                         Standard orientation:                         
 ---------------------------------------------------------------------
 Center     Atomic      Atomic             Coordinates (Angstroms)
 Number     Number       Type             X           Y           Z
 ---------------------------------------------------------------------
      1          6           0       -2.151063    0.689208    0.000088
      2          6           0       -2.127927   -0.715818    0.000075
      3          6           0       -0.932297   -1.413100   -0.000011
      4          6           0        0.246911   -0.670201   -0.000042
      5          6           0        0.248193    0.748299    0.000000
      6          6           0       -0.979474    1.423526    0.000032
      7          7           0        1.561774   -1.077592   -0.000285
      8          6           0        1.620133    1.162900   -0.000157
      9          6           0        2.382013    0.030806    0.000248
     10          1           0        1.876315   -2.030011    0.000438
     11          1           0        1.992173    2.173010   -0.000348
     12          1           0        3.452549   -0.082425    0.000408
     13          1           0       -3.061594   -1.262020    0.000088
     14          1           0       -0.917252   -2.495342   -0.000073
     15          1           0       -3.104203    1.200785    0.000090
     16          1           0       -1.009348    2.505421   -0.000015
 ---------------------------------------------------------------------
 Rotational constants (GHZ):           3.9080822           1.6429452           1.1566805
 Standard basis: 6-31+G(d) (6D, 7F)
 There are   185 symmetry adapted cartesian basis functions of A   symmetry.
 There are   185 symmetry adapted basis functions of A   symmetry.
   185 basis functions,   316 primitive gaussians,   185 cartesian basis functions
    31 alpha electrons       31 beta electrons
       nuclear repulsion energy       401.3368668897 Hartrees.
 NAtoms=   16 NActive=   16 NUniq=   16 SFac= 1.00D+00 NAtFMM=   60 NAOKFM=F Big=F
 Integral buffers will be    131072 words long.
 Regular integral format.
 Two-electron integral symmetry is turned on.
 One-electron integrals computed using PRISM.
 NBasis=   185 RedAO= T EigKep=  1.26D-06  NBF=   185
 NBsUse=   185 1.00D-06 EigRej= -1.00D+00 NBFU=   185
 ExpMin= 4.38D-02 ExpMax= 4.17D+03 ExpMxC= 6.27D+02 IAcc=3 IRadAn=         5 AccDes= 0.00D+00
 Harris functional with IExCor=  402 and IRadAn=       5 diagonalized for initial guess.
 HarFok:  IExCor=  402 AccDes= 0.00D+00 IRadAn=         5 IDoV= 1 UseB2=F ITyADJ=14
 ICtDFT=  3500011 ScaDFX=  1.000000  1.000000  1.000000  1.000000
 FoFCou: FMM=F IPFlag=           0 FMFlag=      100000 FMFlg1=           0
         NFxFlg=           0 DoJE=T BraDBF=F KetDBF=T FulRan=T
         wScrn=  0.000000 ICntrl=       500 IOpCl=  0 I1Cent=   200000004 NGrid=           0
         NMat0=    1 NMatS0=      1 NMatT0=    0 NMatD0=    1 NMtDS0=    0 NMtDT0=    0
 Petite list used in FoFCou.
 Keep R1 ints in memory in canonical form, NReq=152071459.
 Requested convergence on RMS density matrix=1.00D-08 within 128 cycles.
 Requested convergence on MAX density matrix=1.00D-06.
 Requested convergence on             energy=1.00D-06.
 No special actions if energy rises.
 SCF Done:  E(RBHandHLYP) =  -363.604797963     A.U. after   15 cycles
            NFock= 15  Conv=0.58D-08     -V/T= 2.0079
 DoSCS=F DFT=T ScalE2(SS,OS)=  1.000000  1.000000
 ExpMin= 4.38D-02 ExpMax= 4.17D+03 ExpMxC= 6.27D+02 IAcc=3 IRadAn=         5 AccDes= 0.00D+00
 HarFok:  IExCor=  205 AccDes= 0.00D+00 IRadAn=         5 IDoV=-2 UseB2=F ITyADJ=14
 ICtDFT= 12500011 ScaDFX=  1.000000  1.000000  1.000000  1.000000
 Range of M.O.s used for correlation:    10   185
 NBasis=   185 NAE=    31 NBE=    31 NFC=     9 NFV=     0
 NROrb=    176 NOA=    22 NOB=    22 NVA=   154 NVB=   154

 **** Warning!!: The largest alpha MO coefficient is  0.21430993D+03

 Orbital symmetries:
       Occupied  (A) (A) (A) (A) (A) (A) (A) (A) (A) (A) (A) (A)
                 (A) (A) (A) (A) (A) (A) (A) (A) (A) (A) (A) (A)
                 (A) (A) (A) (A) (A) (A) (A)
       Virtual   (A) (A) (A) (A) (A) (A) (A) (A) (A) (A) (A) (A)
                 (A) (A) (A) (A) (A) (A) (A) (A) (A) (A) (A) (A)
                 (A) (A) (A) (A) (A) (A) (A) (A) (A) (A) (A) (A)
                 (A) (A) (A) (A) (A) (A) (A) (A) (A) (A) (A) (A)
                 (A) (A) (A) (A) (A) (A) (A) (A) (A) (A) (A) (A)
                 (A) (A) (A) (A) (A) (A) (A) (A) (A) (A) (A) (A)
                 (A) (A) (A) (A) (A) (A) (A) (A) (A) (A) (A) (A)
                 (A) (A) (A) (A) (A) (A) (A) (A) (A) (A) (A) (A)
                 (A) (A) (A) (A) (A) (A) (A) (A) (A) (A) (A) (A)
                 (A) (A) (A) (A) (A) (A) (A) (A) (A) (A) (A) (A)
                 (A) (A) (A) (A) (A) (A) (A) (A) (A) (A) (A) (A)
                 (A) (A) (A) (A) (A) (A) (A) (A) (A) (A) (A) (A)
                 (A) (A) (A) (A) (A) (A) (A) (A) (A) (A)
    24 initial guesses have been made.
 Convergence on wavefunction:    0.000001000000000
 Iteration     1 Dimension    24 NMult     0 NNew     24
 CISAX will form    24 AO SS matrices at one time.
 New state      2 was old state      5
 New state      3 was old state      2
 New state      4 was old state      3
 New state      5 was old state      4
 Iteration     2 Dimension    36 NMult    24 NNew     12
 New state      1 was old state      3
 New state      3 was old state      1
 Iteration     3 Dimension    48 NMult    36 NNew     12
 Iteration     4 Dimension    60 NMult    48 NNew     12
 Iteration     5 Dimension    72 NMult    60 NNew     12
 Iteration     6 Dimension    84 NMult    72 NNew     12
 Iteration     7 Dimension    96 NMult    84 NNew     12
 Iteration     8 Dimension   108 NMult    96 NNew     12
 Iteration     9 Dimension   120 NMult   108 NNew     12
 Iteration    10 Dimension   124 NMult   120 NNew      4
 Iteration    11 Dimension   126 NMult   124 NNew      2
 ***********************************************************************
 Excited states from <AA,BB:AA,BB> singles matrix:
 ***********************************************************************
 
 Ground to excited state transition densities written to RWF  633
 Ground to excited state transition electric dipole moments (Au):
       state          X           Y           Z        Dip. S.      Osc.
         1        -0.6978      0.6709     -0.0004      0.9370      0.1182
         2        -0.6441     -0.1556     -0.0002      0.4391      0.0559
         3         0.0020     -0.0012     -0.1696      0.0288      0.0037
         4        -0.0004      0.0001     -0.1585      0.0251      0.0035
         5         0.0004     -0.0000      0.0112      0.0001      0.0000
         6         0.0006      0.0002      0.1124      0.0126      0.0018
 Ground to excited state transition velocity dipole moments (Au):
       state          X           Y           Z        Dip. S.      Osc.
         1         0.1214     -0.1354      0.0001      0.0331      0.1166
         2         0.1167      0.0311      0.0000      0.0146      0.0509
         3        -0.0003      0.0002      0.0231      0.0005      0.0018
         4         0.0001     -0.0000      0.0357      0.0013      0.0040
         5        -0.0001      0.0000     -0.0016      0.0000      0.0000
         6        -0.0001     -0.0000     -0.0244      0.0006      0.0018
 Ground to excited state transition magnetic dipole moments (Au):
       state          X           Y           Z
         1         0.0005     -0.0003      0.1445
         2         0.0000     -0.0003     -0.1000
         3         0.1338     -0.1087     -0.0001
         4         0.0879     -0.2992     -0.0001
         5         0.3035     -0.2368      0.0002
         6         0.2193      0.3479      0.0006
 Ground to excited state transition velocity quadrupole moments (Au):
       state          XX          YY          ZZ          XY          XZ          YZ
         1         0.2678     -0.1503      0.0200      0.0113      0.0003      0.0002
         2         0.0779     -0.1269      0.0282     -0.0256      0.0002      0.0000
         3        -0.0007      0.0004      0.0000      0.0000      0.0944      0.0556
         4        -0.0000      0.0000     -0.0000     -0.0000      0.2238      0.0374
         5        -0.0003     -0.0000      0.0000      0.0002      0.2857      0.2940
         6         0.0001     -0.0001      0.0001      0.0003     -0.2939      0.0932
 <0|del|b> * <b|rxdel|0> + <0|del|b> * <b|delr+rdel|0>
 Rotatory Strengths (R) in cgs (10**-40 erg-esu-cm/Gauss)
       state          XX          YY          ZZ    R(velocity)    E-M Angle
         1         0.1483      0.1530      0.0698      0.1237       90.00
         2        -0.0390      0.0038     -0.0003     -0.0118       90.00
         3        -0.0893     -0.1228     -0.0554     -0.0892       90.00
         4         0.0078      0.0144      0.0092      0.0105       90.00
         5        -0.0033     -0.0811     -0.0011     -0.0285       90.00
         6        -0.0741     -0.0720     -0.0277     -0.0580       90.00
 1/2[<0|r|b>*<b|rxdel|0> + (<0|rxdel|b>*<b|r|0>)*]
 Rotatory Strengths (R) in cgs (10**-40 erg-esu-cm/Gauss)
       state          XX          YY          ZZ     R(length)
         1         0.2280      0.1226      0.0416      0.1307
         2         0.0176     -0.0360     -0.0173     -0.0119
         3        -0.1851     -0.0885     -0.0060     -0.0932
         4         0.0234      0.0127     -0.0094      0.0089
         5        -0.0843     -0.0043     -0.0014     -0.0300
         6        -0.0929     -0.0556     -0.0479     -0.0655
  1/2[<0|del|b>*<b|r|0> + (<0|r|b>*<b|del|0>)*] (Au)
       state          X           Y           Z        Dip. S.   Osc.(frdel)
         1        -0.0847     -0.0909     -0.0000      0.1756      0.1170
         2        -0.0752     -0.0048     -0.0000      0.0800      0.0533
         3        -0.0000     -0.0000     -0.0039      0.0039      0.0026
         4        -0.0000     -0.0000     -0.0057      0.0057      0.0038
         5        -0.0000     -0.0000     -0.0000      0.0000      0.0000
         6        -0.0000     -0.0000     -0.0027      0.0027      0.0018

 Excitation energies and oscillator strengths:
 
 Excited State   1:      Singlet-A      5.1466 eV  240.90 nm  f=0.1182  <S**2>=0.000
      30 -> 33        -0.13956
      30 -> 38         0.20546
      31 -> 33         0.65284
 
 Excited State   2:      Singlet-A      5.1982 eV  238.51 nm  f=0.0559  <S**2>=0.000
      30 -> 33         0.57613
      31 -> 33         0.13511
      31 -> 38        -0.35401
 
 Excited State   3:      Singlet-A      5.2758 eV  235.01 nm  f=0.0037  <S**2>=0.000
      31 -> 32         0.69043
 This state for optimization and/or second-order correction.
 Total Energy, E(TD-HF/TD-DFT) =  -363.410916646    
 Copying the excited state density for this state as the 1-particle RhoCI density.
 
 Excited State   4:      Singlet-A      5.7538 eV  215.48 nm  f=0.0035  <S**2>=0.000
      30 -> 32         0.64564
      31 -> 34         0.20078
      31 -> 35        -0.10510
 
 Excited State   5:      Singlet-A      5.9002 eV  210.14 nm  f=0.0000  <S**2>=0.000
      30 -> 32        -0.21437
      31 -> 34         0.64163
      31 -> 35        -0.11572
 
 Excited State   6:      Singlet-A      5.9572 eV  208.12 nm  f=0.0018  <S**2>=0.000
      31 -> 34         0.13459
      31 -> 35         0.65849
      31 -> 36         0.10265
 SavETr:  write IOETrn=   770 NScale= 10 NData=  16 NLR=1 NState=    6 LETran=     118.
          IDoAtm=1111111111111111
          Differentiating once with respect to electric field.
                with respect to dipole field.
          Differentiating once with respect to nuclear coordinates.
 Keep R1 ints in memory in canonical form, NReq=152083851.
          There are     1 degrees of freedom in the 1st order CPHF.  IDoFFX=0 NUNeed=     1.
 LinEq1:  Iter=  0 NonCon=     1 RMS=9.41D-03 Max=1.36D-01 NDo=     1
 AX will form     1 AO Fock derivatives at one time.
 LinEq1:  Iter=  1 NonCon=     1 RMS=3.54D-03 Max=8.90D-02 NDo=     1
 LinEq1:  Iter=  2 NonCon=     1 RMS=2.24D-03 Max=7.42D-02 NDo=     1
 LinEq1:  Iter=  3 NonCon=     1 RMS=7.98D-04 Max=1.93D-02 NDo=     1
 LinEq1:  Iter=  4 NonCon=     1 RMS=3.82D-04 Max=8.50D-03 NDo=     1
 LinEq1:  Iter=  5 NonCon=     1 RMS=1.56D-04 Max=2.33D-03 NDo=     1
 LinEq1:  Iter=  6 NonCon=     1 RMS=8.50D-05 Max=2.11D-03 NDo=     1
 LinEq1:  Iter=  7 NonCon=     1 RMS=3.27D-05 Max=7.51D-04 NDo=     1
 LinEq1:  Iter=  8 NonCon=     1 RMS=1.04D-05 Max=2.43D-04 NDo=     1
 LinEq1:  Iter=  9 NonCon=     1 RMS=6.47D-06 Max=2.00D-04 NDo=     1
 LinEq1:  Iter= 10 NonCon=     1 RMS=2.08D-06 Max=4.57D-05 NDo=     1
 LinEq1:  Iter= 11 NonCon=     1 RMS=9.71D-07 Max=1.84D-05 NDo=     1
 LinEq1:  Iter= 12 NonCon=     1 RMS=4.24D-07 Max=6.58D-06 NDo=     1
 LinEq1:  Iter= 13 NonCon=     1 RMS=1.35D-07 Max=2.80D-06 NDo=     1
 LinEq1:  Iter= 14 NonCon=     1 RMS=6.53D-08 Max=1.28D-06 NDo=     1
 LinEq1:  Iter= 15 NonCon=     1 RMS=1.56D-08 Max=2.50D-07 NDo=     1
 LinEq1:  Iter= 16 NonCon=     1 RMS=6.82D-09 Max=1.61D-07 NDo=     1
 LinEq1:  Iter= 17 NonCon=     1 RMS=2.39D-09 Max=3.48D-08 NDo=     1
 LinEq1:  Iter= 18 NonCon=     1 RMS=6.27D-10 Max=1.04D-08 NDo=     1
 LinEq1:  Iter= 19 NonCon=     1 RMS=1.62D-10 Max=1.83D-09 NDo=     1
 LinEq1:  Iter= 20 NonCon=     1 RMS=8.15D-11 Max=1.38D-09 NDo=     1
 LinEq1:  Iter= 21 NonCon=     0 RMS=1.97D-11 Max=2.29D-10 NDo=     1
 Linear equations converged to 1.000D-10 1.000D-09 after    21 iterations.
 End of Minotr F.D. properties file   721 does not exist.
 End of Minotr F.D. properties file   722 does not exist.
 End of Minotr F.D. properties file   788 does not exist.

 **********************************************************************

            Population analysis using the CI Density.

 **********************************************************************

 Orbital symmetries:
       Occupied  (A) (A) (A) (A) (A) (A) (A) (A) (A) (A) (A) (A)
                 (A) (A) (A) (A) (A) (A) (A) (A) (A) (A) (A) (A)
                 (A) (A) (A) (A) (A) (A) (A)
       Virtual   (A) (A) (A) (A) (A) (A) (A) (A) (A) (A) (A) (A)
                 (A) (A) (A) (A) (A) (A) (A) (A) (A) (A) (A) (A)
                 (A) (A) (A) (A) (A) (A) (A) (A) (A) (A) (A) (A)
                 (A) (A) (A) (A) (A) (A) (A) (A) (A) (A) (A) (A)
                 (A) (A) (A) (A) (A) (A) (A) (A) (A) (A) (A) (A)
                 (A) (A) (A) (A) (A) (A) (A) (A) (A) (A) (A) (A)
                 (A) (A) (A) (A) (A) (A) (A) (A) (A) (A) (A) (A)
                 (A) (A) (A) (A) (A) (A) (A) (A) (A) (A) (A) (A)
                 (A) (A) (A) (A) (A) (A) (A) (A) (A) (A) (A) (A)
                 (A) (A) (A) (A) (A) (A) (A) (A) (A) (A) (A) (A)
                 (A) (A) (A) (A) (A) (A) (A) (A) (A) (A) (A) (A)
                 (A) (A) (A) (A) (A) (A) (A) (A) (A) (A) (A) (A)
                 (A) (A) (A) (A) (A) (A) (A) (A) (A) (A)
 The electronic state is 1-A.
 Alpha  occ. eigenvalues --  -14.86161 -10.63268 -10.62913 -10.59762 -10.59339
 Alpha  occ. eigenvalues --  -10.59286 -10.59236 -10.58695 -10.58405  -1.11299
 Alpha  occ. eigenvalues --   -0.96102  -0.89780  -0.84603  -0.82651  -0.71856
 Alpha  occ. eigenvalues --   -0.68658  -0.67213  -0.62351  -0.56187  -0.54972
 Alpha  occ. eigenvalues --   -0.51150  -0.50384  -0.49274  -0.48511  -0.46277
 Alpha  occ. eigenvalues --   -0.42410  -0.40149  -0.39369  -0.32927  -0.26259
 Alpha  occ. eigenvalues --   -0.24571
 Alpha virt. eigenvalues --    0.01952   0.02211   0.03761   0.04235   0.05718
 Alpha virt. eigenvalues --    0.05853   0.06074   0.07630   0.08083   0.08587
 Alpha virt. eigenvalues --    0.08731   0.08872   0.10775   0.11624   0.12596
 Alpha virt. eigenvalues --    0.12704   0.13510   0.15017   0.16319   0.16417
 Alpha virt. eigenvalues --    0.17799   0.18309   0.19007   0.19601   0.19905
 Alpha virt. eigenvalues --    0.21253   0.21469   0.21473   0.22543   0.23299
 Alpha virt. eigenvalues --    0.23796   0.24704   0.24848   0.25727   0.26205
 Alpha virt. eigenvalues --    0.26625   0.27631   0.27755   0.28755   0.29276
 Alpha virt. eigenvalues --    0.30520   0.30919   0.32531   0.33654   0.35209
 Alpha virt. eigenvalues --    0.36031   0.36369   0.37674   0.39996   0.42308
 Alpha virt. eigenvalues --    0.43378   0.46105   0.50672   0.51623   0.58054
 Alpha virt. eigenvalues --    0.65594   0.70369   0.74372   0.74893   0.77426
 Alpha virt. eigenvalues --    0.79093   0.79652   0.80758   0.81338   0.82232
 Alpha virt. eigenvalues --    0.83027   0.83845   0.85629   0.87113   0.88031
 Alpha virt. eigenvalues --    0.89292   0.93302   0.97571   0.98278   0.99312
 Alpha virt. eigenvalues --    1.01610   1.02496   1.03317   1.04834   1.06385
 Alpha virt. eigenvalues --    1.08723   1.11027   1.12508   1.14851   1.16894
 Alpha virt. eigenvalues --    1.19111   1.19792   1.24883   1.25893   1.28452
 Alpha virt. eigenvalues --    1.30279   1.32786   1.33665   1.40453   1.41756
 Alpha virt. eigenvalues --    1.43697   1.45189   1.50210   1.51450   1.53918
 Alpha virt. eigenvalues --    1.56188   1.56766   1.60006   1.60642   1.62692
 Alpha virt. eigenvalues --    1.68166   1.74513   1.89236   1.95269   1.99500
 Alpha virt. eigenvalues --    2.00212   2.02541   2.04886   2.10937   2.11191
 Alpha virt. eigenvalues --    2.11970   2.18005   2.21727   2.25795   2.29061
 Alpha virt. eigenvalues --    2.29211   2.31581   2.36986   2.38079   2.38633
 Alpha virt. eigenvalues --    2.40133   2.43212   2.50444   2.53318   2.56553
 Alpha virt. eigenvalues --    2.67071   2.68748   2.76022   2.78224   2.79952
 Alpha virt. eigenvalues --    2.82787   2.86437   2.93880   2.97335   2.98943
 Alpha virt. eigenvalues --    3.08504   3.10777   3.25134   3.38099   3.58903
 Alpha virt. eigenvalues --    4.30245   4.40597   4.43564   4.47119   4.50723
 Alpha virt. eigenvalues --    4.54448   4.62741   4.66691   4.93998
          Condensed to atoms (all electrons):
               1          2          3          4          5          6
     1  C   22.710781   6.637947  -0.739716 -17.336423  -7.919590 -12.292764
     2  C    6.637947  22.435372   6.772775 -24.752064   9.072052 -22.900573
     3  C   -0.739716   6.772775  22.757085 -15.740507   5.441808 -15.394165
     4  C  -17.336423 -24.752064 -15.740507  95.939063 -25.353439  32.797094
     5  C   -7.919590   9.072052   5.441808 -25.353439  76.761063 -24.910259
     6  C  -12.292764 -22.900573 -15.394165  32.797094 -24.910259  56.283169
     7  N   -0.542581  -0.636411  -0.508226   6.352419  -4.249375   0.889109
     8  C   24.744770  16.040312   5.406290 -85.682370 -41.244391 -10.027281
     9  C   -9.368481  -6.246132  -1.866436  39.822193  16.847835   1.480827
    10  H    0.003156  -0.033633  -0.305482  -0.136718   0.790838   0.038929
    11  H    0.002303   0.000290   0.004790   0.008764   0.025329  -0.008067
    12  H    0.005172   0.000522   0.033844   0.087247  -0.181026   0.002107
    13  H    0.068772   0.180590  -0.048108   0.107446  -0.070743   0.083144
    14  H    0.002491   0.024662   0.139313   0.121790   0.019740   0.002774
    15  H    0.301278   0.086169   0.020726  -0.054243   0.044090  -0.094730
    16  H   -0.033594  -0.039689  -0.031506   0.090246   0.138144   0.282458
               7          8          9         10         11         12
     1  C   -0.542581  24.744770  -9.368481   0.003156   0.002303   0.005172
     2  C   -0.636411  16.040312  -6.246132  -0.033633   0.000290   0.000522
     3  C   -0.508226   5.406290  -1.866436  -0.305482   0.004790   0.033844
     4  C    6.352419 -85.682370  39.822193  -0.136718   0.008764   0.087247
     5  C   -4.249375 -41.244391  16.847835   0.790838   0.025329  -0.181026
     6  C    0.889109 -10.027281   1.480827   0.038929  -0.008067   0.002107
     7  N   12.999050 -20.305594  13.020018  -0.589956   0.003860  -0.062398
     8  C  -20.305594 240.424716-120.523533   1.513743   0.276855   0.414584
     9  C   13.020018-120.523533  70.968011  -1.064903   0.000172   0.033899
    10  H   -0.589956   1.513743  -1.064903   0.368338  -0.000032   0.001045
    11  H    0.003860   0.276855   0.000172  -0.000032   0.418357  -0.000388
    12  H   -0.062398   0.414584   0.033899   0.001045  -0.000388   0.369325
    13  H    0.002446  -0.020149   0.009856  -0.000015   0.000000  -0.000000
    14  H    0.000760  -0.013036   0.014494   0.000315   0.000001   0.000001
    15  H   -0.000220   0.020419  -0.004230   0.000000  -0.000001  -0.000000
    16  H    0.000797  -0.150007   0.043857  -0.000001   0.001019  -0.000002
              13         14         15         16
     1  C    0.068772   0.002491   0.301278  -0.033594
     2  C    0.180590   0.024662   0.086169  -0.039689
     3  C   -0.048108   0.139313   0.020726  -0.031506
     4  C    0.107446   0.121790  -0.054243   0.090246
     5  C   -0.070743   0.019740   0.044090   0.138144
     6  C    0.083144   0.002774  -0.094730   0.282458
     7  N    0.002446   0.000760  -0.000220   0.000797
     8  C   -0.020149  -0.013036   0.020419  -0.150007
     9  C    0.009856   0.014494  -0.004230   0.043857
    10  H   -0.000015   0.000315   0.000000  -0.000001
    11  H    0.000000   0.000001  -0.000001   0.001019
    12  H   -0.000000   0.000001  -0.000000  -0.000002
    13  H    0.453096  -0.002294  -0.002907  -0.000104
    14  H   -0.002294   0.412161  -0.000101   0.000013
    15  H   -0.002907  -0.000101   0.462291  -0.002787
    16  H   -0.000104   0.000013  -0.002787   0.459463
 Mulliken charges:
               1
     1  C   -0.243521
     2  C   -0.642188
     3  C    0.057514
     4  C   -0.270499
     5  C    0.787925
     6  C   -0.231773
     7  N    0.626301
     8  C   -4.875328
     9  C    2.832552
    10  H    0.414375
    11  H    0.266748
    12  H    0.296066
    13  H    0.238971
    14  H    0.276918
    15  H    0.224246
    16  H    0.241692
 Sum of Mulliken charges =  -0.00000
 Mulliken charges with hydrogens summed into heavy atoms:
               1
     1  C   -0.019275
     2  C   -0.403217
     3  C    0.334432
     4  C   -0.270499
     5  C    0.787925
     6  C    0.009920
     7  N    1.040676
     8  C   -4.608581
     9  C    3.128619
 Electronic spatial extent (au):  <R**2>=           1039.7168
 Charge=             -0.0000 electrons
 Dipole moment (field-independent basis, Debye):
    X=             -5.9133    Y=              6.0371    Z=              0.0041  Tot=              8.4507
 Quadrupole moment (field-independent basis, Debye-Ang):
   XX=            -64.1500   YY=            -64.5232   ZZ=            -66.3939
   XY=             14.6512   XZ=              0.0073   YZ=             -0.0050
 Traceless Quadrupole moment (field-independent basis, Debye-Ang):
   XX=              0.8724   YY=              0.4991   ZZ=             -1.3715
   XY=             14.6512   XZ=              0.0073   YZ=             -0.0050
 Octapole moment (field-independent basis, Debye-Ang**2):
  XXX=           -115.0534  YYY=             72.7878  ZZZ=              0.0225  XYY=            -44.9678
  XXY=             46.5739  XXZ=              0.0207  XZZ=            -19.2126  YZZ=             17.8650
  YYZ=              0.0238  XYZ=             -0.0028
 Hexadecapole moment (field-independent basis, Debye-Ang**3):
 XXXX=          -1345.1077 YYYY=           -699.0658 ZZZZ=           -142.7161 XXXY=            190.5152
 XXXZ=              0.1039 YYYX=            126.0099 YYYZ=             -0.0435 ZZZX=              0.0391
 ZZZY=             -0.0215 XXYY=           -347.9711 XXZZ=           -253.4502 YYZZ=           -151.9909
 XXYZ=             -0.0055 YYXZ=             -0.0029 ZZXY=             34.3614
 N-N= 4.013368668897D+02 E-N=-1.641507088005D+03  KE= 3.606801231488D+02
 Calling FoFJK, ICntrl=  10005127 FMM=F ISym2X=0 I1Cent= 0 IOpClX= 0 NMat=1 NMatS=1 NMatT=0.
 ***** Axes restored to original set *****
 -------------------------------------------------------------------
 Center     Atomic                   Forces (Hartrees/Bohr)
 Number     Number              X              Y              Z
 -------------------------------------------------------------------
      1        6          -0.010838779   -0.011661114    0.000003483
      2        6          -0.014632873    0.024680570    0.000002204
      3        6           0.032277080   -0.007231933   -0.000025784
      4        6          -0.014512571    0.001765123    0.000006251
      5        6           0.007128226   -0.004970204   -0.000035154
      6        6           0.004733338    0.008275114   -0.000025403
      7        7           0.027690608    0.061080823    0.000114900
      8        6          -0.040545356    0.022813084    0.000054196
      9        6          -0.007802235   -0.074534943   -0.000114703
     10        1           0.010284770   -0.019186020   -0.000013932
     11        1           0.000123643   -0.001133947    0.000006366
     12        1          -0.001415316   -0.002212358    0.000006190
     13        1           0.003088072    0.001811583    0.000001119
     14        1           0.001515941    0.005552738    0.000007817
     15        1           0.003205161   -0.001493297    0.000004390
     16        1          -0.000299709   -0.003555217    0.000008060
 -------------------------------------------------------------------
 Cartesian Forces:  Max     0.074534943 RMS     0.017901684

 GradGradGradGradGradGradGradGradGradGradGradGradGradGradGradGradGradGrad
 Berny optimization.
 FormGI is forming the generalized inverse of G from B-inverse, IUseBI=4.
 Internal  Forces:  Max     0.056248010 RMS     0.009109029
 Search for a local minimum.
 Step number   1 out of a maximum of   94
 All quantities printed in internal units (Hartrees-Bohrs-Radians)
 Mixed Optimization -- RFO/linear search
 Second derivative matrix not updated -- first step.
 ITU=  0
     Eigenvalues ---    0.01853   0.01931   0.01986   0.02012   0.02070
     Eigenvalues ---    0.02113   0.02148   0.02153   0.02172   0.02209
     Eigenvalues ---    0.02233   0.02248   0.02338   0.16000   0.16000
     Eigenvalues ---    0.16000   0.16000   0.16000   0.16000   0.16000
     Eigenvalues ---    0.22000   0.22188   0.22662   0.24011   0.24651
     Eigenvalues ---    0.35712   0.35717   0.35783   0.35790   0.36420
     Eigenvalues ---    0.36427   0.37009   0.38432   0.42633   0.43465
     Eigenvalues ---    0.45769   0.46692   0.47162   0.47468   0.47567
     Eigenvalues ---    0.48125   0.50955
 RFO step:  Lambda=-1.45800339D-02 EMin= 1.85287394D-02
 Linear search not attempted -- first point.
 Iteration  1 RMS(Cart)=  0.02784594 RMS(Int)=  0.00012827
 Iteration  2 RMS(Cart)=  0.00016198 RMS(Int)=  0.00003126
 Iteration  3 RMS(Cart)=  0.00000002 RMS(Int)=  0.00003126
 Variable       Old X    -DE/DX   Delta X   Delta X   Delta X     New X
                                 (Linear)    (Quad)   (Total)
    R1        2.65547  -0.01333   0.00000  -0.02770  -0.02772   2.62776
    R2        2.61291   0.00209   0.00000   0.00521   0.00520   2.61812
    R3        2.04421  -0.00353   0.00000  -0.00948  -0.00948   2.03474
    R4        2.61557   0.02089   0.00000   0.04197   0.04196   2.65753
    R5        2.04411  -0.00358   0.00000  -0.00961  -0.00961   2.03450
    R6        2.63373  -0.02067   0.00000  -0.04402  -0.04401   2.58973
    R7        2.04534  -0.00553   0.00000  -0.01488  -0.01488   2.03046
    R8        2.68058  -0.00806   0.00000  -0.01923  -0.01916   2.66142
    R9        2.60126   0.00814   0.00000   0.01296   0.01305   2.61431
   R10        2.64771   0.00082   0.00000   0.00173   0.00174   2.64945
   R11        2.70839  -0.02014   0.00000  -0.04423  -0.04429   2.66410
   R12        2.04526  -0.00355   0.00000  -0.00954  -0.00954   2.03573
   R13        2.60573  -0.05625   0.00000  -0.11285  -0.11284   2.49288
   R14        1.89542   0.02144   0.00000   0.04410   0.04410   1.93953
   R15        2.57870   0.03685   0.00000   0.07042   0.07034   2.64904
   R16        2.03419  -0.00102   0.00000  -0.00270  -0.00270   2.03149
   R17        2.03430  -0.00117   0.00000  -0.00310  -0.00310   2.03120
    A1        2.11420  -0.00555   0.00000  -0.01892  -0.01894   2.09527
    A2        2.07986   0.00298   0.00000   0.01063   0.01064   2.09050
    A3        2.08912   0.00257   0.00000   0.00828   0.00829   2.09742
    A4        2.11523   0.00356   0.00000   0.01771   0.01769   2.13292
    A5        2.08365  -0.00179   0.00000  -0.00888  -0.00887   2.07478
    A6        2.08430  -0.00178   0.00000  -0.00882  -0.00882   2.07548
    A7        2.05144  -0.00052   0.00000  -0.00415  -0.00414   2.04730
    A8        2.11267   0.00189   0.00000   0.01141   0.01140   2.12407
    A9        2.11908  -0.00137   0.00000  -0.00725  -0.00726   2.11182
   A10        2.13389  -0.00321   0.00000  -0.01301  -0.01304   2.12085
   A11        2.27895  -0.00286   0.00000  -0.00616  -0.00624   2.27271
   A12        1.87035   0.00607   0.00000   0.01917   0.01928   1.88963
   A13        2.07274   0.00859   0.00000   0.02808   0.02811   2.10086
   A14        1.86517  -0.00803   0.00000  -0.02422  -0.02424   1.84093
   A15        2.34527  -0.00056   0.00000  -0.00385  -0.00387   2.34140
   A16        2.07887  -0.00287   0.00000  -0.00970  -0.00969   2.06918
   A17        2.10306   0.00103   0.00000   0.00252   0.00252   2.10558
   A18        2.10125   0.00184   0.00000   0.00718   0.00717   2.10842
   A19        1.90743   0.00342   0.00000   0.00399   0.00408   1.91150
   A20        2.19023   0.00184   0.00000   0.01835   0.01831   2.20854
   A21        2.18553  -0.00526   0.00000  -0.02235  -0.02239   2.16314
   A22        1.86968  -0.00042   0.00000   0.00697   0.00685   1.87654
   A23        2.21717   0.00072   0.00000  -0.00052  -0.00046   2.21670
   A24        2.19633  -0.00031   0.00000  -0.00645  -0.00639   2.18994
   A25        1.91215  -0.00105   0.00000  -0.00591  -0.00597   1.90617
   A26        2.10250  -0.00187   0.00000  -0.01073  -0.01070   2.09180
   A27        2.26854   0.00291   0.00000   0.01665   0.01667   2.28521
    D1       -0.00001   0.00000   0.00000   0.00005   0.00005   0.00003
    D2       -3.14156  -0.00000   0.00000  -0.00001  -0.00001  -3.14157
    D3        3.14152   0.00000   0.00000   0.00010   0.00010  -3.14156
    D4       -0.00002   0.00000   0.00000   0.00004   0.00004   0.00002
    D5       -0.00003  -0.00000   0.00000  -0.00010  -0.00010  -0.00013
    D6        3.14153   0.00000   0.00000   0.00012   0.00012  -3.14153
    D7       -3.14157  -0.00000   0.00000  -0.00015  -0.00015   3.14147
    D8       -0.00001   0.00000   0.00000   0.00007   0.00007   0.00007
    D9        0.00003   0.00000   0.00000   0.00007   0.00008   0.00011
   D10       -3.14154  -0.00001   0.00000  -0.00011  -0.00011   3.14154
   D11        3.14158   0.00001   0.00000   0.00013   0.00013  -3.14147
   D12        0.00001  -0.00000   0.00000  -0.00005  -0.00005  -0.00004
   D13       -0.00001  -0.00001   0.00000  -0.00015  -0.00014  -0.00015
   D14       -3.14144  -0.00000   0.00000  -0.00004  -0.00003  -3.14147
   D15        3.14156   0.00000   0.00000   0.00004   0.00004  -3.14158
   D16        0.00013   0.00000   0.00000   0.00015   0.00015   0.00029
   D17       -0.00004   0.00001   0.00000   0.00010   0.00009   0.00006
   D18       -3.14151   0.00000   0.00000  -0.00005  -0.00005  -3.14157
   D19        3.14143   0.00000   0.00000   0.00001   0.00000   3.14143
   D20       -0.00005  -0.00000   0.00000  -0.00013  -0.00014  -0.00019
   D21       -3.14124  -0.00001   0.00000  -0.00057  -0.00058   3.14136
   D22       -0.00113   0.00001   0.00000   0.00033   0.00033  -0.00081
   D23        0.00049  -0.00001   0.00000  -0.00047  -0.00048   0.00001
   D24        3.14060   0.00002   0.00000   0.00043   0.00043   3.14103
   D25        0.00005  -0.00000   0.00000   0.00003   0.00003   0.00009
   D26       -3.14151  -0.00001   0.00000  -0.00019  -0.00019   3.14149
   D27        3.14150   0.00001   0.00000   0.00022   0.00022  -3.14147
   D28       -0.00007  -0.00000   0.00000   0.00000   0.00000  -0.00006
   D29       -0.00041   0.00003   0.00000   0.00072   0.00071   0.00030
   D30        3.14139   0.00001   0.00000   0.00014   0.00013   3.14152
   D31        3.14132   0.00002   0.00000   0.00054   0.00053  -3.14133
   D32       -0.00006   0.00000   0.00000  -0.00003  -0.00004  -0.00011
   D33       -0.00077   0.00004   0.00000   0.00097   0.00095   0.00018
   D34        3.14133   0.00001   0.00000   0.00031   0.00030  -3.14156
   D35       -3.14089   0.00000   0.00000   0.00003   0.00003  -3.14086
   D36        0.00121  -0.00002   0.00000  -0.00063  -0.00063   0.00058
   D37        0.00072  -0.00003   0.00000  -0.00101  -0.00102  -0.00030
   D38       -3.14144  -0.00001   0.00000  -0.00028  -0.00028   3.14146
   D39       -3.14107  -0.00001   0.00000  -0.00045  -0.00046  -3.14153
   D40       -0.00005   0.00001   0.00000   0.00028   0.00028   0.00023
         Item               Value     Threshold  Converged?
 Maximum Force            0.056248     0.000450     NO 
 RMS     Force            0.009109     0.000300     NO 
 Maximum Displacement     0.107882     0.001800     NO 
 RMS     Displacement     0.027850     0.001200     NO 
 Predicted change in Energy=-7.523411D-03
 GradGradGradGradGradGradGradGradGradGradGradGradGradGradGradGradGradGrad

                          Input orientation:                          
 ---------------------------------------------------------------------
 Center     Atomic      Atomic             Coordinates (Angstroms)
 Number     Number       Type             X           Y           Z
 ---------------------------------------------------------------------
      1          6           0       -2.165948    0.698785   -0.000033
      2          6           0       -2.115383   -0.690844   -0.000001
      3          6           0       -0.899007   -1.396618    0.000009
      4          6           0        0.255832   -0.658777    0.000119
      5          6           0        0.229795    0.749344    0.000037
      6          6           0       -0.992739    1.435703   -0.000093
      7          7           0        1.577335   -1.068064    0.000025
      8          6           0        1.581262    1.150618    0.000155
      9          6           0        2.366253   -0.010787   -0.000095
     10          1           0        1.917094   -2.036550    0.000513
     11          1           0        1.957227    2.157751    0.000076
     12          1           0        3.433384   -0.139514   -0.000210
     13          1           0       -3.038606   -1.244696    0.000026
     14          1           0       -0.869446   -2.470683    0.000083
     15          1           0       -3.119344    1.199180   -0.000013
     16          1           0       -1.020805    2.512597   -0.000061
 ---------------------------------------------------------------------
                    Distance matrix (angstroms):
                    1          2          3          4          5
     1  C    0.000000
     2  C    1.390548   0.000000
     3  C    2.448643   1.406303   0.000000
     4  C    2.776327   2.371432   1.370424   0.000000
     5  C    2.396276   2.752090   2.424736   1.408361   0.000000
     6  C    1.385448   2.404689   2.833871   2.438396   1.402026
     7  N    4.139314   3.711935   2.498042   1.383433   2.262484
     8  C    3.774352   4.129911   3.555298   2.242916   1.409781
     9  C    4.587411   4.532940   3.547175   2.207662   2.267654
    10  H    4.914599   4.251094   2.887895   2.158252   3.257021
    11  H    4.373689   4.969975   4.559782   3.290528   2.228819
    12  H    5.661736   5.576090   4.511089   3.219700   3.324613
    13  H    2.130411   1.076612   2.144986   3.346136   3.828660
    14  H    3.424389   2.172599   1.074472   2.132898   3.402485
    15  H    1.076736   2.140123   3.415854   3.852767   3.379213
    16  H    2.145056   3.385282   3.911112   3.418686   2.161727
                    6          7          8          9         10
     6  C    0.000000
     7  N    3.588053   0.000000
     8  C    2.589740   2.218686   0.000000
     9  C    3.657207   1.319177   1.401811   0.000000
    10  H    4.530305   1.026354   3.204813   2.074961   0.000000
    11  H    3.037047   3.248107   1.075019   2.206775   4.194493
    12  H    4.698071   2.075361   2.257166   1.074866   2.428556
    13  H    3.371959   4.619319   5.203913   5.543919   5.018565
    14  H    3.908331   2.820297   4.372618   4.064584   2.820155
    15  H    2.139718   5.215284   4.700856   5.617455   5.986289
    16  H    1.077261   4.423965   2.936961   4.223699   5.415348
                   11         12         13         14         15
    11  H    0.000000
    12  H    2.730652   0.000000
    13  H    6.044418   6.565674   0.000000
    14  H    5.423328   4.893740   2.491646   0.000000
    15  H    5.166278   6.688075   2.445209   4.304641   0.000000
    16  H    2.999099   5.183965   4.264830   4.985579   2.475667
                   16
    16  H    0.000000
 Stoichiometry    C8H7N
 Framework group  C1[X(C8H7N)]
 Deg. of freedom    42
 Full point group                 C1      NOp   1
 Largest Abelian subgroup         C1      NOp   1
 Largest concise Abelian subgroup C1      NOp   1
                         Standard orientation:                         
 ---------------------------------------------------------------------
 Center     Atomic      Atomic             Coordinates (Angstroms)
 Number     Number       Type             X           Y           Z
 ---------------------------------------------------------------------
      1          6           0       -2.183444    0.631483   -0.000052
      2          6           0       -2.091597   -0.756029   -0.000020
      3          6           0       -0.854780   -1.425336   -0.000010
      4          6           0        0.277617   -0.653494    0.000100
      5          6           0        0.209737    0.753231    0.000018
      6          6           0       -1.032658    1.402947   -0.000112
      7          7           0        1.610702   -1.023320    0.000006
      8          6           0        1.548679    1.194498    0.000136
      9          6           0        2.367845    0.056940   -0.000113
     10          1           0        1.979098   -1.981279    0.000494
     11          1           0        1.894542    2.212361    0.000057
     12          1           0        3.438330   -0.040011   -0.000229
     13          1           0       -2.997950   -1.337078    0.000007
     14          1           0       -0.793307   -2.498047    0.000064
     15          1           0       -3.151293    1.103318   -0.000032
     16          1           0       -1.092722    2.478532   -0.000080
 ---------------------------------------------------------------------
 Rotational constants (GHZ):           3.9544734           1.6543071           1.1663700
 Standard basis: 6-31+G(d) (6D, 7F)
 There are   185 symmetry adapted cartesian basis functions of A   symmetry.
 There are   185 symmetry adapted basis functions of A   symmetry.
   185 basis functions,   316 primitive gaussians,   185 cartesian basis functions
    31 alpha electrons       31 beta electrons
       nuclear repulsion energy       403.0807337616 Hartrees.
 NAtoms=   16 NActive=   16 NUniq=   16 SFac= 1.00D+00 NAtFMM=   60 NAOKFM=F Big=F
 Integral buffers will be    131072 words long.
 Regular integral format.
 Two-electron integral symmetry is turned on.
 One-electron integrals computed using PRISM.
 NBasis=   185 RedAO= T EigKep=  1.12D-06  NBF=   185
 NBsUse=   185 1.00D-06 EigRej= -1.00D+00 NBFU=   185
 Initial guess from the checkpoint file:  "FuncsBHandHLYP-V-3rd.chk"
 B after Tr=     0.000000   -0.000000    0.000000
         Rot=    0.999894    0.000011    0.000012   -0.014579 Ang=   1.67 deg.
 ExpMin= 4.38D-02 ExpMax= 4.17D+03 ExpMxC= 6.27D+02 IAcc=3 IRadAn=         5 AccDes= 0.00D+00
 Harris functional with IExCor=  402 and IRadAn=       5 diagonalized for initial guess.
 HarFok:  IExCor=  402 AccDes= 0.00D+00 IRadAn=         5 IDoV= 1 UseB2=F ITyADJ=14
 ICtDFT=  3500011 ScaDFX=  1.000000  1.000000  1.000000  1.000000
 FoFCou: FMM=F IPFlag=           0 FMFlag=      100000 FMFlg1=           0
         NFxFlg=           0 DoJE=T BraDBF=F KetDBF=T FulRan=T
         wScrn=  0.000000 ICntrl=       500 IOpCl=  0 I1Cent=   200000004 NGrid=           0
         NMat0=    1 NMatS0=      1 NMatT0=    0 NMatD0=    1 NMtDS0=    0 NMtDT0=    0
 Petite list used in FoFCou.
 Keep R1 ints in memory in canonical form, NReq=152071459.
 Requested convergence on RMS density matrix=1.00D-08 within 128 cycles.
 Requested convergence on MAX density matrix=1.00D-06.
 Requested convergence on             energy=1.00D-06.
 No special actions if energy rises.
 SCF Done:  E(RBHandHLYP) =  -363.598161881     A.U. after   14 cycles
            NFock= 14  Conv=0.79D-08     -V/T= 2.0074
 DoSCS=F DFT=T ScalE2(SS,OS)=  1.000000  1.000000
 ExpMin= 4.38D-02 ExpMax= 4.17D+03 ExpMxC= 6.27D+02 IAcc=3 IRadAn=         5 AccDes= 0.00D+00
 HarFok:  IExCor=  205 AccDes= 0.00D+00 IRadAn=         5 IDoV=-2 UseB2=F ITyADJ=14
 ICtDFT= 12500011 ScaDFX=  1.000000  1.000000  1.000000  1.000000
 Range of M.O.s used for correlation:    10   185
 NBasis=   185 NAE=    31 NBE=    31 NFC=     9 NFV=     0
 NROrb=    176 NOA=    22 NOB=    22 NVA=   154 NVB=   154

 **** Warning!!: The largest alpha MO coefficient is  0.19600030D+03

 Orbital symmetries:
       Occupied  (A) (A) (A) (A) (A) (A) (A) (A) (A) (A) (A) (A)
                 (A) (A) (A) (A) (A) (A) (A) (A) (A) (A) (A) (A)
                 (A) (A) (A) (A) (A) (A) (A)
       Virtual   (A) (A) (A) (A) (A) (A) (A) (A) (A) (A) (A) (A)
                 (A) (A) (A) (A) (A) (A) (A) (A) (A) (A) (A) (A)
                 (A) (A) (A) (A) (A) (A) (A) (A) (A) (A) (A) (A)
                 (A) (A) (A) (A) (A) (A) (A) (A) (A) (A) (A) (A)
                 (A) (A) (A) (A) (A) (A) (A) (A) (A) (A) (A) (A)
                 (A) (A) (A) (A) (A) (A) (A) (A) (A) (A) (A) (A)
                 (A) (A) (A) (A) (A) (A) (A) (A) (A) (A) (A) (A)
                 (A) (A) (A) (A) (A) (A) (A) (A) (A) (A) (A) (A)
                 (A) (A) (A) (A) (A) (A) (A) (A) (A) (A) (A) (A)
                 (A) (A) (A) (A) (A) (A) (A) (A) (A) (A) (A) (A)
                 (A) (A) (A) (A) (A) (A) (A) (A) (A) (A) (A) (A)
                 (A) (A) (A) (A) (A) (A) (A) (A) (A) (A) (A) (A)
                 (A) (A) (A) (A) (A) (A) (A) (A) (A) (A)
 Generating guess from densities on rwf.
 Convergence on wavefunction:    0.000001000000000
 Iteration     1 Dimension    12 NMult     0 NNew     12
 CISAX will form    12 AO SS matrices at one time.
 New state      2 was old state      3
 New state      3 was old state      2
 New state      4 was old state      5
 New state      5 was old state      6
 New state      6 was old state      4
 Iteration     2 Dimension    24 NMult    12 NNew     12
 Iteration     3 Dimension    36 NMult    24 NNew     12
 Iteration     4 Dimension    48 NMult    36 NNew     12
 Iteration     5 Dimension    60 NMult    48 NNew     12
 Iteration     6 Dimension    72 NMult    60 NNew     12
 Iteration     7 Dimension    84 NMult    72 NNew     12
 Iteration     8 Dimension    96 NMult    84 NNew     12
 Iteration     9 Dimension   108 NMult    96 NNew     12
 Iteration    10 Dimension   120 NMult   108 NNew     12
 Iteration    11 Dimension   128 NMult   120 NNew      8
 Iteration    12 Dimension   130 NMult   128 NNew      2
 ***********************************************************************
 Excited states from <AA,BB:AA,BB> singles matrix:
 ***********************************************************************
 
 Ground to excited state transition densities written to RWF  633
 Ground to excited state transition electric dipole moments (Au):
       state          X           Y           Z        Dip. S.      Osc.
         1        -1.0355      0.6339      0.0002      1.4741      0.1749
         2        -0.0256     -0.1978      0.0000      0.0398      0.0051
         3        -0.0008      0.0004     -0.1679      0.0282      0.0034
         4         0.0001      0.0001     -0.0451      0.0020      0.0003
         5         0.0001     -0.0001      0.2012      0.0405      0.0056
         6         0.0000     -0.0000     -0.1147      0.0132      0.0019
 Ground to excited state transition velocity dipole moments (Au):
       state          X           Y           Z        Dip. S.      Osc.
         1         0.1715     -0.1224     -0.0000      0.0444      0.1663
         2         0.0040      0.0408     -0.0000      0.0017      0.0058
         3         0.0001     -0.0001      0.0214      0.0005      0.0017
         4        -0.0000     -0.0000      0.0115      0.0001      0.0004
         5        -0.0000      0.0000     -0.0390      0.0015      0.0049
         6        -0.0000      0.0000      0.0281      0.0008      0.0024
 Ground to excited state transition magnetic dipole moments (Au):
       state          X           Y           Z
         1        -0.0001      0.0002      0.1466
         2        -0.0001     -0.0001      0.0969
         3         0.1649     -0.1191      0.0002
         4         0.2841     -0.3135      0.0001
         5         0.1657      0.3395     -0.0000
         6        -0.0262     -0.1090     -0.0001
 Ground to excited state transition velocity quadrupole moments (Au):
       state          XX          YY          ZZ          XY          XZ          YZ
         1         0.2467     -0.1797      0.0302      0.0413     -0.0001     -0.0000
         2        -0.0488     -0.0488      0.0207      0.0328      0.0000      0.0000
         3         0.0002     -0.0001      0.0001      0.0001      0.0918      0.0668
         4         0.0001     -0.0000     -0.0000      0.0000      0.3323      0.2518
         5         0.0000      0.0001     -0.0000      0.0000     -0.2806      0.0467
         6         0.0001     -0.0000     -0.0001     -0.0001      0.0437     -0.0755
 <0|del|b> * <b|rxdel|0> + <0|del|b> * <b|delr+rdel|0>
 Rotatory Strengths (R) in cgs (10**-40 erg-esu-cm/Gauss)
       state          XX          YY          ZZ    R(velocity)    E-M Angle
         1        -0.0997     -0.0565     -0.0545     -0.0702       90.00
         2        -0.0073     -0.0007     -0.0018     -0.0033       90.00
         3         0.0440      0.0601      0.0289      0.0443       90.00
         4         0.0225     -0.0198     -0.0019      0.0003       90.00
         5         0.0115     -0.0073     -0.0036      0.0002       90.00
         6        -0.0094      0.0012     -0.0020     -0.0034       90.00
 1/2[<0|r|b>*<b|rxdel|0> + (<0|rxdel|b>*<b|r|0>)*]
 Rotatory Strengths (R) in cgs (10**-40 erg-esu-cm/Gauss)
       state          XX          YY          ZZ     R(length)
         1        -0.0849     -0.1078     -0.0189     -0.0705
         2        -0.0010     -0.0074     -0.0012     -0.0032
         3         0.0875      0.0335      0.0179      0.0463
         4        -0.0198      0.0174      0.0024     -0.0000
         5        -0.0149      0.0149      0.0007      0.0002
         6         0.0008     -0.0026     -0.0061     -0.0026
  1/2[<0|del|b>*<b|r|0> + (<0|r|b>*<b|del|0>)*] (Au)
       state          X           Y           Z        Dip. S.   Osc.(frdel)
         1        -0.1776     -0.0776     -0.0000      0.2552      0.1701
         2        -0.0001     -0.0081     -0.0000      0.0082      0.0054
         3        -0.0000     -0.0000     -0.0036      0.0036      0.0024
         4        -0.0000     -0.0000     -0.0005      0.0005      0.0003
         5        -0.0000     -0.0000     -0.0078      0.0078      0.0052
         6        -0.0000     -0.0000     -0.0032      0.0032      0.0021

 Excitation energies and oscillator strengths:
 
 Excited State   1:      Singlet-A      4.8427 eV  256.02 nm  f=0.1749  <S**2>=0.000
      30 -> 38         0.15142
      31 -> 33         0.68167
 
 Excited State   2:      Singlet-A      5.2435 eV  236.45 nm  f=0.0051  <S**2>=0.000
      30 -> 33         0.52592
      31 -> 38        -0.44303
 
 Excited State   3:      Singlet-A      4.8636 eV  254.92 nm  f=0.0034  <S**2>=0.000
      31 -> 32         0.69449
 This state for optimization and/or second-order correction.
 Total Energy, E(TD-HF/TD-DFT) =  -363.419429465    
 Copying the excited state density for this state as the 1-particle RhoCI density.
 
 Excited State   4:      Singlet-A      5.5844 eV  222.02 nm  f=0.0003  <S**2>=0.000
      31 -> 34         0.66760
      31 -> 35        -0.15861
 
 Excited State   5:      Singlet-A      5.6516 eV  219.38 nm  f=0.0056  <S**2>=0.000
      31 -> 34         0.15085
      31 -> 35         0.65266
      31 -> 36         0.14720
 
 Excited State   6:      Singlet-A      5.9264 eV  209.21 nm  f=0.0019  <S**2>=0.000
      30 -> 32         0.67458
 SavETr:  write IOETrn=   770 NScale= 10 NData=  16 NLR=1 NState=    6 LETran=     118.
          IDoAtm=1111111111111111
          Differentiating once with respect to electric field.
                with respect to dipole field.
          Differentiating once with respect to nuclear coordinates.
 Keep R1 ints in memory in canonical form, NReq=152083851.
          There are     1 degrees of freedom in the 1st order CPHF.  IDoFFX=0 NUNeed=     1.
 LinEq1:  Iter=  0 NonCon=     1 RMS=1.03D-02 Max=1.71D-01 NDo=     1
 AX will form     1 AO Fock derivatives at one time.
 LinEq1:  Iter=  1 NonCon=     1 RMS=4.05D-03 Max=8.71D-02 NDo=     1
 LinEq1:  Iter=  2 NonCon=     1 RMS=2.47D-03 Max=7.26D-02 NDo=     1
 LinEq1:  Iter=  3 NonCon=     1 RMS=9.31D-04 Max=2.50D-02 NDo=     1
 LinEq1:  Iter=  4 NonCon=     1 RMS=4.59D-04 Max=9.03D-03 NDo=     1
 LinEq1:  Iter=  5 NonCon=     1 RMS=1.81D-04 Max=2.49D-03 NDo=     1
 LinEq1:  Iter=  6 NonCon=     1 RMS=1.04D-04 Max=2.60D-03 NDo=     1
 LinEq1:  Iter=  7 NonCon=     1 RMS=3.06D-05 Max=4.42D-04 NDo=     1
 LinEq1:  Iter=  8 NonCon=     1 RMS=1.21D-05 Max=2.95D-04 NDo=     1
 LinEq1:  Iter=  9 NonCon=     1 RMS=6.06D-06 Max=1.35D-04 NDo=     1
 LinEq1:  Iter= 10 NonCon=     1 RMS=2.13D-06 Max=5.56D-05 NDo=     1
 LinEq1:  Iter= 11 NonCon=     1 RMS=1.29D-06 Max=2.87D-05 NDo=     1
 LinEq1:  Iter= 12 NonCon=     1 RMS=4.86D-07 Max=7.97D-06 NDo=     1
 LinEq1:  Iter= 13 NonCon=     1 RMS=1.84D-07 Max=4.66D-06 NDo=     1
 LinEq1:  Iter= 14 NonCon=     1 RMS=7.21D-08 Max=1.22D-06 NDo=     1
 LinEq1:  Iter= 15 NonCon=     1 RMS=1.92D-08 Max=2.40D-07 NDo=     1
 LinEq1:  Iter= 16 NonCon=     1 RMS=8.70D-09 Max=1.30D-07 NDo=     1
 LinEq1:  Iter= 17 NonCon=     1 RMS=2.19D-09 Max=4.13D-08 NDo=     1
 LinEq1:  Iter= 18 NonCon=     1 RMS=4.95D-10 Max=1.20D-08 NDo=     1
 LinEq1:  Iter= 19 NonCon=     1 RMS=1.51D-10 Max=2.59D-09 NDo=     1
 LinEq1:  Iter= 20 NonCon=     1 RMS=7.61D-11 Max=1.22D-09 NDo=     1
 LinEq1:  Iter= 21 NonCon=     0 RMS=2.40D-11 Max=2.79D-10 NDo=     1
 Linear equations converged to 1.000D-10 1.000D-09 after    21 iterations.
 End of Minotr F.D. properties file   721 does not exist.
 End of Minotr F.D. properties file   722 does not exist.
 End of Minotr F.D. properties file   788 does not exist.
 Calling FoFJK, ICntrl=  10005127 FMM=F ISym2X=0 I1Cent= 0 IOpClX= 0 NMat=1 NMatS=1 NMatT=0.
 ***** Axes restored to original set *****
 -------------------------------------------------------------------
 Center     Atomic                   Forces (Hartrees/Bohr)
 Number     Number              X              Y              Z
 -------------------------------------------------------------------
      1        6           0.002882906    0.001503127   -0.000009853
      2        6          -0.000053311   -0.001043473    0.000000469
      3        6           0.003089384   -0.001298095    0.000022813
      4        6          -0.013079974   -0.007821108   -0.000021172
      5        6           0.012066878    0.002159552    0.000013245
      6        6          -0.002912236    0.002016200    0.000030520
      7        7           0.006737498    0.016967863   -0.000000250
      8        6          -0.011572669    0.016127614   -0.000053599
      9        6          -0.002545336   -0.021395573    0.000036873
     10        1           0.002832209   -0.006529624   -0.000012014
     11        1           0.001172440   -0.000387220    0.000004627
     12        1           0.001814996    0.001122913    0.000005683
     13        1           0.000212966   -0.001143902   -0.000000622
     14        1          -0.001453280   -0.000227280   -0.000007463
     15        1           0.000183175    0.000086667   -0.000002888
     16        1           0.000624355   -0.000137660   -0.000006370
 -------------------------------------------------------------------
 Cartesian Forces:  Max     0.021395573 RMS     0.005898898

 GradGradGradGradGradGradGradGradGradGradGradGradGradGradGradGradGradGrad
 Berny optimization.
 Using GEDIIS/GDIIS optimizer.
 FormGI is forming the generalized inverse of G from B-inverse, IUseBI=4.
 Internal  Forces:  Max     0.012212795 RMS     0.002487088
 Search for a local minimum.
 Step number   2 out of a maximum of   94
 All quantities printed in internal units (Hartrees-Bohrs-Radians)
 Mixed Optimization -- RFO/linear search
 Update second derivatives using D2CorX and points    1    2
 DE= -8.51D-03 DEPred=-7.52D-03 R= 1.13D+00
 TightC=F SS=  1.41D+00  RLast= 1.78D-01 DXNew= 5.0454D-01 5.3533D-01
 Trust test= 1.13D+00 RLast= 1.78D-01 DXMaxT set to 5.05D-01
 ITU=  1  0
 Use linear search instead of GDIIS.
     Eigenvalues ---    0.01855   0.01932   0.01987   0.02011   0.02069
     Eigenvalues ---    0.02113   0.02148   0.02158   0.02172   0.02210
     Eigenvalues ---    0.02233   0.02248   0.02342   0.15838   0.16000
     Eigenvalues ---    0.16000   0.16000   0.16000   0.16000   0.16208
     Eigenvalues ---    0.21943   0.22187   0.22460   0.24324   0.25031
     Eigenvalues ---    0.35347   0.35719   0.35759   0.35803   0.36023
     Eigenvalues ---    0.36430   0.36574   0.37549   0.40372   0.42667
     Eigenvalues ---    0.44447   0.45982   0.46859   0.47557   0.47947
     Eigenvalues ---    0.48649   0.52302
 RFO step:  Lambda=-1.46925654D-03 EMin= 1.85494387D-02
 Quartic linear search produced a step of  0.13595.
 Iteration  1 RMS(Cart)=  0.00822974 RMS(Int)=  0.00004731
 Iteration  2 RMS(Cart)=  0.00005500 RMS(Int)=  0.00002227
 Iteration  3 RMS(Cart)=  0.00000000 RMS(Int)=  0.00002227
 Variable       Old X    -DE/DX   Delta X   Delta X   Delta X     New X
                                 (Linear)    (Quad)   (Total)
    R1        2.62776   0.00281  -0.00377   0.00811   0.00433   2.63208
    R2        2.61812  -0.00093   0.00071  -0.00258  -0.00187   2.61625
    R3        2.03474  -0.00012  -0.00129   0.00017  -0.00112   2.03362
    R4        2.65753  -0.00082   0.00570  -0.00440   0.00129   2.65882
    R5        2.03450   0.00041  -0.00131   0.00184   0.00054   2.03504
    R6        2.58973  -0.00204  -0.00598  -0.00249  -0.00847   2.58126
    R7        2.03046   0.00019  -0.00202   0.00146  -0.00056   2.02990
    R8        2.66142   0.00628  -0.00260   0.01867   0.01614   2.67756
    R9        2.61431   0.00409   0.00177   0.00789   0.00969   2.62399
   R10        2.64945   0.00064   0.00024   0.00184   0.00209   2.65154
   R11        2.66410  -0.00526  -0.00602  -0.01100  -0.01701   2.64709
   R12        2.03573  -0.00015  -0.00130   0.00007  -0.00122   2.03450
   R13        2.49288  -0.00926  -0.01534  -0.01635  -0.03174   2.46115
   R14        1.93953   0.00710   0.00600   0.01474   0.02073   1.96026
   R15        2.64904   0.01221   0.00956   0.02318   0.03269   2.68173
   R16        2.03149   0.00005  -0.00037   0.00030  -0.00006   2.03143
   R17        2.03120   0.00167  -0.00042   0.00536   0.00494   2.03614
    A1        2.09527   0.00199  -0.00257   0.01075   0.00817   2.10343
    A2        2.09050  -0.00083   0.00145  -0.00432  -0.00287   2.08763
    A3        2.09742  -0.00116   0.00113  -0.00643  -0.00530   2.09212
    A4        2.13292   0.00038   0.00241  -0.00057   0.00182   2.13474
    A5        2.07478   0.00092  -0.00121   0.00809   0.00689   2.08167
    A6        2.07548  -0.00130  -0.00120  -0.00751  -0.00870   2.06678
    A7        2.04730  -0.00207  -0.00056  -0.01030  -0.01086   2.03644
    A8        2.12407  -0.00045   0.00155  -0.00612  -0.00457   2.11950
    A9        2.11182   0.00251  -0.00099   0.01641   0.01542   2.12725
   A10        2.12085   0.00298  -0.00177   0.01587   0.01409   2.13494
   A11        2.27271   0.00155  -0.00085   0.00686   0.00596   2.27867
   A12        1.88963  -0.00452   0.00262  -0.02274  -0.02005   1.86958
   A13        2.10086  -0.00218   0.00382  -0.01156  -0.00774   2.09312
   A14        1.84093   0.00426  -0.00330   0.02305   0.01982   1.86075
   A15        2.34140  -0.00208  -0.00053  -0.01149  -0.01208   2.32932
   A16        2.06918  -0.00110  -0.00132  -0.00418  -0.00548   2.06370
   A17        2.10558   0.00118   0.00034   0.00675   0.00708   2.11266
   A18        2.10842  -0.00008   0.00098  -0.00256  -0.00160   2.10682
   A19        1.91150   0.00269   0.00055   0.01055   0.01108   1.92258
   A20        2.20854  -0.00085   0.00249  -0.00363  -0.00113   2.20741
   A21        2.16314  -0.00184  -0.00304  -0.00692  -0.00995   2.15319
   A22        1.87654  -0.00437   0.00093  -0.02014  -0.01923   1.85731
   A23        2.21670   0.00344  -0.00006   0.01862   0.01857   2.23527
   A24        2.18994   0.00093  -0.00087   0.00152   0.00066   2.19060
   A25        1.90617   0.00194  -0.00081   0.00928   0.00838   1.91456
   A26        2.09180   0.00038  -0.00146   0.00611   0.00469   2.09649
   A27        2.28521  -0.00232   0.00227  -0.01538  -0.01308   2.27214
    D1        0.00003  -0.00000   0.00001  -0.00009  -0.00009  -0.00006
    D2       -3.14157  -0.00000  -0.00000  -0.00003  -0.00003   3.14158
    D3       -3.14156  -0.00000   0.00001  -0.00012  -0.00011   3.14151
    D4        0.00002  -0.00000   0.00001  -0.00006  -0.00005  -0.00004
    D5       -0.00013   0.00001  -0.00001   0.00033   0.00032   0.00019
    D6       -3.14153  -0.00000   0.00002  -0.00023  -0.00021   3.14144
    D7        3.14147   0.00001  -0.00002   0.00036   0.00034  -3.14137
    D8        0.00007  -0.00000   0.00001  -0.00020  -0.00019  -0.00013
    D9        0.00011  -0.00000   0.00001  -0.00018  -0.00017  -0.00006
   D10        3.14154   0.00000  -0.00002   0.00016   0.00014  -3.14151
   D11       -3.14147  -0.00000   0.00002  -0.00025  -0.00023   3.14148
   D12       -0.00004   0.00000  -0.00001   0.00009   0.00008   0.00004
   D13       -0.00015   0.00000  -0.00002   0.00021   0.00019   0.00004
   D14       -3.14147  -0.00000  -0.00000  -0.00007  -0.00008  -3.14155
   D15       -3.14158  -0.00000   0.00001  -0.00012  -0.00012   3.14149
   D16        0.00029  -0.00001   0.00002  -0.00040  -0.00039  -0.00010
   D17        0.00006   0.00000   0.00001   0.00003   0.00004   0.00010
   D18       -3.14157   0.00000  -0.00001   0.00022   0.00021  -3.14135
   D19        3.14143   0.00000   0.00000   0.00025   0.00026  -3.14150
   D20       -0.00019   0.00001  -0.00002   0.00044   0.00043   0.00024
   D21        3.14136   0.00001  -0.00008   0.00068   0.00060  -3.14123
   D22       -0.00081   0.00001   0.00004   0.00018   0.00023  -0.00058
   D23        0.00001   0.00000  -0.00007   0.00042   0.00036   0.00037
   D24        3.14103   0.00000   0.00006  -0.00007  -0.00001   3.14102
   D25        0.00009  -0.00001   0.00000  -0.00030  -0.00030  -0.00021
   D26        3.14149   0.00000  -0.00003   0.00026   0.00023  -3.14146
   D27       -3.14147  -0.00001   0.00003  -0.00056  -0.00053   3.14119
   D28       -0.00006   0.00000   0.00000   0.00000   0.00000  -0.00006
   D29        0.00030  -0.00002   0.00010  -0.00110  -0.00100  -0.00070
   D30        3.14152  -0.00000   0.00002  -0.00005  -0.00002   3.14150
   D31       -3.14133  -0.00001   0.00007  -0.00087  -0.00079   3.14106
   D32       -0.00011   0.00000  -0.00001   0.00018   0.00018   0.00008
   D33        0.00018  -0.00001   0.00013  -0.00113  -0.00101  -0.00083
   D34       -3.14156  -0.00001   0.00004  -0.00039  -0.00034   3.14128
   D35       -3.14086  -0.00001   0.00000  -0.00066  -0.00066  -3.14152
   D36        0.00058  -0.00000  -0.00009   0.00009   0.00001   0.00059
   D37       -0.00030   0.00002  -0.00014   0.00141   0.00126   0.00096
   D38        3.14146   0.00001  -0.00004   0.00055   0.00051  -3.14122
   D39       -3.14153   0.00000  -0.00006   0.00037   0.00032  -3.14122
   D40        0.00023  -0.00001   0.00004  -0.00049  -0.00044  -0.00021
         Item               Value     Threshold  Converged?
 Maximum Force            0.012213     0.000450     NO 
 RMS     Force            0.002487     0.000300     NO 
 Maximum Displacement     0.025933     0.001800     NO 
 RMS     Displacement     0.008234     0.001200     NO 
 Predicted change in Energy=-8.990210D-04
 GradGradGradGradGradGradGradGradGradGradGradGradGradGradGradGradGradGrad

                          Input orientation:                          
 ---------------------------------------------------------------------
 Center     Atomic      Atomic             Coordinates (Angstroms)
 Number     Number       Type             X           Y           Z
 ---------------------------------------------------------------------
      1          6           0       -2.158227    0.699344    0.000112
      2          6           0       -2.113489   -0.692776    0.000053
      3          6           0       -0.900822   -1.406256    0.000019
      4          6           0        0.246700   -0.665317   -0.000032
      5          6           0        0.233675    0.751525   -0.000001
      6          6           0       -0.988754    1.440328    0.000205
      7          7           0        1.577440   -1.061834   -0.000124
      8          6           0        1.572245    1.164342   -0.000395
      9          6           0        2.356656   -0.018272    0.000303
     10          1           0        1.930237   -2.037323    0.000308
     11          1           0        1.956293    2.168383   -0.000571
     12          1           0        3.426934   -0.142640    0.000593
     13          1           0       -3.035488   -1.249213   -0.000008
[...]
 ! A25   A(7,9,8)              109.2344         -DE/DX =   -0.0017              !
 ! A26   A(7,9,12)             121.3183         -DE/DX =    0.0048              !
 ! A27   A(8,9,12)             129.4473         -DE/DX =   -0.0031              !
 ! D1    D(6,1,2,3)             -0.1341         -DE/DX =    0.0001              !
 ! D2    D(6,1,2,13)          -179.7906         -DE/DX =   -0.0001              !
 ! D3    D(15,1,2,3)           179.5627         -DE/DX =    0.0002              !
 ! D4    D(15,1,2,13)           -0.0938         -DE/DX =    0.0001              !
 ! D5    D(2,1,6,5)              0.4896         -DE/DX =   -0.0005              !
 ! D6    D(2,1,6,16)           179.0717         -DE/DX =    0.0004              !
 ! D7    D(15,1,6,5)          -179.2045         -DE/DX =   -0.0006              !
 ! D8    D(15,1,6,16)           -0.6224         -DE/DX =    0.0003              !
 ! D9    D(1,2,3,4)             -0.4327         -DE/DX =    0.0004              !
 ! D10   D(1,2,3,14)          -178.6804         -DE/DX =   -0.0004              !
 ! D11   D(13,2,3,4)           179.2242         -DE/DX =    0.0005              !
 ! D12   D(13,2,3,14)            0.9765         -DE/DX =   -0.0003              !
 ! D13   D(2,3,4,5)              0.6459         -DE/DX =   -0.0004              !
 ! D14   D(2,3,4,7)            179.5719         -DE/DX =    0.0                 !
 ! D15   D(14,3,4,5)           178.8825         -DE/DX =    0.0004              !
 ! D16   D(14,3,4,7)            -2.1915         -DE/DX =    0.0008              !
 ! D17   D(3,4,5,6)             -0.3034         -DE/DX =   -0.0001              !
 ! D18   D(3,4,5,8)            179.5935         -DE/DX =    0.0                 !
 ! D19   D(7,4,5,6)           -179.4495         -DE/DX =   -0.0004              !
 ! D20   D(7,4,5,8)              0.4474         -DE/DX =   -0.0004              !
 ! D21   D(3,4,7,9)           -178.4794         -DE/DX =   -0.0007              !
 ! D22   D(3,4,7,10)            -2.2275         -DE/DX =    0.0003              !
 ! D23   D(5,4,7,9)              0.5747         -DE/DX =   -0.0003              !
 ! D24   D(5,4,7,10)           176.8267         -DE/DX =    0.0007              !
 ! D25   D(4,5,6,1)             -0.2817         -DE/DX =    0.0005              !
 ! D26   D(4,5,6,16)          -178.8828         -DE/DX =   -0.0005              !
 ! D27   D(8,5,6,1)            179.8531         -DE/DX =    0.0005              !
 ! D28   D(8,5,6,16)             1.252          -DE/DX =   -0.0005              !
 ! D29   D(4,5,8,9)             -1.23           -DE/DX =    0.0007              !
 ! D30   D(4,5,8,11)          -179.9705         -DE/DX =   -0.0002              !
 ! D31   D(6,5,8,9)            178.6467         -DE/DX =    0.0008              !
 ! D32   D(6,5,8,11)            -0.0938         -DE/DX =   -0.0002              !
 ! D33   D(4,7,9,8)             -1.3655         -DE/DX =    0.0008              !
 ! D34   D(4,7,9,12)           178.624          -DE/DX =    0.0005              !
 ! D35   D(10,7,9,8)          -177.7239         -DE/DX =    0.0001              !
 ! D36   D(10,7,9,12)            2.2656         -DE/DX =   -0.0003              !
 ! D37   D(5,8,9,7)              1.6187         -DE/DX =   -0.0011              !
 ! D38   D(5,8,9,12)          -178.3696         -DE/DX =   -0.0007              !
 ! D39   D(11,8,9,7)          -179.5818         -DE/DX =   -0.0003              !
 ! D40   D(11,8,9,12)            0.4299         -DE/DX =    0.0001              !
 --------------------------------------------------------------------------------
 GradGradGradGradGradGradGradGradGradGradGradGradGradGradGradGradGradGrad

                          Input orientation:                          
 ---------------------------------------------------------------------
 Center     Atomic      Atomic             Coordinates (Angstroms)
 Number     Number       Type             X           Y           Z
 ---------------------------------------------------------------------
      1          6           0       -2.157519    0.703871    0.010991
      2          6           0       -2.110328   -0.696440    0.006874
      3          6           0       -0.902666   -1.404850   -0.000915
      4          6           0        0.249707   -0.662860   -0.014671
      5          6           0        0.237569    0.754810   -0.006436
      6          6           0       -0.996428    1.442377    0.010351
      7          7           0        1.578112   -1.066455   -0.016950
      8          6           0        1.569546    1.163156   -0.015515
      9          6           0        2.360477   -0.020907    0.002296
     10          1           0        1.925001   -2.042327    0.024753
     11          1           0        1.965314    2.162570   -0.012348
     12          1           0        3.429834   -0.134729    0.026984
     13          1           0       -3.035481   -1.247950    0.003897
     14          1           0       -0.882171   -2.478998   -0.025932
     15          1           0       -3.114658    1.196887    0.009441
     16          1           0       -1.019405    2.519291   -0.002284
 ---------------------------------------------------------------------
                    Distance matrix (angstroms):
                    1          2          3          4          5
     1  C    0.000000
     2  C    1.401112   0.000000
     3  C    2.453875   1.400125   0.000000
     4  C    2.768276   2.360371   1.370657   0.000000
     5  C    2.395693   2.760239   2.442191   1.417746   0.000000
     6  C    1.376054   2.411498   2.848792   2.446528   1.412720
     7  N    4.133978   3.707029   2.503803   1.388364   2.261454
     8  C    3.755351   4.123114   3.564646   2.253068   1.393196
     9  C    4.575770   4.521555   3.544490   2.206296   2.260211
    10  H    4.920241   4.253893   2.898748   2.170505   3.266860
    11  H    4.373340   4.978470   4.577327   3.305506   2.228660
    12  H    5.649958   5.568601   4.514924   3.223952   3.314054
    13  H    2.140204   1.077070   2.138583   3.336934   3.837187
    14  H    3.429072   2.164938   1.074635   2.140007   3.422238
    15  H    1.076653   2.143215   3.414974   3.844241   3.381288
    16  H    2.142716   3.395751   3.925877   3.425914   2.166424
                    6          7          8          9         10
     6  C    0.000000
     7  N    3.594890   0.000000
     8  C    2.581251   2.229628   0.000000
     9  C    3.661977   1.306000   1.424041   0.000000
    10  H    4.547319   1.036531   3.225382   2.067917   0.000000
    11  H    3.048132   3.252160   1.074928   2.218995   4.205253
    12  H    4.698865   2.073383   2.268696   1.075681   2.429703
    13  H    3.375742   4.617208   5.198085   5.533714   5.023729
    14  H    3.923207   2.836962   4.390480   4.069125   2.841385
    15  H    2.132408   5.210135   4.684392   5.608937   5.990902
    16  H    1.077234   4.427740   2.922661   4.228029   5.429421
                   11         12         13         14         15
    11  H    0.000000
    12  H    2.724692   0.000000
    13  H    6.053086   6.560494   0.000000
    14  H    5.445412   4.908339   2.480546   0.000000
    15  H    5.170989   6.678614   2.446125   4.300858   0.000000
    16  H    3.005977   5.180773   4.272787   5.000229   2.477696
                   16
    16  H    0.000000
 Stoichiometry    C8H7N
 Framework group  C1[X(C8H7N)]
 Deg. of freedom    42
 Full point group                 C1      NOp   1
 Largest Abelian subgroup         C1      NOp   1
 Largest concise Abelian subgroup C1      NOp   1
                         Standard orientation:                         
 ---------------------------------------------------------------------
 Center     Atomic      Atomic             Coordinates (Angstroms)
 Number     Number       Type             X           Y           Z
 ---------------------------------------------------------------------
      1          6           0       -2.174342    0.637041    0.005488
      2          6           0       -2.085850   -0.761273    0.004036
      3          6           0       -0.857798   -1.433755    0.001133
      4          6           0        0.272221   -0.658112   -0.010517
      5          6           0        0.218243    0.758595   -0.004874
      6          6           0       -1.035545    1.409481    0.006986
      7          7           0        1.611955   -1.022340   -0.008100
      8          6           0        1.537616    1.206047   -0.010710
      9          6           0        2.363074    0.045869    0.011599
     10          1           0        1.987353   -1.987479    0.036398
     11          1           0        1.903717    2.216707   -0.008161
     12          1           0        3.435243   -0.036310    0.039687
     13          1           0       -2.994317   -1.339845   -0.000711
     14          1           0       -0.805549   -2.506872   -0.021887
     15          1           0       -3.145599    1.101598    0.000190
     16          1           0       -1.090243    2.485225   -0.007659
 ---------------------------------------------------------------------
 Rotational constants (GHZ):           3.9150775           1.6610116           1.1662816

 **********************************************************************

            Population analysis using the CI Density.

 **********************************************************************

 Orbital symmetries:
       Occupied  (A) (A) (A) (A) (A) (A) (A) (A) (A) (A) (A) (A)
                 (A) (A) (A) (A) (A) (A) (A) (A) (A) (A) (A) (A)
                 (A) (A) (A) (A) (A) (A) (A)
       Virtual   (A) (A) (A) (A) (A) (A) (A) (A) (A) (A) (A) (A)
                 (A) (A) (A) (A) (A) (A) (A) (A) (A) (A) (A) (A)
                 (A) (A) (A) (A) (A) (A) (A) (A) (A) (A) (A) (A)
                 (A) (A) (A) (A) (A) (A) (A) (A) (A) (A) (A) (A)
                 (A) (A) (A) (A) (A) (A) (A) (A) (A) (A) (A) (A)
                 (A) (A) (A) (A) (A) (A) (A) (A) (A) (A) (A) (A)
                 (A) (A) (A) (A) (A) (A) (A) (A) (A) (A) (A) (A)
                 (A) (A) (A) (A) (A) (A) (A) (A) (A) (A) (A) (A)
                 (A) (A) (A) (A) (A) (A) (A) (A) (A) (A) (A) (A)
                 (A) (A) (A) (A) (A) (A) (A) (A) (A) (A) (A) (A)
                 (A) (A) (A) (A) (A) (A) (A) (A) (A) (A) (A) (A)
                 (A) (A) (A) (A) (A) (A) (A) (A) (A) (A) (A) (A)
                 (A) (A) (A) (A) (A) (A) (A) (A) (A) (A)
 The electronic state is 1-A.
 Alpha  occ. eigenvalues --  -14.87122 -10.63328 -10.62562 -10.59743 -10.59086
 Alpha  occ. eigenvalues --  -10.59014 -10.58973 -10.58660 -10.57905  -1.13006
 Alpha  occ. eigenvalues --   -0.96457  -0.89406  -0.85567  -0.81595  -0.72255
 Alpha  occ. eigenvalues --   -0.68833  -0.67235  -0.62656  -0.56295  -0.55116
 Alpha  occ. eigenvalues --   -0.51704  -0.50737  -0.50170  -0.47412  -0.45983
 Alpha  occ. eigenvalues --   -0.42318  -0.40362  -0.39755  -0.32661  -0.27213
 Alpha  occ. eigenvalues --   -0.23026
 Alpha virt. eigenvalues --    0.01527   0.02061   0.03759   0.04336   0.05732
 Alpha virt. eigenvalues --    0.05928   0.06259   0.07692   0.08070   0.08591
 Alpha virt. eigenvalues --    0.08719   0.08846   0.10850   0.11503   0.12645
 Alpha virt. eigenvalues --    0.12755   0.13464   0.15019   0.16086   0.16357
 Alpha virt. eigenvalues --    0.17647   0.18346   0.18867   0.19632   0.19994
 Alpha virt. eigenvalues --    0.20998   0.21588   0.21612   0.22590   0.23363
 Alpha virt. eigenvalues --    0.23938   0.24771   0.24861   0.25874   0.26329
 Alpha virt. eigenvalues --    0.26713   0.27596   0.27677   0.28438   0.29269
 Alpha virt. eigenvalues --    0.30518   0.30984   0.32972   0.33882   0.34710
 Alpha virt. eigenvalues --    0.36108   0.37233   0.38225   0.40525   0.42134
 Alpha virt. eigenvalues --    0.43184   0.46140   0.50334   0.52169   0.58866
 Alpha virt. eigenvalues --    0.65699   0.70318   0.74295   0.75102   0.77316
 Alpha virt. eigenvalues --    0.79593   0.79827   0.80817   0.81235   0.83014
 Alpha virt. eigenvalues --    0.83352   0.85291   0.85572   0.87287   0.88108
 Alpha virt. eigenvalues --    0.89495   0.93480   0.97050   0.98006   0.99265
 Alpha virt. eigenvalues --    1.02384   1.02952   1.03853   1.04539   1.06971
 Alpha virt. eigenvalues --    1.08951   1.10649   1.12618   1.12769   1.16422
 Alpha virt. eigenvalues --    1.19175   1.20023   1.25391   1.25811   1.28772
 Alpha virt. eigenvalues --    1.29948   1.32671   1.33308   1.40814   1.41944
 Alpha virt. eigenvalues --    1.44284   1.45177   1.49912   1.51257   1.54549
 Alpha virt. eigenvalues --    1.56403   1.57003   1.59914   1.60757   1.63840
 Alpha virt. eigenvalues --    1.67972   1.75172   1.87364   1.94766   2.00473
 Alpha virt. eigenvalues --    2.01064   2.02886   2.05838   2.10565   2.12283
 Alpha virt. eigenvalues --    2.12876   2.18013   2.22009   2.27401   2.28177
 Alpha virt. eigenvalues --    2.29921   2.31656   2.36377   2.38791   2.39827
 Alpha virt. eigenvalues --    2.42734   2.44907   2.50926   2.55218   2.58754
 Alpha virt. eigenvalues --    2.66397   2.70354   2.76725   2.77602   2.80518
 Alpha virt. eigenvalues --    2.82776   2.86611   2.94579   2.97574   2.99355
 Alpha virt. eigenvalues --    3.08710   3.11564   3.25799   3.39706   3.59939
 Alpha virt. eigenvalues --    4.31341   4.40679   4.43910   4.46093   4.50939
 Alpha virt. eigenvalues --    4.55375   4.63145   4.67068   4.94561
          Condensed to atoms (all electrons):
               1          2          3          4          5          6
     1  C   49.162601 -39.078156  81.545877 -84.870298  17.369457  -9.937949
     2  C  -39.078156  41.969295 -76.338826  78.782891 -17.443111   9.997291
     3  C   81.545877 -76.338826 339.070165-340.797824  69.906685 -28.267161
     4  C  -84.870298  78.782891-340.797824 370.976239 -81.582480  24.808696
     5  C   17.369457 -17.443111  69.906685 -81.582480  36.528648  -5.709517
     6  C   -9.937949   9.997291 -28.267161  24.808696  -5.709517  17.196933
     7  N   -0.719563   0.752142  -1.443846  -0.899908   0.542628   0.404116
     8  C  -17.177444  17.503094 -96.330608  90.708546 -32.715465   0.254253
     9  C   11.523515 -11.908303  62.274493 -53.234927  17.595553  -2.368383
    10  H   -0.084054   0.084554  -1.683112   1.567248  -0.268664   0.070341
    11  H    0.004139   0.019275  -0.093500  -0.150907   0.157994   0.146589
    12  H    0.001288   0.000857   0.021998   0.106941  -0.108074  -0.018114
    13  H    0.100193   0.207272   0.112002  -0.116394   0.032731  -0.018695
    14  H   -0.029394   0.053505   0.049468   0.216144   0.010152   0.000888
    15  H    0.110124   0.109212  -0.111593   0.112137   0.030684   0.057797
    16  H    0.177164   0.022810  -0.024970  -0.074187   0.006515   0.189493
               7          8          9         10         11         12
     1  C   -0.719563 -17.177444  11.523515  -0.084054   0.004139   0.001288
     2  C    0.752142  17.503094 -11.908303   0.084554   0.019275   0.000857
     3  C   -1.443846 -96.330608  62.274493  -1.683112  -0.093500   0.021998
     4  C   -0.899908  90.708546 -53.234927   1.567248  -0.150907   0.106941
     5  C    0.542628 -32.715465  17.595553  -0.268664   0.157994  -0.108074
     6  C    0.404116   0.254253  -2.368383   0.070341   0.146589  -0.018114
     7  N    7.813548   3.880415  -3.240766   0.188099   0.021322  -0.051402
     8  C    3.880415 111.799922 -75.491014   0.831269   0.330797   0.125083
     9  C   -3.240766 -75.491014  63.898918  -0.495876  -0.119046   0.247964
    10  H    0.188099   0.831269  -0.495876   0.335907   0.000031  -0.001484
    11  H    0.021322   0.330797  -0.119046   0.000031   0.336832  -0.000481
    12  H   -0.051402   0.125083   0.247964  -0.001484  -0.000481   0.400508
    13  H   -0.000369  -0.000307   0.002236  -0.000003  -0.000000  -0.000000
    14  H   -0.006761   0.010123   0.001071   0.001804   0.000001   0.000002
    15  H    0.000680   0.016022  -0.007065   0.000000  -0.000001  -0.000000
    16  H   -0.000053   0.016722   0.003247   0.000002   0.000637  -0.000001
              13         14         15         16
     1  C    0.100193  -0.029394   0.110124   0.177164
     2  C    0.207272   0.053505   0.109212   0.022810
     3  C    0.112002   0.049468  -0.111593  -0.024970
     4  C   -0.116394   0.216144   0.112137  -0.074187
     5  C    0.032731   0.010152   0.030684   0.006515
     6  C   -0.018695   0.000888   0.057797   0.189493
     7  N   -0.000369  -0.006761   0.000680  -0.000053
     8  C   -0.000307   0.010123   0.016022   0.016722
     9  C    0.002236   0.001071  -0.007065   0.003247
    10  H   -0.000003   0.001804   0.000000   0.000002
    11  H   -0.000000   0.000001  -0.000001   0.000637
    12  H   -0.000000   0.000002  -0.000000  -0.000001
    13  H    0.449197  -0.002684  -0.002968  -0.000094
    14  H   -0.002684   0.461066  -0.000094   0.000011
    15  H   -0.002968  -0.000094   0.430741  -0.002132
    16  H   -0.000094   0.000011  -0.002132   0.372948
 Mulliken charges:
               1
     1  C   -2.097501
     2  C    1.266199
     3  C   -1.889247
     4  C    0.448084
     5  C    1.646265
     6  C   -0.806580
     7  N   -0.240282
     8  C    2.238592
     9  C   -2.681617
    10  H    0.453937
    11  H    0.346317
    12  H    0.274914
    13  H    0.237883
    14  H    0.234696
    15  H    0.256455
    16  H    0.311886
 Sum of Mulliken charges =  -0.00000
 Mulliken charges with hydrogens summed into heavy atoms:
               1
     1  C   -1.841046
     2  C    1.504082
     3  C   -1.654551
     4  C    0.448084
     5  C    1.646265
     6  C   -0.494694
     7  N    0.213655
     8  C    2.584909
     9  C   -2.406704
 Electronic spatial extent (au):  <R**2>=           1037.0604
 Charge=             -0.0000 electrons
 Dipole moment (field-independent basis, Debye):
    X=              0.6802    Y=             -9.6864    Z=              0.1598  Tot=              9.7115
 Quadrupole moment (field-independent basis, Debye-Ang):
   XX=            -57.6636   YY=            -78.9210   ZZ=            -64.1359
   XY=             -7.8825   XZ=              0.3062   YZ=              0.3052
 Traceless Quadrupole moment (field-independent basis, Debye-Ang):
   XX=              9.2432   YY=            -12.0142   ZZ=              2.7709
   XY=             -7.8825   XZ=              0.3062   YZ=              0.3052
 Octapole moment (field-independent basis, Debye-Ang**2):
  XXX=              3.0918  YYY=           -152.3295  ZZZ=              0.6748  XYY=            -21.9409
  XXY=            -51.5913  XXZ=              0.9807  XZZ=             -1.1180  YZZ=            -19.7676
  YYZ=              0.9680  XYZ=              0.1080
 Hexadecapole moment (field-independent basis, Debye-Ang**3):
 XXXX=          -1162.6953 YYYY=          -1056.8180 ZZZZ=           -117.2592 XXXY=            -93.3942
 XXXZ=              2.6044 YYYX=            -93.9480 YYYZ=              4.8154 ZZZX=              0.4315
 ZZZY=              2.1937 XXYY=           -392.2619 XXZZ=           -229.8575 YYZZ=           -167.1535
 XXYZ=              1.4199 YYXZ=              1.3237 ZZXY=            -13.0145
 N-N= 4.027708251504D+02 E-N=-1.644245086976D+03  KE= 3.608274117741D+02


 WE LEARN WISDOM FROM FAILURE MUCH MORE THAN FROM SUCCESS.
 WE DISCOVER WHAT WILL DO BY FINDING OUT WHAT WILL NOT DO...
 AND HE WHO NEVER MADE A MISTAKE NEVER MADE A DISCOVERY
 Error termination request processed by link 9999.
 Error termination via Lnk1e in /cm/shared/apps/spack/cpu/opt/spack/linux-centos8-zen/gcc-8.3.1/gaussian-16.C.01-po5bqktfeugvmjyga3v7eigbecnokxng/g16/l9999.exe at Thu Jun 24 02:02:56 2021.
 Job cpu time:       1 days  7 hours 23 minutes 14.8 seconds.
 Elapsed time:       0 days 15 hours  5 minutes 17.8 seconds.
 File lengths (MBytes):  RWF=    238 Int=      0 D2E=      0 Chk=     11 Scr=      1
