 Entering Gaussian System, Link 0=/cm/shared/apps/spack/cpu/opt/spack/linux-centos8-zen/gcc-8.3.1/gaussian-16.C.01-po5bqktfeugvmjyga3v7eigbecnokxng/g16/g16
 Initial command:
 /cm/shared/apps/spack/cpu/opt/spack/linux-centos8-zen/gcc-8.3.1/gaussian-16.C.01-po5bqktfeugvmjyga3v7eigbecnokxng/g16/l1.exe "/scratch/scaparas/job_3406258/Gau-128163.inp" -scrdir="/scratch/scaparas/job_3406258/"
 Entering Link 1 = /cm/shared/apps/spack/cpu/opt/spack/linux-centos8-zen/gcc-8.3.1/gaussian-16.C.01-po5bqktfeugvmjyga3v7eigbecnokxng/g16/l1.exe PID=    128164.
  
 Copyright (c) 1988-2019, Gaussian, Inc.  All Rights Reserved.
  
 This is part of the Gaussian(R) 16 program.  It is based on
 the Gaussian(R) 09 system (copyright 2009, Gaussian, Inc.),
 the Gaussian(R) 03 system (copyright 2003, Gaussian, Inc.),
 the Gaussian(R) 98 system (copyright 1998, Gaussian, Inc.),
 the Gaussian(R) 94 system (copyright 1995, Gaussian, Inc.),
 the Gaussian 92(TM) system (copyright 1992, Gaussian, Inc.),
 the Gaussian 90(TM) system (copyright 1990, Gaussian, Inc.),
 the Gaussian 88(TM) system (copyright 1988, Gaussian, Inc.),
 the Gaussian 86(TM) system (copyright 1986, Carnegie Mellon
 University), and the Gaussian 82(TM) system (copyright 1983,
 Carnegie Mellon University). Gaussian is a federally registered
 trademark of Gaussian, Inc.
  
 This software contains proprietary and confidential information,
 including trade secrets, belonging to Gaussian, Inc.
  
 This software is provided under written license and may be
 used, copied, transmitted, or stored only in accord with that
 written license.
  
 The following legend is applicable only to US Government
 contracts under FAR:
  
                    RESTRICTED RIGHTS LEGEND
  
 Use, reproduction and disclosure by the US Government is
 subject to restrictions as set forth in subparagraphs (a)
 and (c) of the Commercial Computer Software - Restricted
 Rights clause in FAR 52.227-19.
  
 Gaussian, Inc.
 340 Quinnipiac St., Bldg. 40, Wallingford CT 06492
  
  
 ---------------------------------------------------------------
 Warning -- This program may not be used in any manner that
 competes with the business of Gaussian, Inc. or will provide
 assistance to any competitor of Gaussian, Inc.  The licensee
 of this program is prohibited from giving any competitor of
 Gaussian, Inc. access to this program.  By using this program,
 the user acknowledges that Gaussian, Inc. is engaged in the
 business of creating and licensing software in the field of
 computational chemistry and represents and warrants to the
 licensee that it is not a competitor of Gaussian, Inc. and that
 it will not use this program in any manner prohibited above.
 ---------------------------------------------------------------
  

 Cite this work as:
 Gaussian 16, Revision C.01,
 M. J. Frisch, G. W. Trucks, H. B. Schlegel, G. E. Scuseria, 
 M. A. Robb, J. R. Cheeseman, G. Scalmani, V. Barone, 
 G. A. Petersson, H. Nakatsuji, X. Li, M. Caricato, A. V. Marenich, 
 J. Bloino, B. G. Janesko, R. Gomperts, B. Mennucci, H. P. Hratchian, 
 J. V. Ortiz, A. F. Izmaylov, J. L. Sonnenberg, D. Williams-Young, 
 F. Ding, F. Lipparini, F. Egidi, J. Goings, B. Peng, A. Petrone, 
 T. Henderson, D. Ranasinghe, V. G. Zakrzewski, J. Gao, N. Rega, 
 G. Zheng, W. Liang, M. Hada, M. Ehara, K. Toyota, R. Fukuda, 
 J. Hasegawa, M. Ishida, T. Nakajima, Y. Honda, O. Kitao, H. Nakai, 
 T. Vreven, K. Throssell, J. A. Montgomery, Jr., J. E. Peralta, 
 F. Ogliaro, M. J. Bearpark, J. J. Heyd, E. N. Brothers, K. N. Kudin, 
 V. N. Staroverov, T. A. Keith, R. Kobayashi, J. Normand, 
 K. Raghavachari, A. P. Rendell, J. C. Burant, S. S. Iyengar, 
 J. Tomasi, M. Cossi, J. M. Millam, M. Klene, C. Adamo, R. Cammi, 
 J. W. Ochterski, R. L. Martin, K. Morokuma, O. Farkas, 
 J. B. Foresman, and D. J. Fox, Gaussian, Inc., Wallingford CT, 2019.
 
 ******************************************
 Gaussian 16:  AS64L-G16RevC.01  3-Jul-2019
                14-Jun-2021 
 ******************************************
 %nprocshared=4
 Will use up to    4 processors via shared memory.
 %chk=FuncsMPW1PW91-V-1st.chk
 %Mem=3GB
 --------------------------------------------------------------
 # td= (nstates=6, root=1) MPW1PW91/6-31+G* Opt density=current
 --------------------------------------------------------------
 1/18=20,19=15,26=3,38=1/1,3;
 2/9=110,12=2,17=6,18=5,40=1/2;
 3/5=1,6=6,7=11,11=9,25=1,30=1,71=1,74=-7/1,2,3,8;
 4//1;
 5/5=2,38=5/2;
 8/6=1,10=2,107=1,108=6/1;
 9/8=1,15=2,41=6,42=1,70=2/14;
 10/5=4,28=1/2;
 6/7=2,8=2,9=2,10=2,22=-1/1;
 7/12=6,13=5,14=1/1,2,3,16;
 1/18=20,19=15,26=3/3(2);
 2/9=110/2;
 99//99;
 2/9=110/2;
 3/5=1,6=6,7=11,11=9,25=1,30=1,71=1,74=-7/1,2,3,8;
 4/5=5,16=3,69=1/1;
 5/5=2,38=5/2;
 8/6=1,10=2,107=1,108=6/1;
 9/8=1,15=2,41=6,42=1,49=4,70=2/14;
 10/5=4,28=1/2;
 7/12=6,13=5,14=1/1,2,3,16;
 1/18=20,19=15,26=3/3(-8);
 2/9=110/2;
 6/7=2,8=2,9=2,10=2,22=-1/1;
 99/9=10/99;
 -------------------
 FuncsMPW1PW91-V-1st
 -------------------
 Symbolic Z-matrix:
 Charge =  0 Multiplicity = 1
 C                    -2.15106   0.68921   0.00009 
 C                    -2.12793  -0.71582   0.00008 
 C                    -0.9323   -1.4131   -0.00001 
 C                     0.24691  -0.6702   -0.00004 
 C                     0.24819   0.7483    0. 
 C                    -0.97947   1.42353   0.00003 
 N                     1.56177  -1.07759  -0.00029 
 C                     1.62013   1.1629   -0.00016 
 C                     2.38201   0.03081   0.00025 
 H                     1.87632  -2.03001   0.00044 
 H                     1.99217   2.17301  -0.00035 
 H                     3.45255  -0.08243   0.00041 
 H                    -3.06159  -1.26202   0.00009 
 H                    -0.91725  -2.49534  -0.00007 
 H                    -3.1042    1.20079   0.00009 
 H                    -1.00935   2.50542  -0.00002 
 

 GradGradGradGradGradGradGradGradGradGradGradGradGradGradGradGradGradGrad
 Berny optimization.
 Initialization pass.
                           ----------------------------
                           !    Initial Parameters    !
                           ! (Angstroms and Degrees)  !
 --------------------------                            --------------------------
 ! Name  Definition              Value          Derivative Info.                !
 --------------------------------------------------------------------------------
 ! R1    R(1,2)                  1.4052         estimate D2E/DX2                !
 ! R2    R(1,6)                  1.3827         estimate D2E/DX2                !
 ! R3    R(1,15)                 1.0818         estimate D2E/DX2                !
 ! R4    R(2,3)                  1.3841         estimate D2E/DX2                !
 ! R5    R(2,13)                 1.0817         estimate D2E/DX2                !
 ! R6    R(3,4)                  1.3937         estimate D2E/DX2                !
 ! R7    R(3,14)                 1.0823         estimate D2E/DX2                !
 ! R8    R(4,5)                  1.4185         estimate D2E/DX2                !
 ! R9    R(4,7)                  1.3765         estimate D2E/DX2                !
 ! R10   R(5,6)                  1.4011         estimate D2E/DX2                !
 ! R11   R(5,8)                  1.4332         estimate D2E/DX2                !
 ! R12   R(6,16)                 1.0823         estimate D2E/DX2                !
 ! R13   R(7,9)                  1.3789         estimate D2E/DX2                !
 ! R14   R(7,10)                 1.003          estimate D2E/DX2                !
 ! R15   R(8,9)                  1.3646         estimate D2E/DX2                !
 ! R16   R(8,11)                 1.0764         estimate D2E/DX2                !
 ! R17   R(9,12)                 1.0765         estimate D2E/DX2                !
 ! A1    A(2,1,6)              121.1349         estimate D2E/DX2                !
 ! A2    A(2,1,15)             119.1671         estimate D2E/DX2                !
 ! A3    A(6,1,15)             119.698          estimate D2E/DX2                !
 ! A4    A(1,2,3)              121.1938         estimate D2E/DX2                !
 ! A5    A(1,2,13)             119.3846         estimate D2E/DX2                !
 ! A6    A(3,2,13)             119.4217         estimate D2E/DX2                !
 ! A7    A(2,3,4)              117.5387         estimate D2E/DX2                !
 ! A8    A(2,3,14)             121.0469         estimate D2E/DX2                !
 ! A9    A(4,3,14)             121.4144         estimate D2E/DX2                !
 ! A10   A(3,4,5)              122.2626         estimate D2E/DX2                !
 ! A11   A(3,4,7)              130.5743         estimate D2E/DX2                !
 ! A12   A(5,4,7)              107.163          estimate D2E/DX2                !
 ! A13   A(4,5,6)              118.7594         estimate D2E/DX2                !
 ! A14   A(4,5,8)              106.8666         estimate D2E/DX2                !
 ! A15   A(6,5,8)              134.374          estimate D2E/DX2                !
 ! A16   A(1,6,5)              119.1105         estimate D2E/DX2                !
 ! A17   A(1,6,16)             120.4966         estimate D2E/DX2                !
 ! A18   A(5,6,16)             120.3928         estimate D2E/DX2                !
 ! A19   A(4,7,9)              109.2874         estimate D2E/DX2                !
 ! A20   A(4,7,10)             125.4909         estimate D2E/DX2                !
 ! A21   A(9,7,10)             125.2217         estimate D2E/DX2                !
 ! A22   A(5,8,9)              107.125          estimate D2E/DX2                !
 ! A23   A(5,8,11)             127.0344         estimate D2E/DX2                !
 ! A24   A(9,8,11)             125.8405         estimate D2E/DX2                !
 ! A25   A(7,9,8)              109.5578         estimate D2E/DX2                !
 ! A26   A(7,9,12)             120.4645         estimate D2E/DX2                !
 ! A27   A(8,9,12)             129.9776         estimate D2E/DX2                !
 ! D1    D(6,1,2,3)             -0.0008         estimate D2E/DX2                !
 ! D2    D(6,1,2,13)          -179.9981         estimate D2E/DX2                !
 ! D3    D(15,1,2,3)           179.996          estimate D2E/DX2                !
 ! D4    D(15,1,2,13)           -0.0013         estimate D2E/DX2                !
 ! D5    D(2,1,6,5)             -0.0018         estimate D2E/DX2                !
 ! D6    D(2,1,6,16)           179.9965         estimate D2E/DX2                !
 ! D7    D(15,1,6,5)          -179.9986         estimate D2E/DX2                !
 ! D8    D(15,1,6,16)           -0.0003         estimate D2E/DX2                !
 ! D9    D(1,2,3,4)              0.002          estimate D2E/DX2                !
 ! D10   D(1,2,3,14)          -179.9968         estimate D2E/DX2                !
 ! D11   D(13,2,3,4)           179.9992         estimate D2E/DX2                !
 ! D12   D(13,2,3,14)            0.0005         estimate D2E/DX2                !
 ! D13   D(2,3,4,5)             -0.0005         estimate D2E/DX2                !
 ! D14   D(2,3,4,7)           -179.9911         estimate D2E/DX2                !
 ! D15   D(14,3,4,5)           179.9982         estimate D2E/DX2                !
 ! D16   D(14,3,4,7)             0.0076         estimate D2E/DX2                !
 ! D17   D(3,4,5,6)             -0.002          estimate D2E/DX2                !
 ! D18   D(3,4,5,8)           -179.9955         estimate D2E/DX2                !
 ! D19   D(7,4,5,6)            179.9905         estimate D2E/DX2                !
 ! D20   D(7,4,5,8)             -0.003          estimate D2E/DX2                !
 ! D21   D(3,4,7,9)           -179.98           estimate D2E/DX2                !
 ! D22   D(3,4,7,10)            -0.0649         estimate D2E/DX2                !
 ! D23   D(5,4,7,9)              0.0284         estimate D2E/DX2                !
 ! D24   D(5,4,7,10)           179.9434         estimate D2E/DX2                !
 ! D25   D(4,5,6,1)              0.0031         estimate D2E/DX2                !
 ! D26   D(4,5,6,16)          -179.9951         estimate D2E/DX2                !
 ! D27   D(8,5,6,1)            179.9944         estimate D2E/DX2                !
 ! D28   D(8,5,6,16)            -0.0038         estimate D2E/DX2                !
 ! D29   D(4,5,8,9)             -0.0234         estimate D2E/DX2                !
 ! D30   D(4,5,8,11)           179.9883         estimate D2E/DX2                !
 ! D31   D(6,5,8,9)            179.9846         estimate D2E/DX2                !
 ! D32   D(6,5,8,11)            -0.0037         estimate D2E/DX2                !
 ! D33   D(4,7,9,8)             -0.0444         estimate D2E/DX2                !
 ! D34   D(4,7,9,12)           179.9847         estimate D2E/DX2                !
 ! D35   D(10,7,9,8)          -179.9597         estimate D2E/DX2                !
 ! D36   D(10,7,9,12)            0.0693         estimate D2E/DX2                !
 ! D37   D(5,8,9,7)              0.0414         estimate D2E/DX2                !
 ! D38   D(5,8,9,12)          -179.9913         estimate D2E/DX2                !
 ! D39   D(11,8,9,7)          -179.9702         estimate D2E/DX2                !
 ! D40   D(11,8,9,12)           -0.0029         estimate D2E/DX2                !
 --------------------------------------------------------------------------------
 Trust Radius=3.00D-01 FncErr=1.00D-07 GrdErr=1.00D-06 EigMax=2.50D+02 EigMin=1.00D-04
 Number of steps in this run=     94 maximum allowed number of steps=    100.
 GradGradGradGradGradGradGradGradGradGradGradGradGradGradGradGradGradGrad

                          Input orientation:                          
 ---------------------------------------------------------------------
 Center     Atomic      Atomic             Coordinates (Angstroms)
 Number     Number       Type             X           Y           Z
 ---------------------------------------------------------------------
      1          6           0       -2.151063    0.689208    0.000088
      2          6           0       -2.127927   -0.715818    0.000075
      3          6           0       -0.932297   -1.413100   -0.000011
      4          6           0        0.246911   -0.670201   -0.000042
      5          6           0        0.248193    0.748299    0.000000
      6          6           0       -0.979474    1.423526    0.000032
      7          7           0        1.561774   -1.077592   -0.000285
      8          6           0        1.620133    1.162900   -0.000157
      9          6           0        2.382013    0.030806    0.000248
     10          1           0        1.876315   -2.030011    0.000438
     11          1           0        1.992173    2.173010   -0.000348
     12          1           0        3.452549   -0.082425    0.000408
     13          1           0       -3.061594   -1.262020    0.000088
     14          1           0       -0.917252   -2.495342   -0.000073
     15          1           0       -3.104203    1.200785    0.000090
     16          1           0       -1.009348    2.505421   -0.000015
 ---------------------------------------------------------------------
                    Distance matrix (angstroms):
                    1          2          3          4          5
     1  C    0.000000
     2  C    1.405216   0.000000
     3  C    2.430039   1.384100   0.000000
     4  C    2.756496   2.375276   1.393711   0.000000
     5  C    2.399984   2.790983   2.462763   1.418501   0.000000
     6  C    1.382694   2.428114   2.837018   2.426461   1.401106
     7  N    4.111781   3.707395   2.516536   1.376529   2.249305
     8  C    3.800829   4.192557   3.626386   2.290414   1.433218
     9  C    4.580641   4.571324   3.615178   2.247236   2.251218
    10  H    4.859416   4.214387   2.875566   2.122273   3.220216
    11  H    4.400917   5.031953   4.627387   3.336134   2.251948
    12  H    5.656491   5.616307   4.582311   3.259079   3.310287
    13  H    2.153220   1.081698   2.134650   3.361020   3.872476
    14  H    3.415208   2.152310   1.082347   2.164813   3.446661
    15  H    1.081752   2.150926   3.398466   3.838040   3.382795
    16  H    2.145261   3.409927   3.919278   3.415079   2.160761
                    6          7          8          9         10
     6  C    0.000000
     7  N    3.565604   0.000000
     8  C    2.612639   2.241252   0.000000
     9  C    3.638580   1.378890   1.364587   0.000000
    10  H    4.481345   1.003015   3.203172   2.121956   0.000000
    11  H    3.064704   3.278972   1.076446   2.177387   4.204618
    12  H    4.680888   2.136677   2.215532   1.076508   2.505515
    13  H    3.398144   4.627045   5.272457   5.595021   4.997275
    14  H    3.919362   2.855798   4.452085   4.155307   2.832058
    15  H    2.136372   5.192528   4.724488   5.609583   5.936632
    16  H    1.082307   4.410062   2.952378   4.198220   5.375611
                   11         12         13         14         15
    11  H    0.000000
    12  H    2.686947   0.000000
    13  H    6.110646   6.620083   0.000000
    14  H    5.500751   4.991726   2.473719   0.000000
    15  H    5.188282   6.681139   2.463174   4.294661   0.000000
    16  H    3.019872   5.158049   4.290143   5.001611   2.467892
                   16
    16  H    0.000000
 Stoichiometry    C8H7N
 Framework group  C1[X(C8H7N)]
 Deg. of freedom    42
 Full point group                 C1      NOp   1
 Largest Abelian subgroup         C1      NOp   1
 Largest concise Abelian subgroup C1      NOp   1
                         Standard orientation:                         
 ---------------------------------------------------------------------
 Center     Atomic      Atomic             Coordinates (Angstroms)
 Number     Number       Type             X           Y           Z
 ---------------------------------------------------------------------
      1          6           0       -2.151063    0.689208    0.000088
      2          6           0       -2.127927   -0.715818    0.000075
      3          6           0       -0.932297   -1.413100   -0.000011
      4          6           0        0.246911   -0.670201   -0.000042
      5          6           0        0.248193    0.748299    0.000000
      6          6           0       -0.979474    1.423526    0.000032
      7          7           0        1.561774   -1.077592   -0.000285
      8          6           0        1.620133    1.162900   -0.000157
      9          6           0        2.382013    0.030806    0.000248
     10          1           0        1.876315   -2.030011    0.000438
     11          1           0        1.992173    2.173010   -0.000348
     12          1           0        3.452549   -0.082425    0.000408
     13          1           0       -3.061594   -1.262020    0.000088
     14          1           0       -0.917252   -2.495342   -0.000073
     15          1           0       -3.104203    1.200785    0.000090
     16          1           0       -1.009348    2.505421   -0.000015
 ---------------------------------------------------------------------
 Rotational constants (GHZ):           3.9080822           1.6429452           1.1566805
 Standard basis: 6-31+G(d) (6D, 7F)
 There are   185 symmetry adapted cartesian basis functions of A   symmetry.
 There are   185 symmetry adapted basis functions of A   symmetry.
   185 basis functions,   316 primitive gaussians,   185 cartesian basis functions
    31 alpha electrons       31 beta electrons
       nuclear repulsion energy       401.3368668897 Hartrees.
 NAtoms=   16 NActive=   16 NUniq=   16 SFac= 1.00D+00 NAtFMM=   60 NAOKFM=F Big=F
 Integral buffers will be    131072 words long.
 Regular integral format.
 Two-electron integral symmetry is turned on.
 One-electron integrals computed using PRISM.
 NBasis=   185 RedAO= T EigKep=  1.26D-06  NBF=   185
 NBsUse=   185 1.00D-06 EigRej= -1.00D+00 NBFU=   185
 ExpMin= 4.38D-02 ExpMax= 4.17D+03 ExpMxC= 6.27D+02 IAcc=3 IRadAn=         5 AccDes= 0.00D+00
 Harris functional with IExCor=  908 and IRadAn=       5 diagonalized for initial guess.
 HarFok:  IExCor=  908 AccDes= 0.00D+00 IRadAn=         5 IDoV= 1 UseB2=F ITyADJ=14
 ICtDFT=  3500011 ScaDFX=  1.000000  1.000000  1.000000  1.000000
 FoFCou: FMM=F IPFlag=           0 FMFlag=      100000 FMFlg1=           0
         NFxFlg=           0 DoJE=T BraDBF=F KetDBF=T FulRan=T
         wScrn=  0.000000 ICntrl=       500 IOpCl=  0 I1Cent=   200000004 NGrid=           0
         NMat0=    1 NMatS0=      1 NMatT0=    0 NMatD0=    1 NMtDS0=    0 NMtDT0=    0
 Petite list used in FoFCou.
 Keep R1 ints in memory in canonical form, NReq=152071459.
 Requested convergence on RMS density matrix=1.00D-08 within 128 cycles.
 Requested convergence on MAX density matrix=1.00D-06.
 Requested convergence on             energy=1.00D-06.
 No special actions if energy rises.
 SCF Done:  E(RmPW1PW91) =  -363.747106292     A.U. after   14 cycles
            NFock= 14  Conv=0.67D-08     -V/T= 2.0091
 DoSCS=F DFT=T ScalE2(SS,OS)=  1.000000  1.000000
 ExpMin= 4.38D-02 ExpMax= 4.17D+03 ExpMxC= 6.27D+02 IAcc=3 IRadAn=         5 AccDes= 0.00D+00
 HarFok:  IExCor=  205 AccDes= 0.00D+00 IRadAn=         5 IDoV=-2 UseB2=F ITyADJ=14
 ICtDFT= 12500011 ScaDFX=  1.000000  1.000000  1.000000  1.000000
 Range of M.O.s used for correlation:    10   185
 NBasis=   185 NAE=    31 NBE=    31 NFC=     9 NFV=     0
 NROrb=    176 NOA=    22 NOB=    22 NVA=   154 NVB=   154

 **** Warning!!: The largest alpha MO coefficient is  0.17904057D+03

 Orbital symmetries:
       Occupied  (A) (A) (A) (A) (A) (A) (A) (A) (A) (A) (A) (A)
                 (A) (A) (A) (A) (A) (A) (A) (A) (A) (A) (A) (A)
                 (A) (A) (A) (A) (A) (A) (A)
       Virtual   (A) (A) (A) (A) (A) (A) (A) (A) (A) (A) (A) (A)
                 (A) (A) (A) (A) (A) (A) (A) (A) (A) (A) (A) (A)
                 (A) (A) (A) (A) (A) (A) (A) (A) (A) (A) (A) (A)
                 (A) (A) (A) (A) (A) (A) (A) (A) (A) (A) (A) (A)
                 (A) (A) (A) (A) (A) (A) (A) (A) (A) (A) (A) (A)
                 (A) (A) (A) (A) (A) (A) (A) (A) (A) (A) (A) (A)
                 (A) (A) (A) (A) (A) (A) (A) (A) (A) (A) (A) (A)
                 (A) (A) (A) (A) (A) (A) (A) (A) (A) (A) (A) (A)
                 (A) (A) (A) (A) (A) (A) (A) (A) (A) (A) (A) (A)
                 (A) (A) (A) (A) (A) (A) (A) (A) (A) (A) (A) (A)
                 (A) (A) (A) (A) (A) (A) (A) (A) (A) (A) (A) (A)
                 (A) (A) (A) (A) (A) (A) (A) (A) (A) (A) (A) (A)
                 (A) (A) (A) (A) (A) (A) (A) (A) (A) (A)
    24 initial guesses have been made.
 Convergence on wavefunction:    0.000001000000000
 Iteration     1 Dimension    24 NMult     0 NNew     24
 CISAX will form    24 AO SS matrices at one time.
 New state      1 was old state      2
 New state      2 was old state      3
 New state      3 was old state      1
 New state      6 was old state      7
 Iteration     2 Dimension    36 NMult    24 NNew     12
 New state      1 was old state      3
 New state      2 was old state      1
 New state      3 was old state      2
 Iteration     3 Dimension    48 NMult    36 NNew     12
 New state      2 was old state      3
 New state      3 was old state      2
 Iteration     4 Dimension    60 NMult    48 NNew     12
 Iteration     5 Dimension    72 NMult    60 NNew     12
 Iteration     6 Dimension    84 NMult    72 NNew     12
 Iteration     7 Dimension    96 NMult    84 NNew     12
 Iteration     8 Dimension   108 NMult    96 NNew     12
 Iteration     9 Dimension   120 NMult   108 NNew     12
 Iteration    10 Dimension   124 NMult   120 NNew      4
 Iteration    11 Dimension   128 NMult   124 NNew      4
 ***********************************************************************
 Excited states from <AA,BB:AA,BB> singles matrix:
 ***********************************************************************
 
 Ground to excited state transition densities written to RWF  633
 Ground to excited state transition electric dipole moments (Au):
       state          X           Y           Z        Dip. S.      Osc.
         1        -0.5458      0.6320     -0.0002      0.6973      0.0833
         2        -0.5691     -0.0964     -0.0006      0.3332      0.0409
         3         0.0031     -0.0006     -0.1237      0.0153      0.0019
         4        -0.0003      0.0001     -0.1329      0.0177      0.0024
         5         0.0004     -0.0000      0.0062      0.0000      0.0000
         6         0.0005      0.0002      0.0982      0.0096      0.0014
 Ground to excited state transition velocity dipole moments (Au):
       state          X           Y           Z        Dip. S.      Osc.
         1         0.0891     -0.1223      0.0000      0.0229      0.0852
         2         0.0990      0.0183      0.0001      0.0101      0.0367
         3        -0.0005      0.0001      0.0144      0.0002      0.0007
         4         0.0001     -0.0000      0.0287      0.0008      0.0027
         5        -0.0001      0.0000     -0.0003      0.0000      0.0000
         6        -0.0001     -0.0000     -0.0203      0.0004      0.0013
 Ground to excited state transition magnetic dipole moments (Au):
       state          X           Y           Z
         1         0.0004     -0.0001      0.1822
         2         0.0004     -0.0004     -0.0314
         3         0.1231     -0.0628      0.0000
         4         0.0417     -0.2296      0.0000
         5         0.2918     -0.1527      0.0002
         6         0.1165      0.3333      0.0004
 Ground to excited state transition velocity quadrupole moments (Au):
       state          XX          YY          ZZ          XY          XZ          YZ
         1         0.1988     -0.1121      0.0120      0.0474      0.0001      0.0001
         2         0.0783     -0.1153      0.0256     -0.0002      0.0003      0.0002
         3        -0.0007      0.0006     -0.0000     -0.0000      0.0553      0.0527
         4        -0.0000      0.0000     -0.0000     -0.0000      0.1594     -0.0145
         5        -0.0002     -0.0000      0.0000      0.0001      0.1838      0.2515
         6         0.0001     -0.0001      0.0001      0.0002     -0.2906      0.0230
 <0|del|b> * <b|rxdel|0> + <0|del|b> * <b|delr+rdel|0>
 Rotatory Strengths (R) in cgs (10**-40 erg-esu-cm/Gauss)
       state          XX          YY          ZZ    R(velocity)    E-M Angle
         1         0.0633      0.0924      0.0331      0.0630       90.00
         2        -0.0311      0.1038      0.0431      0.0386       90.00
         3        -0.0255     -0.1763     -0.0730     -0.0916       90.00
         4         0.0175      0.0039      0.0101      0.0105       90.00
         5        -0.0032     -0.0691     -0.0049     -0.0257       90.00
         6        -0.0439     -0.0287     -0.0156     -0.0294       90.00
 1/2[<0|r|b>*<b|rxdel|0> + (<0|rxdel|b>*<b|r|0>)*]
 Rotatory Strengths (R) in cgs (10**-40 erg-esu-cm/Gauss)
       state          XX          YY          ZZ     R(length)
         1         0.1432      0.0361      0.0300      0.0697
         2         0.1649     -0.0302     -0.0128      0.0406
         3        -0.2700     -0.0247      0.0041     -0.0969
         4         0.0095      0.0190      0.0006      0.0097
         5        -0.0769     -0.0035     -0.0007     -0.0271
         6        -0.0378     -0.0390     -0.0294     -0.0354
  1/2[<0|del|b>*<b|r|0> + (<0|r|b>*<b|del|0>)*] (Au)
       state          X           Y           Z        Dip. S.   Osc.(frdel)
         1        -0.0486     -0.0773     -0.0000      0.1259      0.0840
         2        -0.0563     -0.0018     -0.0000      0.0581      0.0387
         3        -0.0000     -0.0000     -0.0018      0.0018      0.0012
         4        -0.0000     -0.0000     -0.0038      0.0038      0.0025
         5        -0.0000     -0.0000     -0.0000      0.0000      0.0000
         6        -0.0000     -0.0000     -0.0020      0.0020      0.0013

 Excitation energies and oscillator strengths:
 
 Excited State   1:      Singlet-A      4.8759 eV  254.28 nm  f=0.0833  <S**2>=0.000
      30 -> 32        -0.14813
      30 -> 35         0.15719
      31 -> 32         0.66062
 This state for optimization and/or second-order correction.
 Total Energy, E(TD-HF/TD-DFT) =  -363.567922094    
 Copying the excited state density for this state as the 1-particle RhoCI density.
 
 Excited State   2:      Singlet-A      5.0070 eV  247.62 nm  f=0.0409  <S**2>=0.000
      30 -> 32         0.56377
      31 -> 32         0.12986
      31 -> 35        -0.39462
 
 Excited State   3:      Singlet-A      5.0268 eV  246.65 nm  f=0.0019  <S**2>=0.000
      31 -> 33         0.70309
 
 Excited State   4:      Singlet-A      5.5025 eV  225.33 nm  f=0.0024  <S**2>=0.000
      30 -> 33         0.69149
      31 -> 34         0.11367
 
 Excited State   5:      Singlet-A      5.6309 eV  220.19 nm  f=0.0000  <S**2>=0.000
      30 -> 33        -0.11674
      31 -> 34         0.68981
 
 Excited State   6:      Singlet-A      5.7301 eV  216.37 nm  f=0.0014  <S**2>=0.000
      31 -> 36         0.69613
 SavETr:  write IOETrn=   770 NScale= 10 NData=  16 NLR=1 NState=    6 LETran=     118.
          IDoAtm=1111111111111111
          Differentiating once with respect to electric field.
                with respect to dipole field.
          Differentiating once with respect to nuclear coordinates.
 Keep R1 ints in memory in canonical form, NReq=152083851.
          There are     1 degrees of freedom in the 1st order CPHF.  IDoFFX=0 NUNeed=     1.
 LinEq1:  Iter=  0 NonCon=     1 RMS=1.07D-02 Max=3.00D-01 NDo=     1
 AX will form     1 AO Fock derivatives at one time.
 LinEq1:  Iter=  1 NonCon=     1 RMS=4.06D-03 Max=9.67D-02 NDo=     1
 LinEq1:  Iter=  2 NonCon=     1 RMS=3.14D-03 Max=8.86D-02 NDo=     1
 LinEq1:  Iter=  3 NonCon=     1 RMS=1.28D-03 Max=3.12D-02 NDo=     1
 LinEq1:  Iter=  4 NonCon=     1 RMS=8.23D-04 Max=3.01D-02 NDo=     1
 LinEq1:  Iter=  5 NonCon=     1 RMS=3.90D-04 Max=7.81D-03 NDo=     1
 LinEq1:  Iter=  6 NonCon=     1 RMS=2.44D-04 Max=8.07D-03 NDo=     1
 LinEq1:  Iter=  7 NonCon=     1 RMS=1.25D-04 Max=2.98D-03 NDo=     1
 LinEq1:  Iter=  8 NonCon=     1 RMS=7.28D-05 Max=1.62D-03 NDo=     1
 LinEq1:  Iter=  9 NonCon=     1 RMS=3.18D-05 Max=7.78D-04 NDo=     1
 LinEq1:  Iter= 10 NonCon=     1 RMS=2.02D-05 Max=5.90D-04 NDo=     1
 LinEq1:  Iter= 11 NonCon=     1 RMS=6.63D-06 Max=1.10D-04 NDo=     1
 LinEq1:  Iter= 12 NonCon=     1 RMS=4.08D-06 Max=6.30D-05 NDo=     1
 LinEq1:  Iter= 13 NonCon=     1 RMS=1.24D-06 Max=1.73D-05 NDo=     1
 LinEq1:  Iter= 14 NonCon=     1 RMS=6.57D-07 Max=1.98D-05 NDo=     1
 LinEq1:  Iter= 15 NonCon=     1 RMS=1.90D-07 Max=2.91D-06 NDo=     1
 LinEq1:  Iter= 16 NonCon=     1 RMS=3.29D-08 Max=3.77D-07 NDo=     1
 LinEq1:  Iter= 17 NonCon=     1 RMS=1.78D-08 Max=4.08D-07 NDo=     1
 LinEq1:  Iter= 18 NonCon=     1 RMS=7.88D-09 Max=9.51D-08 NDo=     1
 LinEq1:  Iter= 19 NonCon=     1 RMS=1.58D-09 Max=2.93D-08 NDo=     1
 LinEq1:  Iter= 20 NonCon=     1 RMS=2.80D-10 Max=3.58D-09 NDo=     1
 LinEq1:  Iter= 21 NonCon=     1 RMS=9.02D-11 Max=1.03D-09 NDo=     1
 LinEq1:  Iter= 22 NonCon=     0 RMS=2.26D-11 Max=3.42D-10 NDo=     1
 Linear equations converged to 1.000D-10 1.000D-09 after    22 iterations.
 End of Minotr F.D. properties file   721 does not exist.
 End of Minotr F.D. properties file   722 does not exist.
 End of Minotr F.D. properties file   788 does not exist.

 **********************************************************************

            Population analysis using the CI Density.

 **********************************************************************

 Orbital symmetries:
       Occupied  (A) (A) (A) (A) (A) (A) (A) (A) (A) (A) (A) (A)
                 (A) (A) (A) (A) (A) (A) (A) (A) (A) (A) (A) (A)
                 (A) (A) (A) (A) (A) (A) (A)
       Virtual   (A) (A) (A) (A) (A) (A) (A) (A) (A) (A) (A) (A)
                 (A) (A) (A) (A) (A) (A) (A) (A) (A) (A) (A) (A)
                 (A) (A) (A) (A) (A) (A) (A) (A) (A) (A) (A) (A)
                 (A) (A) (A) (A) (A) (A) (A) (A) (A) (A) (A) (A)
                 (A) (A) (A) (A) (A) (A) (A) (A) (A) (A) (A) (A)
                 (A) (A) (A) (A) (A) (A) (A) (A) (A) (A) (A) (A)
                 (A) (A) (A) (A) (A) (A) (A) (A) (A) (A) (A) (A)
                 (A) (A) (A) (A) (A) (A) (A) (A) (A) (A) (A) (A)
                 (A) (A) (A) (A) (A) (A) (A) (A) (A) (A) (A) (A)
                 (A) (A) (A) (A) (A) (A) (A) (A) (A) (A) (A) (A)
                 (A) (A) (A) (A) (A) (A) (A) (A) (A) (A) (A) (A)
                 (A) (A) (A) (A) (A) (A) (A) (A) (A) (A) (A) (A)
                 (A) (A) (A) (A) (A) (A) (A) (A) (A) (A)
 The electronic state is 1-A.
 Alpha  occ. eigenvalues --  -14.46431 -10.28479 -10.28286 -10.25244 -10.24855
 Alpha  occ. eigenvalues --  -10.24709 -10.24702 -10.24191 -10.23956  -1.01451
 Alpha  occ. eigenvalues --   -0.86870  -0.81054  -0.76192  -0.74333  -0.64741
 Alpha  occ. eigenvalues --   -0.61742  -0.60367  -0.56063  -0.50189  -0.48951
 Alpha  occ. eigenvalues --   -0.45496  -0.44637  -0.44041  -0.42795  -0.40800
 Alpha  occ. eigenvalues --   -0.37039  -0.35052  -0.34955  -0.29337  -0.23571
 Alpha  occ. eigenvalues --   -0.21874
 Alpha virt. eigenvalues --   -0.01259   0.00129   0.02066   0.02425   0.02579
 Alpha virt. eigenvalues --    0.04130   0.04207   0.05076   0.06330   0.06422
 Alpha virt. eigenvalues --    0.07023   0.07141   0.08985   0.09288   0.11118
 Alpha virt. eigenvalues --    0.11146   0.11768   0.13006   0.13898   0.14530
 Alpha virt. eigenvalues --    0.15909   0.15992   0.17152   0.17211   0.17958
 Alpha virt. eigenvalues --    0.18766   0.19349   0.19379   0.20364   0.20770
 Alpha virt. eigenvalues --    0.20828   0.21005   0.22560   0.23195   0.23882
 Alpha virt. eigenvalues --    0.24190   0.24619   0.25361   0.26548   0.26738
 Alpha virt. eigenvalues --    0.27757   0.27867   0.28662   0.30407   0.30985
 Alpha virt. eigenvalues --    0.31898   0.32457   0.34075   0.35902   0.37664
 Alpha virt. eigenvalues --    0.38797   0.40879   0.44742   0.46007   0.52567
 Alpha virt. eigenvalues --    0.59468   0.63982   0.68734   0.68774   0.71407
 Alpha virt. eigenvalues --    0.73003   0.73527   0.74461   0.75159   0.75703
 Alpha virt. eigenvalues --    0.76830   0.77284   0.79329   0.80802   0.81582
 Alpha virt. eigenvalues --    0.82935   0.86961   0.90997   0.91817   0.92981
 Alpha virt. eigenvalues --    0.95275   0.96029   0.96875   0.97479   1.00021
 Alpha virt. eigenvalues --    1.01983   1.04672   1.06309   1.08037   1.10790
 Alpha virt. eigenvalues --    1.12667   1.13053   1.18458   1.19325   1.21867
 Alpha virt. eigenvalues --    1.23839   1.24596   1.26628   1.33220   1.33274
 Alpha virt. eigenvalues --    1.35261   1.38301   1.42671   1.43197   1.46712
 Alpha virt. eigenvalues --    1.47274   1.47958   1.51071   1.51644   1.55413
 Alpha virt. eigenvalues --    1.60477   1.66527   1.80290   1.86120   1.90062
 Alpha virt. eigenvalues --    1.90762   1.93918   1.95967   2.01281   2.01549
 Alpha virt. eigenvalues --    2.02168   2.08156   2.11832   2.16029   2.19095
 Alpha virt. eigenvalues --    2.19124   2.21697   2.26653   2.27835   2.28358
 Alpha virt. eigenvalues --    2.30445   2.33354   2.39960   2.42756   2.46590
 Alpha virt. eigenvalues --    2.56847   2.57818   2.65763   2.67932   2.69013
 Alpha virt. eigenvalues --    2.72146   2.75798   2.83168   2.86881   2.88035
 Alpha virt. eigenvalues --    2.97731   3.00207   3.13624   3.26671   3.47270
 Alpha virt. eigenvalues --    4.17868   4.29000   4.31972   4.35454   4.39046
 Alpha virt. eigenvalues --    4.42599   4.50941   4.54869   4.81898
          Condensed to atoms (all electrons):
               1          2          3          4          5          6
     1  C    5.964699   0.318806   0.399419  -0.898390   0.272011  -0.475595
     2  C    0.318806   6.449633  -0.541348   0.538194  -1.076089   0.840769
     3  C    0.399419  -0.541348  14.356621  -1.986023  -4.215173  -3.521316
     4  C   -0.898390   0.538194  -1.986023  13.583390  -4.375737  -0.820950
     5  C    0.272011  -1.076089  -4.215173  -4.375737  16.104019  -0.373831
     6  C   -0.475595   0.840769  -3.521316  -0.820950  -0.373831  14.286154
     7  N   -0.031345   0.006423  -0.642385  -0.424022   1.075198   0.175718
     8  C    0.146552  -0.341222   3.544748   2.302586  -5.169872  -4.521000
     9  C   -0.098901   0.025984  -1.302631  -0.805455   1.873004   1.215998
    10  H   -0.001449  -0.009608  -0.130624  -0.049835   0.162826   0.021914
    11  H    0.003520   0.001225   0.003905   0.009166   0.011056   0.018561
    12  H    0.001389   0.000287   0.042681   0.118245  -0.137029  -0.023008
    13  H    0.040089   0.228364   0.029656   0.000741   0.019719  -0.012913
    14  H    0.005175   0.086562   0.142700   0.086167  -0.003700  -0.018129
    15  H    0.244061   0.029344   0.021159  -0.023116   0.030268  -0.004828
    16  H    0.060929   0.002328  -0.021466   0.016180   0.115550   0.139994
               7          8          9         10         11         12
     1  C   -0.031345   0.146552  -0.098901  -0.001449   0.003520   0.001389
     2  C    0.006423  -0.341222   0.025984  -0.009608   0.001225   0.000287
     3  C   -0.642385   3.544748  -1.302631  -0.130624   0.003905   0.042681
     4  C   -0.424022   2.302586  -0.805455  -0.049835   0.009166   0.118245
     5  C    1.075198  -5.169872   1.873004   0.162826   0.011056  -0.137029
     6  C    0.175718  -4.521000   1.215998   0.021914   0.018561  -0.023008
     7  N    7.211251  -0.855946   0.647000   0.264056   0.004833  -0.058191
     8  C   -0.855946  12.660827  -2.213616  -0.003809   0.257250   0.094553
     9  C    0.647000  -2.213616   6.708011  -0.021716  -0.008699   0.277151
    10  H    0.264056  -0.003809  -0.021716   0.311262  -0.000060  -0.001899
    11  H    0.004833   0.257250  -0.008699  -0.000060   0.453516  -0.000598
    12  H   -0.058191   0.094553   0.277151  -0.001899  -0.000598   0.450604
    13  H   -0.000538   0.001392   0.001102  -0.000002  -0.000000  -0.000000
    14  H   -0.010304  -0.002434   0.006586   0.002094   0.000002   0.000003
    15  H    0.000342   0.009744  -0.000095  -0.000000  -0.000002  -0.000000
    16  H   -0.001135  -0.022720   0.003443   0.000004   0.001298  -0.000001
              13         14         15         16
     1  C    0.040089   0.005175   0.244061   0.060929
     2  C    0.228364   0.086562   0.029344   0.002328
     3  C    0.029656   0.142700   0.021159  -0.021466
     4  C    0.000741   0.086167  -0.023116   0.016180
     5  C    0.019719  -0.003700   0.030268   0.115550
     6  C   -0.012913  -0.018129  -0.004828   0.139994
     7  N   -0.000538  -0.010304   0.000342  -0.001135
     8  C    0.001392  -0.002434   0.009744  -0.022720
     9  C    0.001102   0.006586  -0.000095   0.003443
    10  H   -0.000002   0.002094  -0.000000   0.000004
    11  H   -0.000000   0.000002  -0.000002   0.001298
    12  H   -0.000000   0.000003  -0.000000  -0.000001
    13  H    0.497083  -0.004079  -0.003987  -0.000146
    14  H   -0.004079   0.506390  -0.000148   0.000017
    15  H   -0.003987  -0.000148   0.497338  -0.003932
    16  H   -0.000146   0.000017  -0.003932   0.501210
 Mulliken charges:
               1
     1  C    0.049029
     2  C   -0.559653
     3  C   -0.179923
     4  C   -1.271141
     5  C    1.687780
     6  C   -0.927538
     7  N   -0.360955
     8  C    0.112968
     9  C   -0.307167
    10  H    0.456847
    11  H    0.245027
    12  H    0.235813
    13  H    0.203519
    14  H    0.203098
    15  H    0.203851
    16  H    0.208445
 Sum of Mulliken charges =  -0.00000
 Mulliken charges with hydrogens summed into heavy atoms:
               1
     1  C    0.252880
     2  C   -0.356134
     3  C    0.023175
     4  C   -1.271141
     5  C    1.687780
     6  C   -0.719093
     7  N    0.095892
     8  C    0.357995
     9  C   -0.071354
 Electronic spatial extent (au):  <R**2>=           1007.3140
 Charge=             -0.0000 electrons
 Dipole moment (field-independent basis, Debye):
    X=              3.9582    Y=             -1.1229    Z=             -0.0032  Tot=              4.1144
 Quadrupole moment (field-independent basis, Debye-Ang):
   XX=            -45.7423   YY=            -45.3880   ZZ=            -60.3540
   XY=             -2.6271   XZ=             -0.0056   YZ=              0.0033
 Traceless Quadrupole moment (field-independent basis, Debye-Ang):
   XX=              4.7524   YY=              5.1068   ZZ=             -9.8592
   XY=             -2.6271   XZ=             -0.0056   YZ=              0.0033
 Octapole moment (field-independent basis, Debye-Ang**2):
  XXX=             23.4597  YYY=             -8.7386  ZZZ=             -0.0286  XYY=             15.6455
  XXY=             -5.3871  XXZ=             -0.0187  XZZ=              4.3955  YZZ=             -0.7081
  YYZ=             -0.0223  XYZ=              0.0034
 Hexadecapole moment (field-independent basis, Debye-Ang**3):
 XXXX=           -846.5540 YYYY=           -386.9206 ZZZZ=            -86.6735 XXXY=            -19.2849
 XXXZ=             -0.0914 YYYX=            -15.5168 YYYZ=              0.0412 ZZZX=             -0.0430
 ZZZY=              0.0355 XXYY=           -191.5120 XXZZ=           -200.4123 YYZZ=           -102.3331
 XXYZ=              0.0147 YYXZ=             -0.0092 ZZXY=             -1.9610
 N-N= 4.013368668897D+02 E-N=-1.645031472559D+03  KE= 3.605895755400D+02
 Calling FoFJK, ICntrl=  10005127 FMM=F ISym2X=0 I1Cent= 0 IOpClX= 0 NMat=1 NMatS=1 NMatT=0.
 ***** Axes restored to original set *****
 -------------------------------------------------------------------
 Center     Atomic                   Forces (Hartrees/Bohr)
 Number     Number              X              Y              Z
 -------------------------------------------------------------------
      1        6          -0.024831620   -0.037713990   -0.000003594
      2        6          -0.041002945    0.041803495    0.000001144
      3        6           0.038339245   -0.032241833    0.000013101
      4        6          -0.011904255    0.017490908   -0.000021667
      5        6           0.013409892   -0.017861446   -0.000026186
      6        6           0.012399861    0.033189666    0.000004727
      7        7           0.011592698    0.029371110    0.000049570
      8        6          -0.035831073    0.019383084    0.000019265
      9        6           0.035111416   -0.050520561   -0.000030741
     10        1           0.002605107   -0.005316702    0.000001421
     11        1           0.001663294    0.002790150    0.000002841
     12        1           0.002274458   -0.000792239   -0.000004833
     13        1          -0.002358414   -0.000628003   -0.000000249
     14        1           0.000633510   -0.002473697   -0.000006826
     15        1          -0.002317643    0.000997251    0.000000661
     16        1           0.000216470    0.002522805    0.000001367
 -------------------------------------------------------------------
 Cartesian Forces:  Max     0.050520561 RMS     0.018651072

 GradGradGradGradGradGradGradGradGradGradGradGradGradGradGradGradGradGrad
 Berny optimization.
 FormGI is forming the generalized inverse of G from B-inverse, IUseBI=4.
 Internal  Forces:  Max     0.049435533 RMS     0.009601342
 Search for a local minimum.
 Step number   1 out of a maximum of   94
 All quantities printed in internal units (Hartrees-Bohrs-Radians)
 Mixed Optimization -- RFO/linear search
 Second derivative matrix not updated -- first step.
 ITU=  0
     Eigenvalues ---    0.01853   0.01931   0.01986   0.02012   0.02070
     Eigenvalues ---    0.02113   0.02148   0.02153   0.02172   0.02209
     Eigenvalues ---    0.02233   0.02248   0.02338   0.16000   0.16000
     Eigenvalues ---    0.16000   0.16000   0.16000   0.16000   0.16000
     Eigenvalues ---    0.22000   0.22188   0.22662   0.24011   0.24651
     Eigenvalues ---    0.35712   0.35717   0.35783   0.35790   0.36420
     Eigenvalues ---    0.36427   0.37009   0.38432   0.42633   0.43465
     Eigenvalues ---    0.45769   0.46692   0.47162   0.47468   0.47567
     Eigenvalues ---    0.48125   0.50955
 RFO step:  Lambda=-1.70962989D-02 EMin= 1.85287394D-02
 Linear search not attempted -- first point.
 Iteration  1 RMS(Cart)=  0.02925583 RMS(Int)=  0.00032067
 Iteration  2 RMS(Cart)=  0.00039581 RMS(Int)=  0.00013912
 Iteration  3 RMS(Cart)=  0.00000008 RMS(Int)=  0.00013912
 Variable       Old X    -DE/DX   Delta X   Delta X   Delta X     New X
                                 (Linear)    (Quad)   (Total)
    R1        2.65547  -0.01525   0.00000  -0.03071  -0.03068   2.62480
    R2        2.61291   0.03549   0.00000   0.07161   0.07162   2.68454
    R3        2.04421   0.00251   0.00000   0.00670   0.00670   2.05092
    R4        2.61557   0.04944   0.00000   0.09966   0.09967   2.71524
    R5        2.04411   0.00235   0.00000   0.00627   0.00627   2.05039
    R6        2.63373   0.00732   0.00000   0.01399   0.01397   2.64770
    R7        2.04534   0.00248   0.00000   0.00663   0.00663   2.05197
    R8        2.68058  -0.00762   0.00000  -0.02299  -0.02323   2.65734
    R9        2.60126   0.01637   0.00000   0.02903   0.02928   2.63054
   R10        2.64771   0.02070   0.00000   0.04296   0.04295   2.69066
   R11        2.70839  -0.00055   0.00000  -0.00016  -0.00053   2.70786
   R12        2.04526   0.00252   0.00000   0.00672   0.00672   2.05199
   R13        2.60573  -0.01868   0.00000  -0.03524  -0.03487   2.57086
   R14        1.89542   0.00587   0.00000   0.01200   0.01200   1.90742
   R15        2.57870   0.04112   0.00000   0.08005   0.08003   2.65873
   R16        2.03419   0.00319   0.00000   0.00837   0.00837   2.04256
   R17        2.03430   0.00235   0.00000   0.00615   0.00615   2.04046
    A1        2.11420   0.00067   0.00000   0.00810   0.00809   2.12230
    A2        2.07986  -0.00056   0.00000  -0.00530  -0.00530   2.07456
    A3        2.08912  -0.00011   0.00000  -0.00280  -0.00279   2.08633
    A4        2.11523  -0.00142   0.00000  -0.00107  -0.00108   2.11415
    A5        2.08365   0.00005   0.00000  -0.00321  -0.00320   2.08045
    A6        2.08430   0.00137   0.00000   0.00428   0.00428   2.08859
    A7        2.05144  -0.00356   0.00000  -0.01641  -0.01646   2.03497
    A8        2.11267   0.00239   0.00000   0.01167   0.01169   2.12436
    A9        2.11908   0.00117   0.00000   0.00475   0.00477   2.12385
   A10        2.13389   0.00446   0.00000   0.01633   0.01624   2.15012
   A11        2.27895  -0.00596   0.00000  -0.01287  -0.01282   2.26613
   A12        1.87035   0.00150   0.00000  -0.00346  -0.00342   1.86693
   A13        2.07274   0.00457   0.00000   0.01362   0.01382   2.08656
   A14        1.86517  -0.00309   0.00000  -0.01409  -0.01463   1.85055
   A15        2.34527  -0.00148   0.00000   0.00047   0.00080   2.34607
   A16        2.07887  -0.00472   0.00000  -0.02056  -0.02061   2.05826
   A17        2.10306   0.00265   0.00000   0.01193   0.01196   2.11502
   A18        2.10125   0.00207   0.00000   0.00863   0.00865   2.10990
   A19        1.90743   0.01227   0.00000   0.04695   0.04748   1.95490
   A20        2.19023  -0.00537   0.00000  -0.01916  -0.01942   2.17081
   A21        2.18553  -0.00690   0.00000  -0.02779  -0.02805   2.15748
   A22        1.86968   0.00653   0.00000   0.03511   0.03474   1.90443
   A23        2.21717  -0.00266   0.00000  -0.01413  -0.01395   2.20322
   A24        2.19633  -0.00387   0.00000  -0.02098  -0.02080   2.17554
   A25        1.91215  -0.01721   0.00000  -0.06450  -0.06418   1.84797
   A26        2.10250   0.00805   0.00000   0.02910   0.02894   2.13144
   A27        2.26854   0.00917   0.00000   0.03540   0.03524   2.30378
    D1       -0.00001   0.00000   0.00000   0.00001   0.00001  -0.00000
    D2       -3.14156   0.00000   0.00000  -0.00001  -0.00001  -3.14157
    D3        3.14152   0.00000   0.00000   0.00005   0.00005   3.14157
    D4       -0.00002   0.00000   0.00000   0.00003   0.00003   0.00001
    D5       -0.00003   0.00000   0.00000   0.00008   0.00008   0.00005
    D6        3.14153   0.00000   0.00000   0.00004   0.00004   3.14157
    D7       -3.14157   0.00000   0.00000   0.00004   0.00004  -3.14153
    D8       -0.00001  -0.00000   0.00000   0.00000   0.00001  -0.00000
    D9        0.00003  -0.00000   0.00000  -0.00008  -0.00008  -0.00005
   D10       -3.14154   0.00000   0.00000   0.00004   0.00004  -3.14150
   D11        3.14158  -0.00000   0.00000  -0.00006  -0.00006   3.14152
   D12        0.00001   0.00000   0.00000   0.00006   0.00006   0.00007
   D13       -0.00001   0.00000   0.00000   0.00006   0.00006   0.00005
   D14       -3.14144  -0.00000   0.00000  -0.00003  -0.00003  -3.14146
   D15        3.14156  -0.00000   0.00000  -0.00006  -0.00006   3.14150
   D16        0.00013  -0.00001   0.00000  -0.00014  -0.00014  -0.00001
   D17       -0.00004   0.00000   0.00000   0.00003   0.00003  -0.00001
   D18       -3.14151   0.00000   0.00000  -0.00005  -0.00005  -3.14157
   D19        3.14143   0.00000   0.00000   0.00010   0.00010   3.14152
   D20       -0.00005   0.00000   0.00000   0.00002   0.00001  -0.00004
   D21       -3.14124  -0.00000   0.00000  -0.00022  -0.00023  -3.14148
   D22       -0.00113   0.00001   0.00000   0.00017   0.00017  -0.00097
   D23        0.00049  -0.00000   0.00000  -0.00030  -0.00031   0.00018
   D24        3.14060   0.00001   0.00000   0.00010   0.00009   3.14070
   D25        0.00005  -0.00000   0.00000  -0.00010  -0.00010  -0.00004
   D26       -3.14151  -0.00000   0.00000  -0.00006  -0.00006  -3.14157
   D27        3.14150  -0.00000   0.00000   0.00001   0.00001   3.14151
   D28       -0.00007  -0.00000   0.00000   0.00004   0.00005  -0.00002
   D29       -0.00041   0.00001   0.00000   0.00029   0.00030  -0.00011
   D30        3.14139   0.00000   0.00000   0.00001   0.00002   3.14141
   D31        3.14132   0.00001   0.00000   0.00020   0.00020   3.14152
   D32       -0.00006  -0.00000   0.00000  -0.00008  -0.00008  -0.00015
   D33       -0.00077   0.00002   0.00000   0.00053   0.00052  -0.00025
   D34        3.14133   0.00001   0.00000   0.00027   0.00027   3.14159
   D35       -3.14089   0.00001   0.00000   0.00013   0.00012  -3.14077
   D36        0.00121  -0.00000   0.00000  -0.00014  -0.00014   0.00107
   D37        0.00072  -0.00002   0.00000  -0.00051  -0.00050   0.00022
   D38       -3.14144  -0.00001   0.00000  -0.00021  -0.00022   3.14153
   D39       -3.14107  -0.00001   0.00000  -0.00023  -0.00023  -3.14130
   D40       -0.00005   0.00000   0.00000   0.00006   0.00006   0.00001
         Item               Value     Threshold  Converged?
 Maximum Force            0.049436     0.000450     NO 
 RMS     Force            0.009601     0.000300     NO 
 Maximum Displacement     0.104890     0.001800     NO 
 RMS     Displacement     0.029231     0.001200     NO 
 Predicted change in Energy=-8.898129D-03
 GradGradGradGradGradGradGradGradGradGradGradGradGradGradGradGradGradGrad

                          Input orientation:                          
 ---------------------------------------------------------------------
 Center     Atomic      Atomic             Coordinates (Angstroms)
 Number     Number       Type             X           Y           Z
 ---------------------------------------------------------------------
      1          6           0       -2.190030    0.683146    0.000029
      2          6           0       -2.163560   -0.705584    0.000022
      3          6           0       -0.919717   -1.424872    0.000048
      4          6           0        0.250467   -0.654311    0.000023
      5          6           0        0.246253    0.751889    0.000034
      6          6           0       -0.994459    1.450413    0.000063
      7          7           0        1.583109   -1.056548   -0.000100
      8          6           0        1.622292    1.151675   -0.000033
      9          6           0        2.435624    0.003646    0.000065
     10          1           0        1.888016   -2.018759    0.000614
     11          1           0        1.992595    2.167141   -0.000207
     12          1           0        3.508054   -0.121969    0.000005
     13          1           0       -3.100427   -1.252890   -0.000027
     14          1           0       -0.887942   -2.510264   -0.000043
     15          1           0       -3.150319    1.188835   -0.000009
     16          1           0       -1.023054    2.535900    0.000052
 ---------------------------------------------------------------------
                    Distance matrix (angstroms):
                    1          2          3          4          5
     1  C    0.000000
     2  C    1.388982   0.000000
     3  C    2.461186   1.436845   0.000000
     4  C    2.782952   2.414572   1.401105   0.000000
     5  C    2.437253   2.816279   2.469367   1.406206   0.000000
     6  C    1.420595   2.452574   2.876256   2.445343   1.423833
     7  N    4.154890   3.763071   2.529782   1.392023   2.248917
     8  C    3.841006   4.216882   3.619448   2.267926   1.432939
     9  C    4.675296   4.653547   3.646776   2.282064   2.313701
    10  H    4.891907   4.259073   2.869855   2.131498   3.220539
    11  H    4.438084   5.052343   4.624296   3.315961   2.247809
    12  H    5.754683   5.701563   4.615486   3.300797   3.376829
    13  H    2.139406   1.085018   2.187482   3.403938   3.901206
    14  H    3.448667   2.209994   1.085857   2.177277   3.453699
    15  H    1.085300   2.136004   3.436139   3.868143   3.424562
    16  H    2.189643   3.436274   3.962121   3.435012   2.189484
                    6          7          8          9         10
     6  C    0.000000
     7  N    3.595651   0.000000
     8  C    2.633748   2.208571   0.000000
     9  C    3.722714   1.360438   1.406939   0.000000
    10  H    4.510412   1.009366   3.181550   2.095232   0.000000
    11  H    3.071838   3.249592   1.080877   2.208390   4.187206
    12  H    4.769173   2.139825   2.275581   1.079762   2.494461
    13  H    3.426799   4.687650   5.299624   5.676860   5.046892
    14  H    3.962109   2.866946   4.439715   4.167233   2.819134
    15  H    2.171671   5.238996   4.772756   5.710291   5.972728
    16  H    1.085865   4.438217   2.985622   4.286579   5.405483
                   11         12         13         14         15
    11  H    0.000000
    12  H    2.745294   0.000000
    13  H    6.134777   6.704552   0.000000
    14  H    5.493233   5.002872   2.544815   0.000000
    15  H    5.235135   6.786173   2.442235   4.336091   0.000000
    16  H    3.038111   5.253114   4.320928   5.047973   2.517904
                   16
    16  H    0.000000
 Stoichiometry    C8H7N
 Framework group  C1[X(C8H7N)]
 Deg. of freedom    42
 Full point group                 C1      NOp   1
 Largest Abelian subgroup         C1      NOp   1
 Largest concise Abelian subgroup C1      NOp   1
                         Standard orientation:                         
 ---------------------------------------------------------------------
 Center     Atomic      Atomic             Coordinates (Angstroms)
 Number     Number       Type             X           Y           Z
 ---------------------------------------------------------------------
      1          6           0       -2.197562    0.657980    0.000010
      2          6           0       -2.156473   -0.730394    0.000003
      3          6           0       -0.905126   -1.436548    0.000029
      4          6           0        0.256881   -0.653710    0.000004
      5          6           0        0.237863    0.752367    0.000015
      6          6           0       -1.010133    1.437791    0.000044
      7          7           0        1.593683   -1.041895   -0.000119
      8          6           0        1.609618    1.166618   -0.000052
      9          6           0        2.434990    0.027215    0.000046
     10          1           0        1.908704   -2.000843    0.000594
     11          1           0        1.969209    2.185926   -0.000226
     12          1           0        3.508683   -0.087103   -0.000014
     13          1           0       -3.087526   -1.287533   -0.000046
     14          1           0       -0.861926   -2.521545   -0.000063
     15          1           0       -3.163120    1.153532   -0.000029
     16          1           0       -1.050155    2.522918    0.000032
 ---------------------------------------------------------------------
 Rotational constants (GHZ):           3.9078795           1.5960628           1.1332279
 Standard basis: 6-31+G(d) (6D, 7F)
 There are   185 symmetry adapted cartesian basis functions of A   symmetry.
 There are   185 symmetry adapted basis functions of A   symmetry.
   185 basis functions,   316 primitive gaussians,   185 cartesian basis functions
    31 alpha electrons       31 beta electrons
       nuclear repulsion energy       397.9909548125 Hartrees.
 NAtoms=   16 NActive=   16 NUniq=   16 SFac= 1.00D+00 NAtFMM=   60 NAOKFM=F Big=F
 Integral buffers will be    131072 words long.
 Regular integral format.
 Two-electron integral symmetry is turned on.
 One-electron integrals computed using PRISM.
 NBasis=   185 RedAO= T EigKep=  1.31D-06  NBF=   185
 NBsUse=   185 1.00D-06 EigRej= -1.00D+00 NBFU=   185
 Initial guess from the checkpoint file:  "FuncsMPW1PW91-V-1st.chk"
 B after Tr=     0.000000   -0.000000    0.000000
         Rot=    0.999986    0.000005    0.000004   -0.005313 Ang=   0.61 deg.
 ExpMin= 4.38D-02 ExpMax= 4.17D+03 ExpMxC= 6.27D+02 IAcc=3 IRadAn=         5 AccDes= 0.00D+00
 Harris functional with IExCor=  908 and IRadAn=       5 diagonalized for initial guess.
 HarFok:  IExCor=  908 AccDes= 0.00D+00 IRadAn=         5 IDoV= 1 UseB2=F ITyADJ=14
 ICtDFT=  3500011 ScaDFX=  1.000000  1.000000  1.000000  1.000000
 FoFCou: FMM=F IPFlag=           0 FMFlag=      100000 FMFlg1=           0
         NFxFlg=           0 DoJE=T BraDBF=F KetDBF=T FulRan=T
         wScrn=  0.000000 ICntrl=       500 IOpCl=  0 I1Cent=   200000004 NGrid=           0
         NMat0=    1 NMatS0=      1 NMatT0=    0 NMatD0=    1 NMtDS0=    0 NMtDT0=    0
 Petite list used in FoFCou.
 Keep R1 ints in memory in canonical form, NReq=152071459.
 Requested convergence on RMS density matrix=1.00D-08 within 128 cycles.
 Requested convergence on MAX density matrix=1.00D-06.
 Requested convergence on             energy=1.00D-06.
 No special actions if energy rises.
 SCF Done:  E(RmPW1PW91) =  -363.740285548     A.U. after   12 cycles
            NFock= 12  Conv=0.99D-08     -V/T= 2.0101
 DoSCS=F DFT=T ScalE2(SS,OS)=  1.000000  1.000000
 ExpMin= 4.38D-02 ExpMax= 4.17D+03 ExpMxC= 6.27D+02 IAcc=3 IRadAn=         5 AccDes= 0.00D+00
 HarFok:  IExCor=  205 AccDes= 0.00D+00 IRadAn=         5 IDoV=-2 UseB2=F ITyADJ=14
 ICtDFT= 12500011 ScaDFX=  1.000000  1.000000  1.000000  1.000000
 Range of M.O.s used for correlation:    10   185
 NBasis=   185 NAE=    31 NBE=    31 NFC=     9 NFV=     0
 NROrb=    176 NOA=    22 NOB=    22 NVA=   154 NVB=   154

 **** Warning!!: The largest alpha MO coefficient is  0.18102997D+03

 Orbital symmetries:
       Occupied  (A) (A) (A) (A) (A) (A) (A) (A) (A) (A) (A) (A)
                 (A) (A) (A) (A) (A) (A) (A) (A) (A) (A) (A) (A)
                 (A) (A) (A) (A) (A) (A) (A)
       Virtual   (A) (A) (A) (A) (A) (A) (A) (A) (A) (A) (A) (A)
                 (A) (A) (A) (A) (A) (A) (A) (A) (A) (A) (A) (A)
                 (A) (A) (A) (A) (A) (A) (A) (A) (A) (A) (A) (A)
                 (A) (A) (A) (A) (A) (A) (A) (A) (A) (A) (A) (A)
                 (A) (A) (A) (A) (A) (A) (A) (A) (A) (A) (A) (A)
                 (A) (A) (A) (A) (A) (A) (A) (A) (A) (A) (A) (A)
                 (A) (A) (A) (A) (A) (A) (A) (A) (A) (A) (A) (A)
                 (A) (A) (A) (A) (A) (A) (A) (A) (A) (A) (A) (A)
                 (A) (A) (A) (A) (A) (A) (A) (A) (A) (A) (A) (A)
                 (A) (A) (A) (A) (A) (A) (A) (A) (A) (A) (A) (A)
                 (A) (A) (A) (A) (A) (A) (A) (A) (A) (A) (A) (A)
                 (A) (A) (A) (A) (A) (A) (A) (A) (A) (A) (A) (A)
                 (A) (A) (A) (A) (A) (A) (A) (A) (A) (A)
 Generating guess from densities on rwf.
 Convergence on wavefunction:    0.000001000000000
 Iteration     1 Dimension    12 NMult     0 NNew     12
 CISAX will form    12 AO SS matrices at one time.
 New state      4 was old state      5
 New state      5 was old state      4
 Iteration     2 Dimension    24 NMult    12 NNew     12
 New state      2 was old state      3
 New state      3 was old state      2
 New state      5 was old state      6
 New state      6 was old state      5
 Iteration     3 Dimension    36 NMult    24 NNew     12
 Iteration     4 Dimension    48 NMult    36 NNew     12
 Iteration     5 Dimension    60 NMult    48 NNew     12
 Iteration     6 Dimension    72 NMult    60 NNew     12
 Iteration     7 Dimension    84 NMult    72 NNew     12
 Iteration     8 Dimension    96 NMult    84 NNew     12
 Iteration     9 Dimension   108 NMult    96 NNew     12
 Iteration    10 Dimension   116 NMult   108 NNew      8
 Iteration    11 Dimension   120 NMult   116 NNew      4
 ***********************************************************************
 Excited states from <AA,BB:AA,BB> singles matrix:
 ***********************************************************************
 
 Ground to excited state transition densities written to RWF  633
 Ground to excited state transition electric dipole moments (Au):
       state          X           Y           Z        Dip. S.      Osc.
         1        -0.6968      0.6880     -0.0001      0.9589      0.1040
         2         0.0002     -0.0003     -0.1278      0.0163      0.0019
         3        -0.3394     -0.1698      0.0000      0.1440      0.0172
         4         0.0002     -0.0000     -0.0260      0.0007      0.0001
         5         0.0002      0.0001      0.1233      0.0152      0.0021
         6        -0.0005     -0.0001     -0.1082      0.0117      0.0016
 Ground to excited state transition velocity dipole moments (Au):
       state          X           Y           Z        Dip. S.      Osc.
         1         0.1037     -0.1216      0.0000      0.0255      0.1047
         2        -0.0000      0.0001      0.0143      0.0002      0.0008
         3         0.0570      0.0323     -0.0000      0.0043      0.0160
         4        -0.0000      0.0000      0.0068      0.0000      0.0002
         5        -0.0000     -0.0000     -0.0244      0.0006      0.0020
         6         0.0001      0.0000      0.0247      0.0006      0.0020
 Ground to excited state transition magnetic dipole moments (Au):
       state          X           Y           Z
         1         0.0001      0.0000      0.1563
         2         0.1322     -0.0655      0.0001
         3        -0.0001     -0.0000      0.0375
         4         0.2938     -0.1711      0.0001
         5         0.1028      0.3534      0.0002
         6        -0.0023     -0.1423     -0.0001
 Ground to excited state transition velocity quadrupole moments (Au):
       state          XX          YY          ZZ          XY          XZ          YZ
         1         0.1862     -0.1221      0.0125      0.0681      0.0000     -0.0000
         2        -0.0001      0.0001      0.0001      0.0000      0.0594      0.0502
         3         0.0372     -0.0851      0.0260      0.0053     -0.0000     -0.0000
         4        -0.0000     -0.0001      0.0000      0.0000      0.1936      0.2338
         5         0.0001     -0.0001      0.0001      0.0001     -0.3075      0.0106
         6         0.0001     -0.0001     -0.0000     -0.0000      0.0717     -0.0635
 <0|del|b> * <b|rxdel|0> + <0|del|b> * <b|delr+rdel|0>
 Rotatory Strengths (R) in cgs (10**-40 erg-esu-cm/Gauss)
       state          XX          YY          ZZ    R(velocity)    E-M Angle
         1         0.0108      0.0220      0.0093      0.0140       90.00
         2        -0.0133     -0.0070     -0.0050     -0.0085       90.00
         3        -0.0029     -0.0179     -0.0134     -0.0114       90.00
         4         0.0005     -0.0249     -0.0029     -0.0091       90.00
         5        -0.0192     -0.0105     -0.0058     -0.0118       90.00
         6        -0.0131     -0.0158      0.0097     -0.0064       90.00
 1/2[<0|r|b>*<b|rxdel|0> + (<0|rxdel|b>*<b|r|0>)*]
 Rotatory Strengths (R) in cgs (10**-40 erg-esu-cm/Gauss)
       state          XX          YY          ZZ     R(length)
         1         0.0480     -0.0061      0.0084      0.0168
         2        -0.0179     -0.0161      0.0091     -0.0083
         3        -0.0301     -0.0056     -0.0008     -0.0122
         4        -0.0317     -0.0016      0.0018     -0.0105
         5        -0.0127     -0.0182     -0.0137     -0.0148
         6        -0.0009     -0.0068     -0.0096     -0.0057
  1/2[<0|del|b>*<b|r|0> + (<0|r|b>*<b|del|0>)*] (Au)
       state          X           Y           Z        Dip. S.   Osc.(frdel)
         1        -0.0722     -0.0837     -0.0000      0.1559      0.1040
         2        -0.0000     -0.0000     -0.0018      0.0018      0.0012
         3        -0.0194     -0.0055     -0.0000      0.0248      0.0166
         4        -0.0000     -0.0000     -0.0002      0.0002      0.0001
         5        -0.0000     -0.0000     -0.0030      0.0030      0.0020
         6        -0.0000     -0.0000     -0.0027      0.0027      0.0018

 Excitation energies and oscillator strengths:
 
 Excited State   1:      Singlet-A      4.4267 eV  280.08 nm  f=0.1040  <S**2>=0.000
      29 -> 32         0.10113
      30 -> 35         0.10801
      31 -> 32         0.68334
 This state for optimization and/or second-order correction.
 Total Energy, E(TD-HF/TD-DFT) =  -363.577605555    
 Copying the excited state density for this state as the 1-particle RhoCI density.
 
 Excited State   2:      Singlet-A      4.7894 eV  258.87 nm  f=0.0019  <S**2>=0.000
      31 -> 33         0.70337
 
 Excited State   3:      Singlet-A      4.8748 eV  254.34 nm  f=0.0172  <S**2>=0.000
      30 -> 32         0.55917
      31 -> 35        -0.41961
 
 Excited State   4:      Singlet-A      5.4081 eV  229.26 nm  f=0.0001  <S**2>=0.000
      31 -> 34         0.69619
 
 Excited State   5:      Singlet-A      5.5185 eV  224.67 nm  f=0.0021  <S**2>=0.000
      31 -> 36        -0.69495
 
 Excited State   6:      Singlet-A      5.6813 eV  218.23 nm  f=0.0016  <S**2>=0.000
      30 -> 33         0.69491
 SavETr:  write IOETrn=   770 NScale= 10 NData=  16 NLR=1 NState=    6 LETran=     118.
          IDoAtm=1111111111111111
          Differentiating once with respect to electric field.
                with respect to dipole field.
          Differentiating once with respect to nuclear coordinates.
 Keep R1 ints in memory in canonical form, NReq=152083851.
          There are     1 degrees of freedom in the 1st order CPHF.  IDoFFX=0 NUNeed=     1.
 LinEq1:  Iter=  0 NonCon=     1 RMS=1.31D-02 Max=4.02D-01 NDo=     1
 AX will form     1 AO Fock derivatives at one time.
 LinEq1:  Iter=  1 NonCon=     1 RMS=4.82D-03 Max=1.05D-01 NDo=     1
 LinEq1:  Iter=  2 NonCon=     1 RMS=3.94D-03 Max=1.34D-01 NDo=     1
 LinEq1:  Iter=  3 NonCon=     1 RMS=1.66D-03 Max=3.63D-02 NDo=     1
 LinEq1:  Iter=  4 NonCon=     1 RMS=1.11D-03 Max=3.55D-02 NDo=     1
 LinEq1:  Iter=  5 NonCon=     1 RMS=5.23D-04 Max=1.08D-02 NDo=     1
 LinEq1:  Iter=  6 NonCon=     1 RMS=3.66D-04 Max=1.31D-02 NDo=     1
 LinEq1:  Iter=  7 NonCon=     1 RMS=1.54D-04 Max=3.47D-03 NDo=     1
 LinEq1:  Iter=  8 NonCon=     1 RMS=9.03D-05 Max=1.74D-03 NDo=     1
 LinEq1:  Iter=  9 NonCon=     1 RMS=4.19D-05 Max=1.11D-03 NDo=     1
 LinEq1:  Iter= 10 NonCon=     1 RMS=2.47D-05 Max=5.74D-04 NDo=     1
 LinEq1:  Iter= 11 NonCon=     1 RMS=1.12D-05 Max=2.19D-04 NDo=     1
 LinEq1:  Iter= 12 NonCon=     1 RMS=6.14D-06 Max=1.01D-04 NDo=     1
 LinEq1:  Iter= 13 NonCon=     1 RMS=1.98D-06 Max=4.10D-05 NDo=     1
 LinEq1:  Iter= 14 NonCon=     1 RMS=1.07D-06 Max=1.18D-05 NDo=     1
 LinEq1:  Iter= 15 NonCon=     1 RMS=2.31D-07 Max=3.10D-06 NDo=     1
 LinEq1:  Iter= 16 NonCon=     1 RMS=4.73D-08 Max=8.73D-07 NDo=     1
 LinEq1:  Iter= 17 NonCon=     1 RMS=2.77D-08 Max=6.14D-07 NDo=     1
 LinEq1:  Iter= 18 NonCon=     1 RMS=7.39D-09 Max=9.34D-08 NDo=     1
 LinEq1:  Iter= 19 NonCon=     1 RMS=1.35D-09 Max=3.74D-08 NDo=     1
 LinEq1:  Iter= 20 NonCon=     1 RMS=2.61D-10 Max=5.23D-09 NDo=     1
 LinEq1:  Iter= 21 NonCon=     1 RMS=6.46D-11 Max=1.31D-09 NDo=     1
 LinEq1:  Iter= 22 NonCon=     0 RMS=2.44D-11 Max=3.78D-10 NDo=     1
 Linear equations converged to 1.000D-10 1.000D-09 after    22 iterations.
 End of Minotr F.D. properties file   721 does not exist.
 End of Minotr F.D. properties file   722 does not exist.
 End of Minotr F.D. properties file   788 does not exist.
 Calling FoFJK, ICntrl=  10005127 FMM=F ISym2X=0 I1Cent= 0 IOpClX= 0 NMat=1 NMatS=1 NMatT=0.
 ***** Axes restored to original set *****
 -------------------------------------------------------------------
 Center     Atomic                   Forces (Hartrees/Bohr)
 Number     Number              X              Y              Z
 -------------------------------------------------------------------
      1        6          -0.000823636   -0.011325265   -0.000001785
      2        6          -0.002044795    0.013435855    0.000000476
      3        6           0.007396796   -0.011263246    0.000002497
      4        6          -0.009425558    0.009778894   -0.000004265
      5        6           0.005310364   -0.007754227   -0.000005372
      6        6           0.002948501    0.009278793   -0.000001244
      7        7           0.013275398    0.005837123    0.000032411
      8        6          -0.013117986    0.012731778   -0.000003043
      9        6          -0.002610216   -0.020375109   -0.000013665
     10        1          -0.000707731   -0.001096380   -0.000013502
     11        1           0.000739038    0.000533709    0.000003336
     12        1          -0.001094061    0.000734115    0.000002571
     13        1           0.000859844   -0.001339372    0.000000616
     14        1          -0.001036093    0.000933695   -0.000001469
     15        1           0.000450495    0.001002697    0.000000386
     16        1          -0.000120358   -0.001113059    0.000002051
 -------------------------------------------------------------------
 Cartesian Forces:  Max     0.020375109 RMS     0.006192166

 GradGradGradGradGradGradGradGradGradGradGradGradGradGradGradGradGradGrad
 Berny optimization.
 Using GEDIIS/GDIIS optimizer.
 FormGI is forming the generalized inverse of G from B-inverse, IUseBI=4.
 Internal  Forces:  Max     0.012274888 RMS     0.002656218
 Search for a local minimum.
 Step number   2 out of a maximum of   94
 All quantities printed in internal units (Hartrees-Bohrs-Radians)
 Mixed Optimization -- RFO/linear search
 Update second derivatives using D2CorX and points    1    2
 DE= -9.68D-03 DEPred=-8.90D-03 R= 1.09D+00
 TightC=F SS=  1.41D+00  RLast= 2.02D-01 DXNew= 5.0454D-01 6.0738D-01
 Trust test= 1.09D+00 RLast= 2.02D-01 DXMaxT set to 5.05D-01
 ITU=  1  0
 Use linear search instead of GDIIS.
     Eigenvalues ---    0.01852   0.01931   0.01986   0.02011   0.02069
     Eigenvalues ---    0.02113   0.02146   0.02150   0.02172   0.02210
     Eigenvalues ---    0.02234   0.02248   0.02341   0.15950   0.16000
     Eigenvalues ---    0.16000   0.16000   0.16000   0.16000   0.16024
     Eigenvalues ---    0.20502   0.22007   0.23977   0.24570   0.24794
     Eigenvalues ---    0.35549   0.35714   0.35786   0.35820   0.35989
     Eigenvalues ---    0.36454   0.36537   0.38627   0.40017   0.42783
     Eigenvalues ---    0.43893   0.46029   0.47048   0.47168   0.47663
     Eigenvalues ---    0.49009   0.53333
 RFO step:  Lambda=-1.73414620D-03 EMin= 1.85216067D-02
 Quartic linear search produced a step of  0.15621.
 Iteration  1 RMS(Cart)=  0.00989836 RMS(Int)=  0.00006274
 Iteration  2 RMS(Cart)=  0.00010744 RMS(Int)=  0.00001962
 Iteration  3 RMS(Cart)=  0.00000000 RMS(Int)=  0.00001962
 Variable       Old X    -DE/DX   Delta X   Delta X   Delta X     New X
                                 (Linear)    (Quad)   (Total)
    R1        2.62480  -0.00583  -0.00479  -0.01331  -0.01813   2.60667
    R2        2.68454   0.00252   0.01119   0.00173   0.01290   2.69743
    R3        2.05092   0.00007   0.00105  -0.00018   0.00087   2.05179
    R4        2.71524   0.00439   0.01557   0.00462   0.02019   2.73543
    R5        2.05039  -0.00007   0.00098  -0.00059   0.00039   2.05078
    R6        2.64770  -0.00186   0.00218  -0.00534  -0.00314   2.64457
    R7        2.05197  -0.00096   0.00104  -0.00350  -0.00246   2.04951
    R8        2.65734  -0.00235  -0.00363  -0.00519  -0.00881   2.64854
    R9        2.63054   0.00472   0.00457   0.00850   0.01311   2.64365
   R10        2.69066  -0.00057   0.00671  -0.00390   0.00282   2.69347
   R11        2.70786  -0.00666  -0.00008  -0.01817  -0.01829   2.68957
   R12        2.05199  -0.00111   0.00105  -0.00398  -0.00293   2.04906
   R13        2.57086  -0.01173  -0.00545  -0.02557  -0.03098   2.53987
   R14        1.90742   0.00083   0.00187   0.00133   0.00321   1.91063
   R15        2.65873   0.01227   0.01250   0.02315   0.03564   2.69437
   R16        2.04256   0.00075   0.00131   0.00188   0.00319   2.04575
   R17        2.04046  -0.00117   0.00096  -0.00407  -0.00311   2.03735
    A1        2.12230   0.00174   0.00126   0.00869   0.00990   2.13220
    A2        2.07456   0.00025  -0.00083   0.00378   0.00298   2.07753
    A3        2.08633  -0.00199  -0.00044  -0.01247  -0.01288   2.07345
    A4        2.11415   0.00273  -0.00017   0.01451   0.01431   2.12846
    A5        2.08045   0.00026  -0.00050   0.00465   0.00416   2.08461
    A6        2.08859  -0.00300   0.00067  -0.01916  -0.01848   2.07011
    A7        2.03497  -0.00537  -0.00257  -0.02631  -0.02887   2.00610
    A8        2.12436   0.00165   0.00183   0.00553   0.00735   2.13171
    A9        2.12385   0.00372   0.00075   0.02078   0.02152   2.14537
   A10        2.15012   0.00307   0.00254   0.01463   0.01720   2.16733
   A11        2.26613  -0.00399  -0.00200  -0.01720  -0.01924   2.24689
   A12        1.86693   0.00092  -0.00053   0.00257   0.00204   1.86897
   A13        2.08656   0.00208   0.00216   0.00894   0.01115   2.09772
   A14        1.85055   0.00149  -0.00228   0.00842   0.00608   1.85663
   A15        2.34607  -0.00358   0.00013  -0.01736  -0.01723   2.32884
   A16        2.05826  -0.00427  -0.00322  -0.02047  -0.02371   2.03456
   A17        2.11502   0.00198   0.00187   0.00902   0.01090   2.12592
   A18        2.10990   0.00229   0.00135   0.01144   0.01280   2.12271
   A19        1.95490  -0.00101   0.00742  -0.00983  -0.00235   1.95255
   A20        2.17081  -0.00045  -0.00303  -0.00223  -0.00530   2.16551
   A21        2.15748   0.00147  -0.00438   0.01206   0.00765   2.16512
   A22        1.90443  -0.00301   0.00543  -0.01487  -0.00948   1.89495
   A23        2.20322   0.00203  -0.00218   0.01093   0.00878   2.21200
   A24        2.17554   0.00098  -0.00325   0.00393   0.00070   2.17624
   A25        1.84797   0.00161  -0.01003   0.01371   0.00371   1.85168
   A26        2.13144  -0.00019   0.00452  -0.00225   0.00225   2.13369
   A27        2.30378  -0.00142   0.00550  -0.01146  -0.00597   2.29781
    D1       -0.00000   0.00000   0.00000  -0.00000   0.00000  -0.00000
    D2       -3.14157  -0.00000  -0.00000  -0.00001  -0.00002  -3.14158
    D3        3.14157   0.00000   0.00001   0.00002   0.00003  -3.14158
    D4        0.00001   0.00000   0.00000   0.00001   0.00001   0.00002
    D5        0.00005   0.00000   0.00001   0.00001   0.00002   0.00006
    D6        3.14157   0.00000   0.00001   0.00004   0.00005  -3.14156
    D7       -3.14153  -0.00000   0.00001  -0.00002  -0.00001  -3.14154
    D8       -0.00000   0.00000   0.00000   0.00002   0.00002   0.00002
    D9       -0.00005   0.00000  -0.00001   0.00002   0.00000  -0.00004
   D10       -3.14150   0.00000   0.00001   0.00001   0.00001  -3.14149
   D11        3.14152   0.00000  -0.00001   0.00003   0.00002   3.14154
   D12        0.00007   0.00000   0.00001   0.00002   0.00003   0.00010
   D13        0.00005  -0.00000   0.00001  -0.00004  -0.00003   0.00002
   D14       -3.14146  -0.00000  -0.00000  -0.00005  -0.00005  -3.14152
   D15        3.14150  -0.00000  -0.00001  -0.00003  -0.00004   3.14146
   D16       -0.00001  -0.00000  -0.00002  -0.00004  -0.00006  -0.00007
   D17       -0.00001   0.00000   0.00000   0.00005   0.00005   0.00004
   D18       -3.14157   0.00000  -0.00001   0.00003   0.00002  -3.14155
   D19        3.14152   0.00000   0.00001   0.00005   0.00007   3.14159
   D20       -0.00004   0.00000   0.00000   0.00003   0.00003  -0.00001
   D21       -3.14148  -0.00000  -0.00004  -0.00008  -0.00012   3.14159
   D22       -0.00097   0.00001   0.00003   0.00028   0.00030  -0.00066
   D23        0.00018  -0.00000  -0.00005  -0.00009  -0.00014   0.00005
   D24        3.14070   0.00001   0.00001   0.00027   0.00028   3.14098
   D25       -0.00004  -0.00000  -0.00001  -0.00003  -0.00004  -0.00008
   D26       -3.14157  -0.00000  -0.00001  -0.00007  -0.00008   3.14154
   D27        3.14151  -0.00000   0.00000   0.00000   0.00001   3.14151
   D28       -0.00002  -0.00000   0.00001  -0.00004  -0.00003  -0.00005
   D29       -0.00011   0.00000   0.00005   0.00003   0.00008  -0.00003
   D30        3.14141   0.00000   0.00000   0.00007   0.00008   3.14148
   D31        3.14152   0.00000   0.00003   0.00001   0.00004   3.14156
   D32       -0.00015   0.00000  -0.00001   0.00005   0.00003  -0.00012
   D33       -0.00025   0.00000   0.00008   0.00011   0.00019  -0.00007
   D34        3.14159   0.00000   0.00004   0.00002   0.00006  -3.14153
   D35       -3.14077  -0.00000   0.00002  -0.00024  -0.00023  -3.14100
   D36        0.00107  -0.00001  -0.00002  -0.00033  -0.00035   0.00072
   D37        0.00022  -0.00000  -0.00008  -0.00008  -0.00016   0.00006
   D38        3.14153   0.00000  -0.00003   0.00002  -0.00002   3.14151
   D39       -3.14130  -0.00000  -0.00004  -0.00012  -0.00016  -3.14146
   D40        0.00001   0.00000   0.00001  -0.00002  -0.00002  -0.00001
         Item               Value     Threshold  Converged?
 Maximum Force            0.012275     0.000450     NO 
 RMS     Force            0.002656     0.000300     NO 
 Maximum Displacement     0.029629     0.001800     NO 
 RMS     Displacement     0.009957     0.001200     NO 
 Predicted change in Energy=-1.050155D-03
 GradGradGradGradGradGradGradGradGradGradGradGradGradGradGradGradGradGrad

                          Input orientation:                          
 ---------------------------------------------------------------------
 Center     Atomic      Atomic             Coordinates (Angstroms)
 Number     Number       Type             X           Y           Z
 ---------------------------------------------------------------------
      1          6           0       -2.183136    0.680515    0.000001
      2          6           0       -2.153654   -0.698559    0.000010
      3          6           0       -0.909347   -1.438178    0.000067
      4          6           0        0.246302   -0.648922    0.000059
      5          6           0        0.242567    0.752618    0.000024
      6          6           0       -0.991331    1.466091    0.000047
      7          7           0        1.584622   -1.056340    0.000021
      8          6           0        1.607009    1.157548   -0.000027
      9          6           0        2.426889   -0.008945    0.000022
     10          1           0        1.882639   -2.022483    0.000550
     11          1           0        1.980974    2.173470   -0.000160
     12          1           0        3.497963   -0.131983   -0.000059
     13          1           0       -3.087133   -1.252030   -0.000034
[...]
 ! D9    D(1,2,3,4)             -0.0001         -DE/DX =    0.0                 !
 ! D10   D(1,2,3,14)          -179.9948         -DE/DX =    0.0                 !
 ! D11   D(13,2,3,4)           179.9998         -DE/DX =    0.0                 !
 ! D12   D(13,2,3,14)            0.0051         -DE/DX =    0.0                 !
 ! D13   D(2,3,4,5)             -0.0002         -DE/DX =    0.0                 !
 ! D14   D(2,3,4,7)           -179.9986         -DE/DX =    0.0                 !
 ! D15   D(14,3,4,5)           179.9944         -DE/DX =    0.0                 !
 ! D16   D(14,3,4,7)            -0.004          -DE/DX =    0.0                 !
 ! D17   D(3,4,5,6)              0.0006         -DE/DX =    0.0                 !
 ! D18   D(3,4,5,8)           -179.9982         -DE/DX =    0.0                 !
 ! D19   D(7,4,5,6)            179.9993         -DE/DX =    0.0                 !
 ! D20   D(7,4,5,8)              0.0005         -DE/DX =    0.0                 !
 ! D21   D(3,4,7,9)            180.0015         -DE/DX =    0.0                 !
 ! D22   D(3,4,7,10)            -0.0073         -DE/DX =    0.0                 !
 ! D23   D(5,4,7,9)              0.0028         -DE/DX =    0.0                 !
 ! D24   D(5,4,7,10)           179.9941         -DE/DX =    0.0                 !
 ! D25   D(4,5,6,1)             -0.0007         -DE/DX =    0.0                 !
 ! D26   D(4,5,6,16)           179.9984         -DE/DX =    0.0                 !
 ! D27   D(8,5,6,1)            179.9978         -DE/DX =    0.0                 !
 ! D28   D(8,5,6,16)            -0.0031         -DE/DX =    0.0                 !
 ! D29   D(4,5,8,9)             -0.0034         -DE/DX =    0.0                 !
 ! D30   D(4,5,8,11)           179.9987         -DE/DX =    0.0                 !
 ! D31   D(6,5,8,9)           -180.0021         -DE/DX =    0.0                 !
 ! D32   D(6,5,8,11)             0.0001         -DE/DX =    0.0                 !
 ! D33   D(4,7,9,8)             -0.0049         -DE/DX =    0.0                 !
 ! D34   D(4,7,9,12)          -180.0018         -DE/DX =    0.0                 !
 ! D35   D(10,7,9,8)          -179.9961         -DE/DX =    0.0                 !
 ! D36   D(10,7,9,12)            0.0071         -DE/DX =    0.0                 !
 ! D37   D(5,8,9,7)              0.0051         -DE/DX =    0.0                 !
 ! D38   D(5,8,9,12)           180.0016         -DE/DX =    0.0                 !
 ! D39   D(11,8,9,7)          -179.9969         -DE/DX =    0.0                 !
 ! D40   D(11,8,9,12)           -0.0005         -DE/DX =    0.0                 !
 --------------------------------------------------------------------------------
 GradGradGradGradGradGradGradGradGradGradGradGradGradGradGradGradGradGrad

                          Input orientation:                          
 ---------------------------------------------------------------------
 Center     Atomic      Atomic             Coordinates (Angstroms)
 Number     Number       Type             X           Y           Z
 ---------------------------------------------------------------------
      1          6           0       -2.179211    0.683682   -0.000004
      2          6           0       -2.146993   -0.697890    0.000048
      3          6           0       -0.912681   -1.445014    0.000089
      4          6           0        0.242672   -0.650953    0.000069
      5          6           0        0.239373    0.747660    0.000010
      6          6           0       -0.989925    1.468404   -0.000022
      7          7           0        1.589445   -1.057317    0.000072
      8          6           0        1.602652    1.158462   -0.000035
      9          6           0        2.423301   -0.010247    0.000080
     10          1           0        1.884105   -2.023371    0.000196
     11          1           0        1.980938    2.171563   -0.000105
     12          1           0        3.496721   -0.117921    0.000111
     13          1           0       -3.081928   -1.250230    0.000057
     14          1           0       -0.894570   -2.527727    0.000047
     15          1           0       -3.141213    1.187034   -0.000035
     16          1           0       -1.015782    2.551310   -0.000041
 ---------------------------------------------------------------------
                    Distance matrix (angstroms):
                    1          2          3          4          5
     1  C    0.000000
     2  C    1.381948   0.000000
     3  C    2.476983   1.442817   0.000000
     4  C    2.765279   2.390126   1.401918   0.000000
     5  C    2.419430   2.790047   2.476903   1.398617   0.000000
     6  C    1.424847   2.455939   2.914441   2.451727   1.425007
     7  N    4.151367   3.753686   2.531984   1.406744   2.254026
     8  C    3.811548   4.184003   3.620081   2.263521   1.423828
     9  C    4.654531   4.621736   3.631437   2.272806   2.311702
    10  H    4.882486   4.243424   2.855960   2.139587   3.222383
    11  H    4.418216   5.027284   4.631702   3.314840   2.249566
    12  H    5.732257   5.673436   4.604780   3.297417   3.370392
    13  H    2.134225   1.085902   2.177975   3.378180   3.875901
    14  H    3.458823   2.217401   1.082865   2.194448   3.466120
    15  H    1.085731   2.131059   3.448772   3.850828   3.409020
    16  H    2.200364   3.440486   3.997653   3.440668   2.197401
                    6          7          8          9         10
     6  C    0.000000
     7  N    3.610043   0.000000
     8  C    2.611037   2.215818   0.000000
     9  C    3.719747   1.338533   1.428057   0.000000
    10  H    4.522448   1.009993   3.194257   2.084082   0.000000
    11  H    3.052943   3.252527   1.081422   2.226203   4.196051
    12  H    4.758825   2.126068   2.283999   1.078807   2.496251
    13  H    3.430372   4.675355   5.267550   5.643147   5.025856
    14  H    3.997269   2.886596   4.452427   4.164850   2.824077
    15  H    2.169611   5.236052   4.743951   5.691863   5.963264
    16  H    1.083215   4.450775   2.965842   4.288225   5.416369
                   11         12         13         14         15
    11  H    0.000000
    12  H    2.745785   0.000000
    13  H    6.110751   6.675383   0.000000
    14  H    5.509254   5.009052   2.533088   0.000000
    15  H    5.215911   6.764989   2.437985   4.341297   0.000000
    16  H    3.020685   5.242850   4.326739   5.080484   2.525610
                   16
    16  H    0.000000
 Stoichiometry    C8H7N
 Framework group  C1[X(C8H7N)]
 Deg. of freedom    42
 Full point group                 C1      NOp   1
 Largest Abelian subgroup         C1      NOp   1
 Largest concise Abelian subgroup C1      NOp   1
                         Standard orientation:                         
 ---------------------------------------------------------------------
 Center     Atomic      Atomic             Coordinates (Angstroms)
 Number     Number       Type             X           Y           Z
 ---------------------------------------------------------------------
      1          6           0       -2.189956    0.648104   -0.000039
      2          6           0       -2.136409   -0.732807    0.000013
      3          6           0       -0.890707   -1.460781    0.000054
      4          6           0        0.252247   -0.648975    0.000035
      5          6           0        0.227352    0.749420   -0.000025
      6          6           0       -1.012928    1.451096   -0.000056
      7          7           0        1.605134   -1.034494    0.000037
      8          6           0        1.584125    1.181224   -0.000069
      9          6           0        2.422723    0.025326    0.000045
     10          1           0        1.914676   -1.995883    0.000162
     11          1           0        1.946723    2.200046   -0.000139
     12          1           0        3.497677   -0.065760    0.000077
     13          1           0       -3.062703   -1.299517    0.000022
     14          1           0       -0.855879   -2.543086    0.000012
     15          1           0       -3.159616    1.136541   -0.000070
     16          1           0       -1.055504    2.533474   -0.000076
 ---------------------------------------------------------------------
 Rotational constants (GHZ):           3.8644247           1.6126750           1.1378396

 **********************************************************************

            Population analysis using the CI Density.

 **********************************************************************

 Orbital symmetries:
       Occupied  (A) (A) (A) (A) (A) (A) (A) (A) (A) (A) (A) (A)
                 (A) (A) (A) (A) (A) (A) (A) (A) (A) (A) (A) (A)
                 (A) (A) (A) (A) (A) (A) (A)
       Virtual   (A) (A) (A) (A) (A) (A) (A) (A) (A) (A) (A) (A)
                 (A) (A) (A) (A) (A) (A) (A) (A) (A) (A) (A) (A)
                 (A) (A) (A) (A) (A) (A) (A) (A) (A) (A) (A) (A)
                 (A) (A) (A) (A) (A) (A) (A) (A) (A) (A) (A) (A)
                 (A) (A) (A) (A) (A) (A) (A) (A) (A) (A) (A) (A)
                 (A) (A) (A) (A) (A) (A) (A) (A) (A) (A) (A) (A)
                 (A) (A) (A) (A) (A) (A) (A) (A) (A) (A) (A) (A)
                 (A) (A) (A) (A) (A) (A) (A) (A) (A) (A) (A) (A)
                 (A) (A) (A) (A) (A) (A) (A) (A) (A) (A) (A) (A)
                 (A) (A) (A) (A) (A) (A) (A) (A) (A) (A) (A) (A)
                 (A) (A) (A) (A) (A) (A) (A) (A) (A) (A) (A) (A)
                 (A) (A) (A) (A) (A) (A) (A) (A) (A) (A) (A) (A)
                 (A) (A) (A) (A) (A) (A) (A) (A) (A) (A)
 The electronic state is 1-A.
 Alpha  occ. eigenvalues --  -14.46704 -10.29050 -10.28651 -10.26292 -10.25604
 Alpha  occ. eigenvalues --  -10.25255 -10.25160 -10.24837 -10.24044  -1.01692
 Alpha  occ. eigenvalues --   -0.86539  -0.80174  -0.76570  -0.73277  -0.65104
 Alpha  occ. eigenvalues --   -0.61650  -0.59785  -0.56064  -0.50184  -0.49029
 Alpha  occ. eigenvalues --   -0.45471  -0.44924  -0.44021  -0.41836  -0.40778
 Alpha  occ. eigenvalues --   -0.36501  -0.35876  -0.34969  -0.28603  -0.24489
 Alpha  occ. eigenvalues --   -0.20653
 Alpha virt. eigenvalues --   -0.02413   0.00017   0.02009   0.02435   0.02616
 Alpha virt. eigenvalues --    0.04044   0.04181   0.04764   0.06264   0.06408
 Alpha virt. eigenvalues --    0.06919   0.07085   0.08958   0.09148   0.10966
 Alpha virt. eigenvalues --    0.11087   0.11686   0.13067   0.13726   0.14391
 Alpha virt. eigenvalues --    0.15699   0.15780   0.17036   0.17066   0.18149
 Alpha virt. eigenvalues --    0.18386   0.19220   0.19271   0.20226   0.20354
 Alpha virt. eigenvalues --    0.20666   0.20976   0.22412   0.22769   0.23884
 Alpha virt. eigenvalues --    0.23923   0.24407   0.25088   0.25949   0.26742
 Alpha virt. eigenvalues --    0.27435   0.27919   0.28538   0.29730   0.30576
 Alpha virt. eigenvalues --    0.31239   0.32479   0.34082   0.35734   0.36206
 Alpha virt. eigenvalues --    0.37641   0.39885   0.43314   0.45956   0.51849
 Alpha virt. eigenvalues --    0.58804   0.61826   0.68067   0.68736   0.71309
 Alpha virt. eigenvalues --    0.72967   0.73746   0.74180   0.74831   0.74837
 Alpha virt. eigenvalues --    0.76980   0.77348   0.78920   0.80273   0.80647
 Alpha virt. eigenvalues --    0.82179   0.86699   0.90302   0.90923   0.92025
 Alpha virt. eigenvalues --    0.95567   0.96197   0.96906   0.97272   0.99892
 Alpha virt. eigenvalues --    1.01460   1.04370   1.06096   1.07527   1.10053
 Alpha virt. eigenvalues --    1.12579   1.13640   1.18324   1.18772   1.22021
 Alpha virt. eigenvalues --    1.23584   1.24688   1.25692   1.32851   1.32995
 Alpha virt. eigenvalues --    1.35673   1.37283   1.41208   1.41396   1.45044
 Alpha virt. eigenvalues --    1.47936   1.48587   1.50007   1.51001   1.55593
 Alpha virt. eigenvalues --    1.59266   1.64145   1.80260   1.83368   1.88945
 Alpha virt. eigenvalues --    1.90953   1.91870   1.94646   2.00536   2.01112
 Alpha virt. eigenvalues --    2.01695   2.04868   2.08109   2.13940   2.17539
 Alpha virt. eigenvalues --    2.17702   2.21514   2.23127   2.25561   2.28865
 Alpha virt. eigenvalues --    2.29110   2.32152   2.38053   2.40929   2.47174
 Alpha virt. eigenvalues --    2.53688   2.56442   2.62877   2.65818   2.66854
 Alpha virt. eigenvalues --    2.68423   2.74820   2.81093   2.84548   2.86069
 Alpha virt. eigenvalues --    2.95951   2.99444   3.09693   3.24892   3.42135
 Alpha virt. eigenvalues --    4.17483   4.27188   4.30825   4.34163   4.38307
 Alpha virt. eigenvalues --    4.42619   4.50115   4.54451   4.80058
          Condensed to atoms (all electrons):
               1          2          3          4          5          6
     1  C    5.878871   0.259885   0.568365  -0.564743  -0.078979  -0.415731
     2  C    0.259885   6.095488  -0.525133   0.251269  -0.607074   0.933754
     3  C    0.568365  -0.525133  14.139494  -0.439025  -5.534005  -3.465211
     4  C   -0.564743   0.251269  -0.439025  14.214652  -6.168744  -2.223692
     5  C   -0.078979  -0.607074  -5.534005  -6.168744  18.034405   1.151292
     6  C   -0.415731   0.933754  -3.465211  -2.223692   1.151292  13.802872
     7  N   -0.033060   0.013731  -0.600521  -0.460621   1.125098   0.163400
     8  C    0.186475  -0.404626   3.311213   3.693642  -5.823800  -4.428021
     9  C   -0.104508   0.047899  -1.116027  -1.133891   1.915210   1.090756
    10  H   -0.003298  -0.003819  -0.141812  -0.062179   0.186452   0.020310
    11  H    0.002989   0.001243   0.006282   0.007093  -0.010855   0.027935
    12  H    0.001445  -0.000315   0.038664   0.116812  -0.137133  -0.018678
    13  H    0.048561   0.233748   0.012553  -0.002702   0.019654  -0.008713
    14  H    0.003951   0.064860   0.185408   0.067243  -0.003395  -0.013225
    15  H    0.240253   0.040142   0.016875  -0.019183   0.029282  -0.010826
    16  H    0.048247   0.002088  -0.017929   0.010167   0.098981   0.177259
               7          8          9         10         11         12
     1  C   -0.033060   0.186475  -0.104508  -0.003298   0.002989   0.001445
     2  C    0.013731  -0.404626   0.047899  -0.003819   0.001243  -0.000315
     3  C   -0.600521   3.311213  -1.116027  -0.141812   0.006282   0.038664
     4  C   -0.460621   3.693642  -1.133891  -0.062179   0.007093   0.116812
     5  C    1.125098  -5.823800   1.915210   0.186452  -0.010855  -0.137133
     6  C    0.163400  -4.428021   1.090756   0.020310   0.027935  -0.018678
     7  N    7.145003  -0.849533   0.637772   0.265158   0.005895  -0.055849
     8  C   -0.849533  11.763613  -1.736909  -0.016883   0.284818   0.083310
     9  C    0.637772  -1.736909   6.351905  -0.013255  -0.022788   0.291044
    10  H    0.265158  -0.016883  -0.013255   0.312599  -0.000069  -0.002085
    11  H    0.005895   0.284818  -0.022788  -0.000069   0.450259  -0.000417
    12  H   -0.055849   0.083310   0.291044  -0.002085  -0.000417   0.439571
    13  H   -0.000488   0.001568   0.001049  -0.000002  -0.000000  -0.000000
    14  H   -0.008333  -0.002347   0.005444   0.001987   0.000002   0.000001
    15  H    0.000299   0.009465  -0.000088  -0.000000  -0.000002  -0.000000
    16  H   -0.000868  -0.022618   0.002995   0.000003   0.001284  -0.000001
              13         14         15         16
     1  C    0.048561   0.003951   0.240253   0.048247
     2  C    0.233748   0.064860   0.040142   0.002088
     3  C    0.012553   0.185408   0.016875  -0.017929
     4  C   -0.002702   0.067243  -0.019183   0.010167
     5  C    0.019654  -0.003395   0.029282   0.098981
     6  C   -0.008713  -0.013225  -0.010826   0.177259
     7  N   -0.000488  -0.008333   0.000299  -0.000868
     8  C    0.001568  -0.002347   0.009465  -0.022618
     9  C    0.001049   0.005444  -0.000088   0.002995
    10  H   -0.000002   0.001987  -0.000000   0.000003
    11  H   -0.000000   0.000002  -0.000002   0.001284
    12  H   -0.000000   0.000001  -0.000000  -0.000001
    13  H    0.501084  -0.003152  -0.004512  -0.000129
    14  H   -0.003152   0.497450  -0.000121   0.000013
    15  H   -0.004512  -0.000121   0.501904  -0.003033
    16  H   -0.000129   0.000013  -0.003033   0.495563
 Mulliken charges:
               1
     1  C   -0.038723
     2  C   -0.403140
     3  C   -0.439190
     4  C   -1.286098
     5  C    1.803613
     6  C   -0.783480
     7  N   -0.347083
     8  C   -0.049367
     9  C   -0.216607
    10  H    0.456895
    11  H    0.246330
    12  H    0.243632
    13  H    0.201480
    14  H    0.204215
    15  H    0.199546
    16  H    0.207977
 Sum of Mulliken charges =  -0.00000
 Mulliken charges with hydrogens summed into heavy atoms:
               1
     1  C    0.160823
     2  C   -0.201660
     3  C   -0.234976
     4  C   -1.286098
     5  C    1.803613
     6  C   -0.575503
     7  N    0.109811
     8  C    0.196964
     9  C    0.027025
 Electronic spatial extent (au):  <R**2>=           1021.1032
 Charge=              0.0000 electrons
 Dipole moment (field-independent basis, Debye):
    X=              4.7209    Y=             -1.2032    Z=             -0.0001  Tot=              4.8718
 Quadrupole moment (field-independent basis, Debye-Ang):
   XX=            -43.6534   YY=            -46.3041   ZZ=            -60.4910
   XY=             -2.2054   XZ=              0.0003   YZ=             -0.0003
 Traceless Quadrupole moment (field-independent basis, Debye-Ang):
   XX=              6.4961   YY=              3.8454   ZZ=            -10.3416
   XY=             -2.2054   XZ=              0.0003   YZ=             -0.0003
 Octapole moment (field-independent basis, Debye-Ang**2):
  XXX=             30.1715  YYY=             -8.5293  ZZZ=             -0.0013  XYY=             16.3536
  XXY=             -6.8517  XXZ=             -0.0000  XZZ=              5.6993  YZZ=             -1.1765
  YYZ=             -0.0012  XYZ=             -0.0012
 Hexadecapole moment (field-independent basis, Debye-Ang**3):
 XXXX=           -829.1323 YYYY=           -396.5141 ZZZZ=            -85.3296 XXXY=            -17.1045
 XXXZ=             -0.0029 YYYX=            -14.8685 YYYZ=              0.0072 ZZZX=             -0.0056
 ZZZY=              0.0113 XXYY=           -196.0238 XXZZ=           -199.2405 YYZZ=           -105.1037
 XXYZ=              0.0000 YYXZ=              0.0002 ZZXY=             -1.7471
 N-N= 3.982795212188D+02 E-N=-1.638689990673D+03  KE= 3.602358527048D+02
 Unable to Open any file for archive entry.
 1\1\GINC-EXP-1-48\FOpt\RmPW1PW91 TD-FC\6-31+G(d)\C8H7N1\SCAPARAS\14-Ju
 n-2021\0\\# td= (nstates=6, root=1) MPW1PW91/6-31+G* Opt density=curre
 nt\\FuncsMPW1PW91-V-1st\\0,1\C,-2.1792109174,0.683682293,-0.0000044975
 \C,-2.1469933176,-0.697890449,0.0000478497\C,-0.9126810777,-1.44501358
 99,0.0000888032\C,0.2426718456,-0.6509526724,0.0000690309\C,0.23937322
 19,0.7476599646,0.0000098049\C,-0.9899245608,1.4684037678,-0.000021506
 3\N,1.5894449358,-1.0573166123,0.0000716011\C,1.602651544,1.1584623325
 ,-0.0000346947\C,2.4233010425,-0.0102471719,0.0000799969\H,1.884104831
 4,-2.0233707884,0.0001961842\H,1.9809380856,2.1715632144,-0.000104547\
 H,3.4967207418,-0.1179211345,0.0001110727\H,-3.0819280771,-1.250230177
 8,0.0000568013\H,-0.8945698488,-2.5277274397,0.0000468834\H,-3.1412131
 434,1.187034317,-0.0000352857\H,-1.0157823057,2.5513101465,-0.00004149
 72\\Version=AS64L-G16RevC.01\State=1-A\HF=-363.736344\RMSD=4.209e-09\R
 MSF=3.723e-05\Dipole=1.8573286,-0.4733831,-0.000037\Quadrupole=4.82971
 63,2.8589757,-7.6886919,-1.6396301,0.0001971,-0.0002181\PG=C01 [X(C8H7
 N1)]\\@
 The archive entry for this job was punched.


 ARTHROPOD AXIOM: A COMPUTER SYSTEM IS LIKE A SPIDER'S WEB.
 YOU CANNOT PULL ON ONE END WITHOUT MAKING THE OTHER END MOVE.
     -- GREG WETTSTEIN
 Job cpu time:       0 days  1 hours 48 minutes 18.7 seconds.
 Elapsed time:       0 days  0 hours 27 minutes 45.1 seconds.
 File lengths (MBytes):  RWF=    238 Int=      0 D2E=      0 Chk=     11 Scr=      1
 Normal termination of Gaussian 16 at Mon Jun 14 12:34:09 2021.
