 Entering Gaussian System, Link 0=/cm/shared/apps/spack/cpu/opt/spack/linux-centos8-zen/gcc-8.3.1/gaussian-16.C.01-po5bqktfeugvmjyga3v7eigbecnokxng/g16/g16
 Initial command:
 /cm/shared/apps/spack/cpu/opt/spack/linux-centos8-zen/gcc-8.3.1/gaussian-16.C.01-po5bqktfeugvmjyga3v7eigbecnokxng/g16/l1.exe "/scratch/scaparas/job_3405958/Gau-123281.inp" -scrdir="/scratch/scaparas/job_3405958/"
 Entering Link 1 = /cm/shared/apps/spack/cpu/opt/spack/linux-centos8-zen/gcc-8.3.1/gaussian-16.C.01-po5bqktfeugvmjyga3v7eigbecnokxng/g16/l1.exe PID=    123283.
  
 Copyright (c) 1988-2019, Gaussian, Inc.  All Rights Reserved.
  
 This is part of the Gaussian(R) 16 program.  It is based on
 the Gaussian(R) 09 system (copyright 2009, Gaussian, Inc.),
 the Gaussian(R) 03 system (copyright 2003, Gaussian, Inc.),
 the Gaussian(R) 98 system (copyright 1998, Gaussian, Inc.),
 the Gaussian(R) 94 system (copyright 1995, Gaussian, Inc.),
 the Gaussian 92(TM) system (copyright 1992, Gaussian, Inc.),
 the Gaussian 90(TM) system (copyright 1990, Gaussian, Inc.),
 the Gaussian 88(TM) system (copyright 1988, Gaussian, Inc.),
 the Gaussian 86(TM) system (copyright 1986, Carnegie Mellon
 University), and the Gaussian 82(TM) system (copyright 1983,
 Carnegie Mellon University). Gaussian is a federally registered
 trademark of Gaussian, Inc.
  
 This software contains proprietary and confidential information,
 including trade secrets, belonging to Gaussian, Inc.
  
 This software is provided under written license and may be
 used, copied, transmitted, or stored only in accord with that
 written license.
  
 The following legend is applicable only to US Government
 contracts under FAR:
  
                    RESTRICTED RIGHTS LEGEND
  
 Use, reproduction and disclosure by the US Government is
 subject to restrictions as set forth in subparagraphs (a)
 and (c) of the Commercial Computer Software - Restricted
 Rights clause in FAR 52.227-19.
  
 Gaussian, Inc.
 340 Quinnipiac St., Bldg. 40, Wallingford CT 06492
  
  
 ---------------------------------------------------------------
 Warning -- This program may not be used in any manner that
 competes with the business of Gaussian, Inc. or will provide
 assistance to any competitor of Gaussian, Inc.  The licensee
 of this program is prohibited from giving any competitor of
 Gaussian, Inc. access to this program.  By using this program,
 the user acknowledges that Gaussian, Inc. is engaged in the
 business of creating and licensing software in the field of
 computational chemistry and represents and warrants to the
 licensee that it is not a competitor of Gaussian, Inc. and that
 it will not use this program in any manner prohibited above.
 ---------------------------------------------------------------
  

 Cite this work as:
 Gaussian 16, Revision C.01,
 M. J. Frisch, G. W. Trucks, H. B. Schlegel, G. E. Scuseria, 
 M. A. Robb, J. R. Cheeseman, G. Scalmani, V. Barone, 
 G. A. Petersson, H. Nakatsuji, X. Li, M. Caricato, A. V. Marenich, 
 J. Bloino, B. G. Janesko, R. Gomperts, B. Mennucci, H. P. Hratchian, 
 J. V. Ortiz, A. F. Izmaylov, J. L. Sonnenberg, D. Williams-Young, 
 F. Ding, F. Lipparini, F. Egidi, J. Goings, B. Peng, A. Petrone, 
 T. Henderson, D. Ranasinghe, V. G. Zakrzewski, J. Gao, N. Rega, 
 G. Zheng, W. Liang, M. Hada, M. Ehara, K. Toyota, R. Fukuda, 
 J. Hasegawa, M. Ishida, T. Nakajima, Y. Honda, O. Kitao, H. Nakai, 
 T. Vreven, K. Throssell, J. A. Montgomery, Jr., J. E. Peralta, 
 F. Ogliaro, M. J. Bearpark, J. J. Heyd, E. N. Brothers, K. N. Kudin, 
 V. N. Staroverov, T. A. Keith, R. Kobayashi, J. Normand, 
 K. Raghavachari, A. P. Rendell, J. C. Burant, S. S. Iyengar, 
 J. Tomasi, M. Cossi, J. M. Millam, M. Klene, C. Adamo, R. Cammi, 
 J. W. Ochterski, R. L. Martin, K. Morokuma, O. Farkas, 
 J. B. Foresman, and D. J. Fox, Gaussian, Inc., Wallingford CT, 2019.
 
 ******************************************
 Gaussian 16:  AS64L-G16RevC.01  3-Jul-2019
                14-Jun-2021 
 ******************************************
 %nprocshared=4
 Will use up to    4 processors via shared memory.
 %chk=FuncsBVP86-V-3rd.chk
 %Mem=3GB
 -----------------------------------------------------------
 # td= (nstates=6, root=3) BVP86/6-31+G* Opt density=current
 -----------------------------------------------------------
 1/18=20,19=15,26=3,38=1/1,3;
 2/9=110,12=2,17=6,18=5,40=1/2;
 3/5=1,6=6,7=11,11=9,25=1,30=1,71=1,74=418/1,2,3,8;
 4//1;
 5/5=2,38=5/2;
 8/6=1,10=2,107=3,108=6/1;
 9/8=3,15=2,41=6,42=1,70=2/14;
 10/5=4,28=3/2;
 6/7=2,8=2,9=2,10=2,22=-1/1;
 7/12=6,13=5,14=3/1,2,3,16;
 1/18=20,19=15,26=3/3(2);
 2/9=110/2;
 99//99;
 2/9=110/2;
 3/5=1,6=6,7=11,11=9,25=1,30=1,71=1,74=418/1,2,3,8;
 4/5=5,16=3,69=1/1;
 5/5=2,38=5/2;
 8/6=1,10=2,107=3,108=6/1;
 9/8=3,15=2,41=6,42=1,49=4,70=2/14;
 10/5=4,28=3/2;
 7/12=6,13=5,14=3/1,2,3,16;
 1/18=20,19=15,26=3/3(-8);
 2/9=110/2;
 6/7=2,8=2,9=2,10=2,22=-1/1;
 99/9=10/99;
 ----------------
 FuncsBVP86-V-3rd
 ----------------
 Symbolic Z-matrix:
 Charge =  0 Multiplicity = 1
 C                    -2.15106   0.68921   0.00009 
 C                    -2.12793  -0.71582   0.00008 
 C                    -0.9323   -1.4131   -0.00001 
 C                     0.24691  -0.6702   -0.00004 
 C                     0.24819   0.7483    0. 
 C                    -0.97947   1.42353   0.00003 
 N                     1.56177  -1.07759  -0.00029 
 C                     1.62013   1.1629   -0.00016 
 C                     2.38201   0.03081   0.00025 
 H                     1.87632  -2.03001   0.00044 
 H                     1.99217   2.17301  -0.00035 
 H                     3.45255  -0.08243   0.00041 
 H                    -3.06159  -1.26202   0.00009 
 H                    -0.91725  -2.49534  -0.00007 
 H                    -3.1042    1.20079   0.00009 
 H                    -1.00935   2.50542  -0.00002 
 

 GradGradGradGradGradGradGradGradGradGradGradGradGradGradGradGradGradGrad
 Berny optimization.
 Initialization pass.
                           ----------------------------
                           !    Initial Parameters    !
                           ! (Angstroms and Degrees)  !
 --------------------------                            --------------------------
 ! Name  Definition              Value          Derivative Info.                !
 --------------------------------------------------------------------------------
 ! R1    R(1,2)                  1.4052         estimate D2E/DX2                !
 ! R2    R(1,6)                  1.3827         estimate D2E/DX2                !
 ! R3    R(1,15)                 1.0818         estimate D2E/DX2                !
 ! R4    R(2,3)                  1.3841         estimate D2E/DX2                !
 ! R5    R(2,13)                 1.0817         estimate D2E/DX2                !
 ! R6    R(3,4)                  1.3937         estimate D2E/DX2                !
 ! R7    R(3,14)                 1.0823         estimate D2E/DX2                !
 ! R8    R(4,5)                  1.4185         estimate D2E/DX2                !
 ! R9    R(4,7)                  1.3765         estimate D2E/DX2                !
 ! R10   R(5,6)                  1.4011         estimate D2E/DX2                !
 ! R11   R(5,8)                  1.4332         estimate D2E/DX2                !
 ! R12   R(6,16)                 1.0823         estimate D2E/DX2                !
 ! R13   R(7,9)                  1.3789         estimate D2E/DX2                !
 ! R14   R(7,10)                 1.003          estimate D2E/DX2                !
 ! R15   R(8,9)                  1.3646         estimate D2E/DX2                !
 ! R16   R(8,11)                 1.0764         estimate D2E/DX2                !
 ! R17   R(9,12)                 1.0765         estimate D2E/DX2                !
 ! A1    A(2,1,6)              121.1349         estimate D2E/DX2                !
 ! A2    A(2,1,15)             119.1671         estimate D2E/DX2                !
 ! A3    A(6,1,15)             119.698          estimate D2E/DX2                !
 ! A4    A(1,2,3)              121.1938         estimate D2E/DX2                !
 ! A5    A(1,2,13)             119.3846         estimate D2E/DX2                !
 ! A6    A(3,2,13)             119.4217         estimate D2E/DX2                !
 ! A7    A(2,3,4)              117.5387         estimate D2E/DX2                !
 ! A8    A(2,3,14)             121.0469         estimate D2E/DX2                !
 ! A9    A(4,3,14)             121.4144         estimate D2E/DX2                !
 ! A10   A(3,4,5)              122.2626         estimate D2E/DX2                !
 ! A11   A(3,4,7)              130.5743         estimate D2E/DX2                !
 ! A12   A(5,4,7)              107.163          estimate D2E/DX2                !
 ! A13   A(4,5,6)              118.7594         estimate D2E/DX2                !
 ! A14   A(4,5,8)              106.8666         estimate D2E/DX2                !
 ! A15   A(6,5,8)              134.374          estimate D2E/DX2                !
 ! A16   A(1,6,5)              119.1105         estimate D2E/DX2                !
 ! A17   A(1,6,16)             120.4966         estimate D2E/DX2                !
 ! A18   A(5,6,16)             120.3928         estimate D2E/DX2                !
 ! A19   A(4,7,9)              109.2874         estimate D2E/DX2                !
 ! A20   A(4,7,10)             125.4909         estimate D2E/DX2                !
 ! A21   A(9,7,10)             125.2217         estimate D2E/DX2                !
 ! A22   A(5,8,9)              107.125          estimate D2E/DX2                !
 ! A23   A(5,8,11)             127.0344         estimate D2E/DX2                !
 ! A24   A(9,8,11)             125.8405         estimate D2E/DX2                !
 ! A25   A(7,9,8)              109.5578         estimate D2E/DX2                !
 ! A26   A(7,9,12)             120.4645         estimate D2E/DX2                !
 ! A27   A(8,9,12)             129.9776         estimate D2E/DX2                !
 ! D1    D(6,1,2,3)             -0.0008         estimate D2E/DX2                !
 ! D2    D(6,1,2,13)          -179.9981         estimate D2E/DX2                !
 ! D3    D(15,1,2,3)           179.996          estimate D2E/DX2                !
 ! D4    D(15,1,2,13)           -0.0013         estimate D2E/DX2                !
 ! D5    D(2,1,6,5)             -0.0018         estimate D2E/DX2                !
 ! D6    D(2,1,6,16)           179.9965         estimate D2E/DX2                !
 ! D7    D(15,1,6,5)          -179.9986         estimate D2E/DX2                !
 ! D8    D(15,1,6,16)           -0.0003         estimate D2E/DX2                !
 ! D9    D(1,2,3,4)              0.002          estimate D2E/DX2                !
 ! D10   D(1,2,3,14)          -179.9968         estimate D2E/DX2                !
 ! D11   D(13,2,3,4)           179.9992         estimate D2E/DX2                !
 ! D12   D(13,2,3,14)            0.0005         estimate D2E/DX2                !
 ! D13   D(2,3,4,5)             -0.0005         estimate D2E/DX2                !
 ! D14   D(2,3,4,7)           -179.9911         estimate D2E/DX2                !
 ! D15   D(14,3,4,5)           179.9982         estimate D2E/DX2                !
 ! D16   D(14,3,4,7)             0.0076         estimate D2E/DX2                !
 ! D17   D(3,4,5,6)             -0.002          estimate D2E/DX2                !
 ! D18   D(3,4,5,8)           -179.9955         estimate D2E/DX2                !
 ! D19   D(7,4,5,6)            179.9905         estimate D2E/DX2                !
 ! D20   D(7,4,5,8)             -0.003          estimate D2E/DX2                !
 ! D21   D(3,4,7,9)           -179.98           estimate D2E/DX2                !
 ! D22   D(3,4,7,10)            -0.0649         estimate D2E/DX2                !
 ! D23   D(5,4,7,9)              0.0284         estimate D2E/DX2                !
 ! D24   D(5,4,7,10)           179.9434         estimate D2E/DX2                !
 ! D25   D(4,5,6,1)              0.0031         estimate D2E/DX2                !
 ! D26   D(4,5,6,16)          -179.9951         estimate D2E/DX2                !
 ! D27   D(8,5,6,1)            179.9944         estimate D2E/DX2                !
 ! D28   D(8,5,6,16)            -0.0038         estimate D2E/DX2                !
 ! D29   D(4,5,8,9)             -0.0234         estimate D2E/DX2                !
 ! D30   D(4,5,8,11)           179.9883         estimate D2E/DX2                !
 ! D31   D(6,5,8,9)            179.9846         estimate D2E/DX2                !
 ! D32   D(6,5,8,11)            -0.0037         estimate D2E/DX2                !
 ! D33   D(4,7,9,8)             -0.0444         estimate D2E/DX2                !
 ! D34   D(4,7,9,12)           179.9847         estimate D2E/DX2                !
 ! D35   D(10,7,9,8)          -179.9597         estimate D2E/DX2                !
 ! D36   D(10,7,9,12)            0.0693         estimate D2E/DX2                !
 ! D37   D(5,8,9,7)              0.0414         estimate D2E/DX2                !
 ! D38   D(5,8,9,12)          -179.9913         estimate D2E/DX2                !
 ! D39   D(11,8,9,7)          -179.9702         estimate D2E/DX2                !
 ! D40   D(11,8,9,12)           -0.0029         estimate D2E/DX2                !
 --------------------------------------------------------------------------------
 Trust Radius=3.00D-01 FncErr=1.00D-07 GrdErr=1.00D-06 EigMax=2.50D+02 EigMin=1.00D-04
 Number of steps in this run=     94 maximum allowed number of steps=    100.
 GradGradGradGradGradGradGradGradGradGradGradGradGradGradGradGradGradGrad

                          Input orientation:                          
 ---------------------------------------------------------------------
 Center     Atomic      Atomic             Coordinates (Angstroms)
 Number     Number       Type             X           Y           Z
 ---------------------------------------------------------------------
      1          6           0       -2.151063    0.689208    0.000088
      2          6           0       -2.127927   -0.715818    0.000075
      3          6           0       -0.932297   -1.413100   -0.000011
      4          6           0        0.246911   -0.670201   -0.000042
      5          6           0        0.248193    0.748299    0.000000
      6          6           0       -0.979474    1.423526    0.000032
      7          7           0        1.561774   -1.077592   -0.000285
      8          6           0        1.620133    1.162900   -0.000157
      9          6           0        2.382013    0.030806    0.000248
     10          1           0        1.876315   -2.030011    0.000438
     11          1           0        1.992173    2.173010   -0.000348
     12          1           0        3.452549   -0.082425    0.000408
     13          1           0       -3.061594   -1.262020    0.000088
     14          1           0       -0.917252   -2.495342   -0.000073
     15          1           0       -3.104203    1.200785    0.000090
     16          1           0       -1.009348    2.505421   -0.000015
 ---------------------------------------------------------------------
                    Distance matrix (angstroms):
                    1          2          3          4          5
     1  C    0.000000
     2  C    1.405216   0.000000
     3  C    2.430039   1.384100   0.000000
     4  C    2.756496   2.375276   1.393711   0.000000
     5  C    2.399984   2.790983   2.462763   1.418501   0.000000
     6  C    1.382694   2.428114   2.837018   2.426461   1.401106
     7  N    4.111781   3.707395   2.516536   1.376529   2.249305
     8  C    3.800829   4.192557   3.626386   2.290414   1.433218
     9  C    4.580641   4.571324   3.615178   2.247236   2.251218
    10  H    4.859416   4.214387   2.875566   2.122273   3.220216
    11  H    4.400917   5.031953   4.627387   3.336134   2.251948
    12  H    5.656491   5.616307   4.582311   3.259079   3.310287
    13  H    2.153220   1.081698   2.134650   3.361020   3.872476
    14  H    3.415208   2.152310   1.082347   2.164813   3.446661
    15  H    1.081752   2.150926   3.398466   3.838040   3.382795
    16  H    2.145261   3.409927   3.919278   3.415079   2.160761
                    6          7          8          9         10
     6  C    0.000000
     7  N    3.565604   0.000000
     8  C    2.612639   2.241252   0.000000
     9  C    3.638580   1.378890   1.364587   0.000000
    10  H    4.481345   1.003015   3.203172   2.121956   0.000000
    11  H    3.064704   3.278972   1.076446   2.177387   4.204618
    12  H    4.680888   2.136677   2.215532   1.076508   2.505515
    13  H    3.398144   4.627045   5.272457   5.595021   4.997275
    14  H    3.919362   2.855798   4.452085   4.155307   2.832058
    15  H    2.136372   5.192528   4.724488   5.609583   5.936632
    16  H    1.082307   4.410062   2.952378   4.198220   5.375611
                   11         12         13         14         15
    11  H    0.000000
    12  H    2.686947   0.000000
    13  H    6.110646   6.620083   0.000000
    14  H    5.500751   4.991726   2.473719   0.000000
    15  H    5.188282   6.681139   2.463174   4.294661   0.000000
    16  H    3.019872   5.158049   4.290143   5.001611   2.467892
                   16
    16  H    0.000000
 Stoichiometry    C8H7N
 Framework group  C1[X(C8H7N)]
 Deg. of freedom    42
 Full point group                 C1      NOp   1
 Largest Abelian subgroup         C1      NOp   1
 Largest concise Abelian subgroup C1      NOp   1
                         Standard orientation:                         
 ---------------------------------------------------------------------
 Center     Atomic      Atomic             Coordinates (Angstroms)
 Number     Number       Type             X           Y           Z
 ---------------------------------------------------------------------
      1          6           0       -2.151063    0.689208    0.000088
      2          6           0       -2.127927   -0.715818    0.000075
      3          6           0       -0.932297   -1.413100   -0.000011
      4          6           0        0.246911   -0.670201   -0.000042
      5          6           0        0.248193    0.748299    0.000000
      6          6           0       -0.979474    1.423526    0.000032
      7          7           0        1.561774   -1.077592   -0.000285
      8          6           0        1.620133    1.162900   -0.000157
      9          6           0        2.382013    0.030806    0.000248
     10          1           0        1.876315   -2.030011    0.000438
     11          1           0        1.992173    2.173010   -0.000348
     12          1           0        3.452549   -0.082425    0.000408
     13          1           0       -3.061594   -1.262020    0.000088
     14          1           0       -0.917252   -2.495342   -0.000073
     15          1           0       -3.104203    1.200785    0.000090
     16          1           0       -1.009348    2.505421   -0.000015
 ---------------------------------------------------------------------
 Rotational constants (GHZ):           3.9080822           1.6429452           1.1566805
 Standard basis: 6-31+G(d) (6D, 7F)
 There are   185 symmetry adapted cartesian basis functions of A   symmetry.
 There are   185 symmetry adapted basis functions of A   symmetry.
   185 basis functions,   316 primitive gaussians,   185 cartesian basis functions
    31 alpha electrons       31 beta electrons
       nuclear repulsion energy       401.3368668897 Hartrees.
 NAtoms=   16 NActive=   16 NUniq=   16 SFac= 1.00D+00 NAtFMM=   60 NAOKFM=F Big=F
 Integral buffers will be    131072 words long.
 Regular integral format.
 Two-electron integral symmetry is turned on.
 One-electron integrals computed using PRISM.
 NBasis=   185 RedAO= T EigKep=  1.26D-06  NBF=   185
 NBsUse=   185 1.00D-06 EigRej= -1.00D+00 NBFU=   185
 ExpMin= 4.38D-02 ExpMax= 4.17D+03 ExpMxC= 6.27D+02 IAcc=3 IRadAn=         5 AccDes= 0.00D+00
 Harris functional with IExCor=  418 and IRadAn=       5 diagonalized for initial guess.
 HarFok:  IExCor=  418 AccDes= 0.00D+00 IRadAn=         5 IDoV= 1 UseB2=F ITyADJ=14
 ICtDFT=  3500011 ScaDFX=  1.000000  1.000000  1.000000  1.000000
 FoFCou: FMM=F IPFlag=           0 FMFlag=      100000 FMFlg1=           0
         NFxFlg=           0 DoJE=T BraDBF=F KetDBF=T FulRan=T
         wScrn=  0.000000 ICntrl=       500 IOpCl=  0 I1Cent=   200000004 NGrid=           0
         NMat0=    1 NMatS0=      1 NMatT0=    0 NMatD0=    1 NMtDS0=    0 NMtDT0=    0
 Petite list used in FoFCou.
 Keep J ints in memory in canonical form, NReq=152071459.
 Requested convergence on RMS density matrix=1.00D-08 within 128 cycles.
 Requested convergence on MAX density matrix=1.00D-06.
 Requested convergence on             energy=1.00D-06.
 No special actions if energy rises.
 SCF Done:  E(RB-VP86) =  -363.845290966     A.U. after   16 cycles
            NFock= 16  Conv=0.22D-08     -V/T= 2.0097
 DoSCS=F DFT=T ScalE2(SS,OS)=  1.000000  1.000000
 ExpMin= 4.38D-02 ExpMax= 4.17D+03 ExpMxC= 6.27D+02 IAcc=3 IRadAn=         5 AccDes= 0.00D+00
 HarFok:  IExCor=  205 AccDes= 0.00D+00 IRadAn=         5 IDoV=-2 UseB2=F ITyADJ=14
 ICtDFT= 12500011 ScaDFX=  1.000000  1.000000  1.000000  1.000000
 Range of M.O.s used for correlation:    10   185
 NBasis=   185 NAE=    31 NBE=    31 NFC=     9 NFV=     0
 NROrb=    176 NOA=    22 NOB=    22 NVA=   154 NVB=   154

 **** Warning!!: The largest alpha MO coefficient is  0.20620285D+03

 Keep J ints in memory in canonical form, NReq=168659827.
 Orbital symmetries:
       Occupied  (A) (A) (A) (A) (A) (A) (A) (A) (A) (A) (A) (A)
                 (A) (A) (A) (A) (A) (A) (A) (A) (A) (A) (A) (A)
                 (A) (A) (A) (A) (A) (A) (A)
       Virtual   (A) (A) (A) (A) (A) (A) (A) (A) (A) (A) (A) (A)
                 (A) (A) (A) (A) (A) (A) (A) (A) (A) (A) (A) (A)
                 (A) (A) (A) (A) (A) (A) (A) (A) (A) (A) (A) (A)
                 (A) (A) (A) (A) (A) (A) (A) (A) (A) (A) (A) (A)
                 (A) (A) (A) (A) (A) (A) (A) (A) (A) (A) (A) (A)
                 (A) (A) (A) (A) (A) (A) (A) (A) (A) (A) (A) (A)
                 (A) (A) (A) (A) (A) (A) (A) (A) (A) (A) (A) (A)
                 (A) (A) (A) (A) (A) (A) (A) (A) (A) (A) (A) (A)
                 (A) (A) (A) (A) (A) (A) (A) (A) (A) (A) (A) (A)
                 (A) (A) (A) (A) (A) (A) (A) (A) (A) (A) (A) (A)
                 (A) (A) (A) (A) (A) (A) (A) (A) (A) (A) (A) (A)
                 (A) (A) (A) (A) (A) (A) (A) (A) (A) (A) (A) (A)
                 (A) (A) (A) (A) (A) (A) (A) (A) (A) (A)
    24 initial guesses have been made.
 Convergence on wavefunction:    0.000001000000000
 Iteration     1 Dimension    24 NMult     0 NNew     24
 CISAX will form    24 AO SS matrices at one time.
 New state      2 was old state      4
 New state      3 was old state      2
 New state      4 was old state      6
 New state      5 was old state      7
 New state      6 was old state      8
 Iteration     2 Dimension    48 NMult    24 NNew     24
 New state      2 was old state      3
 New state      3 was old state      2
 Iteration     3 Dimension    54 NMult    48 NNew      6
 Iteration     4 Dimension    60 NMult    54 NNew      6
 Iteration     5 Dimension    66 NMult    60 NNew      6
 Iteration     6 Dimension    72 NMult    66 NNew      6
 Iteration     7 Dimension    78 NMult    72 NNew      6
 Iteration     8 Dimension    84 NMult    78 NNew      6
 Iteration     9 Dimension    90 NMult    84 NNew      6
 Iteration    10 Dimension    96 NMult    90 NNew      6
 Iteration    11 Dimension   102 NMult    96 NNew      6
 Iteration    12 Dimension   108 NMult   102 NNew      6
 Iteration    13 Dimension   114 NMult   108 NNew      6
 Iteration    14 Dimension   120 NMult   114 NNew      6
 Iteration    15 Dimension   126 NMult   120 NNew      6
 Iteration    16 Dimension   132 NMult   126 NNew      6
 Iteration    17 Dimension   134 NMult   132 NNew      2
 Iteration    18 Dimension   136 NMult   134 NNew      2
 Iteration    19 Dimension   138 NMult   136 NNew      2
 Iteration    20 Dimension   139 NMult   138 NNew      1
 Iteration    21 Dimension   140 NMult   139 NNew      1
 ***********************************************************************
 Excited states from <AA,BB:AA,BB> singles matrix:
 ***********************************************************************
 
 Ground to excited state transition densities written to RWF  633
 Ground to excited state transition electric dipole moments (Au):
       state          X           Y           Z        Dip. S.      Osc.
         1        -0.4651      0.5359     -0.0001      0.5035      0.0550
         2        -0.3909     -0.1204     -0.0001      0.1673      0.0193
         3         0.0007     -0.0003     -0.1086      0.0118      0.0014
         4        -0.0004      0.0002     -0.1325      0.0176      0.0023
         5         0.0005     -0.0000      0.0108      0.0001      0.0000
         6         0.0009      0.0002      0.0963      0.0093      0.0013
 Ground to excited state transition velocity dipole moments (Au):
       state          X           Y           Z        Dip. S.      Osc.
         1         0.0679     -0.0962      0.0000      0.0139      0.0564
         2         0.0634      0.0218      0.0000      0.0045      0.0173
         3        -0.0001      0.0001      0.0109      0.0001      0.0004
         4         0.0001     -0.0000      0.0261      0.0007      0.0023
         5        -0.0001      0.0000     -0.0007      0.0000      0.0000
         6        -0.0002     -0.0000     -0.0197      0.0004      0.0013
 Ground to excited state transition magnetic dipole moments (Au):
       state          X           Y           Z
         1         0.0002     -0.0000      0.1981
         2        -0.0000     -0.0002      0.0105
         3         0.1132     -0.0476      0.0001
         4         0.0098     -0.1836      0.0000
         5         0.2763     -0.0979      0.0002
         6         0.0527      0.3278      0.0006
 Ground to excited state transition velocity quadrupole moments (Au):
       state          XX          YY          ZZ          XY          XZ          YZ
         1         0.1464     -0.0884      0.0077      0.0602      0.0001      0.0001
         2         0.0521     -0.0860      0.0224      0.0112      0.0001     -0.0000
         3        -0.0002      0.0001      0.0001      0.0001      0.0422      0.0507
         4        -0.0001      0.0001     -0.0000     -0.0000      0.1174     -0.0439
         5        -0.0002     -0.0001      0.0000      0.0002      0.1174      0.2106
         6         0.0000     -0.0001      0.0000      0.0003     -0.2899     -0.0178
 <0|del|b> * <b|rxdel|0> + <0|del|b> * <b|delr+rdel|0>
 Rotatory Strengths (R) in cgs (10**-40 erg-esu-cm/Gauss)
       state          XX          YY          ZZ    R(velocity)    E-M Angle
         1         0.0232      0.0448      0.0133      0.0271       90.00
         2        -0.0118     -0.0062     -0.0048     -0.0076       90.00
         3        -0.0061     -0.0314     -0.0133     -0.0169       90.00
         4         0.0179     -0.0029      0.0126      0.0092       90.00
         5        -0.0038     -0.0791     -0.0104     -0.0311       90.00
         6        -0.0654     -0.0213     -0.0235     -0.0367       90.00
 1/2[<0|r|b>*<b|rxdel|0> + (<0|rxdel|b>*<b|r|0>)*]
 Rotatory Strengths (R) in cgs (10**-40 erg-esu-cm/Gauss)
       state          XX          YY          ZZ     R(length)
         1         0.0757      0.0034      0.0152      0.0314
         2        -0.0075     -0.0158      0.0010     -0.0074
         3        -0.0532     -0.0096      0.0110     -0.0172
         4         0.0030      0.0209      0.0033      0.0090
         5        -0.0949     -0.0026     -0.0019     -0.0331
         6        -0.0330     -0.0497     -0.0412     -0.0413
  1/2[<0|del|b>*<b|r|0> + (<0|r|b>*<b|del|0>)*] (Au)
       state          X           Y           Z        Dip. S.   Osc.(frdel)
         1        -0.0316     -0.0515     -0.0000      0.0831      0.0554
         2        -0.0248     -0.0026     -0.0000      0.0274      0.0183
         3        -0.0000     -0.0000     -0.0012      0.0012      0.0008
         4        -0.0000     -0.0000     -0.0035      0.0035      0.0023
         5        -0.0000     -0.0000     -0.0000      0.0000      0.0000
         6        -0.0000     -0.0000     -0.0019      0.0019      0.0013

 Excitation energies and oscillator strengths:
 
 Excited State   1:      Singlet-A      4.4566 eV  278.20 nm  f=0.0550  <S**2>=0.000
      29 -> 32         0.13496
      30 -> 33         0.12102
      31 -> 32         0.66148
 
 Excited State   2:      Singlet-A      4.7050 eV  263.51 nm  f=0.0193  <S**2>=0.000
      30 -> 32         0.55077
      31 -> 33        -0.43625
 
 Excited State   3:      Singlet-A      4.8470 eV  255.80 nm  f=0.0014  <S**2>=0.000
      31 -> 34         0.70681
 This state for optimization and/or second-order correction.
 Total Energy, E(TD-HF/TD-DFT) =  -363.667166957    
 Copying the excited state density for this state as the 1-particle RhoCI density.
 
 Excited State   4:      Singlet-A      5.2949 eV  234.16 nm  f=0.0023  <S**2>=0.000
      30 -> 34         0.70648
 
 Excited State   5:      Singlet-A      5.3526 eV  231.63 nm  f=0.0000  <S**2>=0.000
      31 -> 35         0.70639
 
 Excited State   6:      Singlet-A      5.5532 eV  223.26 nm  f=0.0013  <S**2>=0.000
      31 -> 36         0.70664
 SavETr:  write IOETrn=   770 NScale= 10 NData=  16 NLR=1 NState=    6 LETran=     118.
          IDoAtm=1111111111111111
          Differentiating once with respect to electric field.
                with respect to dipole field.
          Differentiating once with respect to nuclear coordinates.
 Keep J ints in memory in canonical form, NReq=152083851.
          There are     1 degrees of freedom in the 1st order CPHF.  IDoFFX=0 NUNeed=     1.
 LinEq1:  Iter=  0 NonCon=     1 RMS=1.63D-02 Max=5.79D-01 NDo=     1
 AX will form     1 AO Fock derivatives at one time.
 LinEq1:  Iter=  1 NonCon=     1 RMS=1.22D-02 Max=3.37D-01 NDo=     1
 LinEq1:  Iter=  2 NonCon=     1 RMS=8.17D-03 Max=1.60D-01 NDo=     1
 LinEq1:  Iter=  3 NonCon=     1 RMS=5.93D-03 Max=1.75D-01 NDo=     1
 LinEq1:  Iter=  4 NonCon=     1 RMS=5.00D-03 Max=9.00D-02 NDo=     1
 LinEq1:  Iter=  5 NonCon=     1 RMS=2.55D-03 Max=6.25D-02 NDo=     1
 LinEq1:  Iter=  6 NonCon=     1 RMS=1.63D-03 Max=3.53D-02 NDo=     1
 LinEq1:  Iter=  7 NonCon=     1 RMS=1.32D-03 Max=3.17D-02 NDo=     1
 LinEq1:  Iter=  8 NonCon=     1 RMS=6.48D-04 Max=6.39D-03 NDo=     1
 LinEq1:  Iter=  9 NonCon=     1 RMS=2.50D-04 Max=6.86D-03 NDo=     1
 LinEq1:  Iter= 10 NonCon=     1 RMS=2.24D-04 Max=5.21D-03 NDo=     1
 LinEq1:  Iter= 11 NonCon=     1 RMS=7.84D-05 Max=1.22D-03 NDo=     1
 LinEq1:  Iter= 12 NonCon=     1 RMS=6.06D-05 Max=1.10D-03 NDo=     1
 LinEq1:  Iter= 13 NonCon=     1 RMS=1.74D-05 Max=2.65D-04 NDo=     1
 LinEq1:  Iter= 14 NonCon=     1 RMS=8.22D-06 Max=1.83D-04 NDo=     1
 LinEq1:  Iter= 15 NonCon=     1 RMS=4.53D-06 Max=5.42D-05 NDo=     1
 LinEq1:  Iter= 16 NonCon=     1 RMS=1.06D-06 Max=1.42D-05 NDo=     1
 LinEq1:  Iter= 17 NonCon=     1 RMS=3.56D-07 Max=6.93D-06 NDo=     1
 LinEq1:  Iter= 18 NonCon=     1 RMS=2.72D-07 Max=4.11D-06 NDo=     1
 LinEq1:  Iter= 19 NonCon=     1 RMS=5.62D-08 Max=6.47D-07 NDo=     1
 LinEq1:  Iter= 20 NonCon=     1 RMS=1.22D-08 Max=1.34D-07 NDo=     1
 LinEq1:  Iter= 21 NonCon=     1 RMS=4.73D-09 Max=5.09D-08 NDo=     1
 LinEq1:  Iter= 22 NonCon=     1 RMS=1.00D-09 Max=1.72D-08 NDo=     1
 LinEq1:  Iter= 23 NonCon=     1 RMS=2.16D-10 Max=3.59D-09 NDo=     1
 LinEq1:  Iter= 24 NonCon=     0 RMS=3.84D-11 Max=4.73D-10 NDo=     1
 Linear equations converged to 1.000D-10 1.000D-09 after    24 iterations.
 End of Minotr F.D. properties file   721 does not exist.
 End of Minotr F.D. properties file   722 does not exist.
 End of Minotr F.D. properties file   788 does not exist.

 **********************************************************************

            Population analysis using the CI Density.

 **********************************************************************

 Orbital symmetries:
       Occupied  (A) (A) (A) (A) (A) (A) (A) (A) (A) (A) (A) (A)
                 (A) (A) (A) (A) (A) (A) (A) (A) (A) (A) (A) (A)
                 (A) (A) (A) (A) (A) (A) (A)
       Virtual   (A) (A) (A) (A) (A) (A) (A) (A) (A) (A) (A) (A)
                 (A) (A) (A) (A) (A) (A) (A) (A) (A) (A) (A) (A)
                 (A) (A) (A) (A) (A) (A) (A) (A) (A) (A) (A) (A)
                 (A) (A) (A) (A) (A) (A) (A) (A) (A) (A) (A) (A)
                 (A) (A) (A) (A) (A) (A) (A) (A) (A) (A) (A) (A)
                 (A) (A) (A) (A) (A) (A) (A) (A) (A) (A) (A) (A)
                 (A) (A) (A) (A) (A) (A) (A) (A) (A) (A) (A) (A)
                 (A) (A) (A) (A) (A) (A) (A) (A) (A) (A) (A) (A)
                 (A) (A) (A) (A) (A) (A) (A) (A) (A) (A) (A) (A)
                 (A) (A) (A) (A) (A) (A) (A) (A) (A) (A) (A) (A)
                 (A) (A) (A) (A) (A) (A) (A) (A) (A) (A) (A) (A)
                 (A) (A) (A) (A) (A) (A) (A) (A) (A) (A) (A) (A)
                 (A) (A) (A) (A) (A) (A) (A) (A) (A) (A)
 The electronic state is 1-A.
 Alpha  occ. eigenvalues --  -14.07390  -9.94898  -9.94724  -9.91821  -9.91413
 Alpha  occ. eigenvalues --   -9.91227  -9.91214  -9.90785  -9.90637  -0.90790
 Alpha  occ. eigenvalues --   -0.76920  -0.71683  -0.67178  -0.65430  -0.57084
 Alpha  occ. eigenvalues --   -0.54336  -0.52976  -0.49254  -0.43806  -0.42588
 Alpha  occ. eigenvalues --   -0.39554  -0.38652  -0.38191  -0.36894  -0.35143
 Alpha  occ. eigenvalues --   -0.31574  -0.30122  -0.29706  -0.25151  -0.20312
 Alpha  occ. eigenvalues --   -0.18638
 Alpha virt. eigenvalues --   -0.04424  -0.01027  -0.00793   0.01081   0.01855
 Alpha virt. eigenvalues --    0.01959   0.03278   0.03486   0.05210   0.05703
 Alpha virt. eigenvalues --    0.05971   0.06334   0.08087   0.08426   0.09996
 Alpha virt. eigenvalues --    0.10356   0.10568   0.11910   0.12954   0.12956
 Alpha virt. eigenvalues --    0.14307   0.14534   0.15156   0.15661   0.15853
 Alpha virt. eigenvalues --    0.16177   0.17151   0.17671   0.18078   0.18503
 Alpha virt. eigenvalues --    0.18894   0.19173   0.20367   0.20690   0.21516
 Alpha virt. eigenvalues --    0.22097   0.22727   0.22734   0.23762   0.24315
 Alpha virt. eigenvalues --    0.25575   0.26140   0.26430   0.27311   0.27721
 Alpha virt. eigenvalues --    0.28494   0.29782   0.30906   0.32761   0.33673
 Alpha virt. eigenvalues --    0.34507   0.36962   0.38863   0.41466   0.47325
 Alpha virt. eigenvalues --    0.53392   0.57489   0.62720   0.63621   0.65124
 Alpha virt. eigenvalues --    0.67066   0.67344   0.68311   0.68797   0.69221
 Alpha virt. eigenvalues --    0.70352   0.70634   0.72730   0.74144   0.74841
 Alpha virt. eigenvalues --    0.76682   0.80201   0.84103   0.84798   0.85910
 Alpha virt. eigenvalues --    0.88363   0.88923   0.90102   0.90388   0.93116
 Alpha virt. eigenvalues --    0.94694   0.97912   0.99823   1.01130   1.04799
 Alpha virt. eigenvalues --    1.06432   1.06550   1.12056   1.12834   1.15352
 Alpha virt. eigenvalues --    1.17598   1.17621   1.19852   1.25959   1.26074
 Alpha virt. eigenvalues --    1.27987   1.31286   1.35096   1.36156   1.39235
 Alpha virt. eigenvalues --    1.39525   1.40349   1.43295   1.43809   1.48083
 Alpha virt. eigenvalues --    1.52798   1.58884   1.72092   1.77513   1.81185
 Alpha virt. eigenvalues --    1.82274   1.84996   1.87658   1.92063   1.92452
 Alpha virt. eigenvalues --    1.93410   1.98847   2.02445   2.06879   2.09710
 Alpha virt. eigenvalues --    2.10117   2.12361   2.17436   2.18681   2.19169
 Alpha virt. eigenvalues --    2.21395   2.24091   2.30557   2.33292   2.37170
 Alpha virt. eigenvalues --    2.47170   2.48055   2.56069   2.58229   2.59204
 Alpha virt. eigenvalues --    2.61930   2.65567   2.72930   2.76803   2.77600
 Alpha virt. eigenvalues --    2.87543   2.90153   3.02769   3.15691   3.36211
 Alpha virt. eigenvalues --    4.05249   4.16548   4.19560   4.23034   4.26583
 Alpha virt. eigenvalues --    4.30125   4.38503   4.42419   4.69358
          Condensed to atoms (all electrons):
               1          2          3          4          5          6
     1  C   28.569060   8.186860  -3.431633 -21.858969 -10.920963 -16.592338
     2  C    8.186860  28.251901   7.427673 -31.477290  13.459940 -33.423078
     3  C   -3.431633   7.427673  22.759778  -8.699059   4.305001 -17.482904
     4  C  -21.858969 -31.477290  -8.699059 122.653483 -30.825372  47.770178
     5  C  -10.920963  13.459940   4.305001 -30.825372 103.978329 -38.510077
     6  C  -16.592338 -33.423078 -17.482904  47.770178 -38.510077  79.467567
     7  N   -0.060254  -0.139911   1.773354   4.986907  -5.424783   1.007390
     8  C   33.786343  21.951008  -5.531353-136.665029 -53.879473 -20.761585
     9  C  -12.012809  -7.922812   4.953522  61.015155  21.836134   4.600910
    10  H   -0.008336  -0.070978  -0.708163  -0.359601   1.233907   0.052499
    11  H    0.015807   0.002767   0.000788  -0.006752  -0.100835  -0.020930
    12  H    0.004570   0.005732  -0.035013  -0.037109  -0.035297   0.027801
    13  H    0.046933   0.224511  -0.046540   0.071391  -0.068669   0.076685
    14  H    0.008157  -0.052260   0.158047  -0.005641   0.192335   0.001039
    15  H    0.336260   0.208774   0.068554  -0.146826   0.133120  -0.351455
    16  H   -0.016665  -0.033817  -0.030622   0.057778   0.086399   0.343165
               7          8          9         10         11         12
     1  C   -0.060254  33.786343 -12.012809  -0.008336   0.015807   0.004570
     2  C   -0.139911  21.951008  -7.922812  -0.070978   0.002767   0.005732
     3  C    1.773354  -5.531353   4.953522  -0.708163   0.000788  -0.035013
     4  C    4.986907-136.665029  61.015155  -0.359601  -0.006752  -0.037109
     5  C   -5.424783 -53.879473  21.836134   1.233907  -0.100835  -0.035297
     6  C    1.007390 -20.761585   4.600910   0.052499  -0.020930   0.027801
     7  N   12.325821 -19.304098  12.199705  -0.865082   0.007674  -0.071180
     8  C  -19.304098 365.900582-178.366746   2.528521   0.532617   0.434997
     9  C   12.199705-178.366746  98.939433  -1.699578  -0.136719   0.018928
    10  H   -0.865082   2.528521  -1.699578   0.595403  -0.000005   0.003211
    11  H    0.007674   0.532617  -0.136719  -0.000005   0.472445  -0.001263
    12  H   -0.071180   0.434997   0.018928   0.003211  -0.001263   0.434861
    13  H    0.000801  -0.015972   0.007171  -0.000015   0.000000  -0.000000
    14  H   -0.008753  -0.008035   0.009840   0.002584   0.000002   0.000004
    15  H   -0.000190   0.066900  -0.016332   0.000001  -0.000002  -0.000000
    16  H   -0.001000  -0.173674   0.045145   0.000001   0.001569  -0.000003
              13         14         15         16
     1  C    0.046933   0.008157   0.336260  -0.016665
     2  C    0.224511  -0.052260   0.208774  -0.033817
     3  C   -0.046540   0.158047   0.068554  -0.030622
     4  C    0.071391  -0.005641  -0.146826   0.057778
     5  C   -0.068669   0.192335   0.133120   0.086399
     6  C    0.076685   0.001039  -0.351455   0.343165
     7  N    0.000801  -0.008753  -0.000190  -0.001000
     8  C   -0.015972  -0.008035   0.066900  -0.173674
     9  C    0.007171   0.009840  -0.016332   0.045145
    10  H   -0.000015   0.002584   0.000001   0.000001
    11  H    0.000000   0.000002  -0.000002   0.001569
    12  H   -0.000000   0.000004  -0.000000  -0.000003
    13  H    0.495627  -0.004843  -0.005061  -0.000145
    14  H   -0.004843   0.463518  -0.000130   0.000017
    15  H   -0.005061  -0.000130   0.506604  -0.004970
    16  H   -0.000145   0.000017  -0.004970   0.509419
 Mulliken charges:
               1
     1  C   -0.052024
     2  C   -0.599019
     3  C    0.518569
     4  C   -0.473243
     5  C    0.540304
     6  C   -0.204865
     7  N    0.573598
     8  C   -4.495003
     9  C    2.529054
    10  H    0.295633
    11  H    0.232835
    12  H    0.249761
    13  H    0.218126
    14  H    0.244119
    15  H    0.204753
    16  H    0.217403
 Sum of Mulliken charges =   0.00000
 Mulliken charges with hydrogens summed into heavy atoms:
               1
     1  C    0.152728
     2  C   -0.380893
     3  C    0.762688
     4  C   -0.473243
     5  C    0.540304
     6  C    0.012538
     7  N    0.869231
     8  C   -4.262168
     9  C    2.778815
 Electronic spatial extent (au):  <R**2>=           1039.3172
 Charge=              0.0000 electrons
 Dipole moment (field-independent basis, Debye):
    X=             -6.1299    Y=              6.6275    Z=             -0.0012  Tot=              9.0277
 Quadrupole moment (field-independent basis, Debye-Ang):
   XX=            -64.9373   YY=            -65.8883   ZZ=            -63.7040
   XY=             16.0768   XZ=             -0.0054   YZ=              0.0022
 Traceless Quadrupole moment (field-independent basis, Debye-Ang):
   XX=             -0.0941   YY=             -1.0451   ZZ=              1.1392
   XY=             16.0768   XZ=             -0.0054   YZ=              0.0022
 Octapole moment (field-independent basis, Debye-Ang**2):
  XXX=           -115.3441  YYY=             81.2596  ZZZ=             -0.0113  XYY=            -47.1665
  XXY=             52.6395  XXZ=             -0.0210  XZZ=            -16.7621  YZZ=             17.5540
  YYZ=             -0.0067  XYZ=              0.0097
 Hexadecapole moment (field-independent basis, Debye-Ang**3):
 XXXX=          -1359.5095 YYYY=           -716.9166 ZZZZ=           -123.1065 XXXY=            212.4969
 XXXZ=             -0.0882 YYYX=            143.3291 YYYZ=              0.0189 ZZZX=             -0.0315
 ZZZY=              0.0183 XXYY=           -356.2378 XXZZ=           -243.2655 YYZZ=           -147.1459
 XXYZ=              0.0303 YYXZ=             -0.0348 ZZXY=             34.7309
 N-N= 4.013368668897D+02 E-N=-1.641617034102D+03  KE= 3.603339723259D+02
 Calling FoFJK, ICntrl=  10005527 FMM=F ISym2X=0 I1Cent= 0 IOpClX= 0 NMat=1 NMatS=1 NMatT=0.
 ***** Axes restored to original set *****
 -------------------------------------------------------------------
 Center     Atomic                   Forces (Hartrees/Bohr)
 Number     Number              X              Y              Z
 -------------------------------------------------------------------
      1        6          -0.016444346   -0.013894625    0.000002120
      2        6          -0.018249443    0.021972905   -0.000000684
      3        6           0.025939467   -0.009413424   -0.000008393
      4        6          -0.005325117   -0.002745523    0.000001916
      5        6           0.007053897    0.002134669   -0.000036680
      6        6           0.008752360    0.012561957   -0.000011016
      7        7           0.014564369    0.067250845    0.000065673
      8        6          -0.036290746    0.026231231    0.000038741
      9        6          -0.002793521   -0.062411872   -0.000085005
     10        1           0.019443171   -0.047695601    0.000012613
     11        1           0.003862757    0.010453095    0.000003761
     12        1           0.012740110   -0.005400213    0.000007832
     13        1          -0.007504071   -0.004358447    0.000001026
     14        1           0.002481166   -0.007682037    0.000000568
     15        1          -0.007836488    0.004347923    0.000003644
     16        1          -0.000393566    0.008649120    0.000003883
 -------------------------------------------------------------------
 Cartesian Forces:  Max     0.067250845 RMS     0.018412341

 GradGradGradGradGradGradGradGradGradGradGradGradGradGradGradGradGradGrad
 Berny optimization.
 FormGI is forming the generalized inverse of G from B-inverse, IUseBI=4.
 Internal  Forces:  Max     0.051387146 RMS     0.010605251
 Search for a local minimum.
 Step number   1 out of a maximum of   94
 All quantities printed in internal units (Hartrees-Bohrs-Radians)
 Mixed Optimization -- RFO/linear search
 Second derivative matrix not updated -- first step.
 ITU=  0
     Eigenvalues ---    0.01853   0.01931   0.01986   0.02012   0.02070
     Eigenvalues ---    0.02113   0.02148   0.02153   0.02172   0.02209
     Eigenvalues ---    0.02233   0.02248   0.02338   0.16000   0.16000
     Eigenvalues ---    0.16000   0.16000   0.16000   0.16000   0.16000
     Eigenvalues ---    0.22000   0.22188   0.22662   0.24011   0.24651
     Eigenvalues ---    0.35712   0.35717   0.35783   0.35790   0.36420
     Eigenvalues ---    0.36427   0.37009   0.38432   0.42633   0.43465
     Eigenvalues ---    0.45769   0.46692   0.47162   0.47468   0.47567
     Eigenvalues ---    0.48125   0.50955
 RFO step:  Lambda=-1.95082423D-02 EMin= 1.85287394D-02
 Linear search not attempted -- first point.
 Iteration  1 RMS(Cart)=  0.03353897 RMS(Int)=  0.00018389
 Iteration  2 RMS(Cart)=  0.00024646 RMS(Int)=  0.00002253
 Iteration  3 RMS(Cart)=  0.00000007 RMS(Int)=  0.00002253
 Variable       Old X    -DE/DX   Delta X   Delta X   Delta X     New X
                                 (Linear)    (Quad)   (Total)
    R1        2.65547   0.00115   0.00000   0.00368   0.00370   2.65918
    R2        2.61291   0.02293   0.00000   0.04642   0.04643   2.65934
    R3        2.04421   0.00896   0.00000   0.02375   0.02375   2.06796
    R4        2.61557   0.03501   0.00000   0.06971   0.06972   2.68529
    R5        2.04411   0.00868   0.00000   0.02299   0.02299   2.06711
    R6        2.63373   0.00017   0.00000  -0.00076  -0.00077   2.63296
    R7        2.04534   0.00772   0.00000   0.02049   0.02049   2.06582
    R8        2.68058   0.00950   0.00000   0.01927   0.01930   2.69988
    R9        2.60126   0.01725   0.00000   0.03056   0.03055   2.63181
   R10        2.64771   0.01566   0.00000   0.03295   0.03294   2.68064
   R11        2.70839  -0.00470   0.00000  -0.00808  -0.00804   2.70035
   R12        2.04526   0.00866   0.00000   0.02298   0.02298   2.06825
   R13        2.60573  -0.03348   0.00000  -0.06645  -0.06650   2.53922
   R14        1.89542   0.05139   0.00000   0.10463   0.10463   2.00005
   R15        2.57870   0.04900   0.00000   0.09274   0.09271   2.67140
   R16        2.03419   0.01114   0.00000   0.02904   0.02904   2.06323
   R17        2.03430   0.01324   0.00000   0.03450   0.03450   2.06880
    A1        2.11420  -0.00480   0.00000  -0.01569  -0.01565   2.09855
    A2        2.07986   0.00253   0.00000   0.00856   0.00854   2.08840
    A3        2.08912   0.00227   0.00000   0.00713   0.00711   2.09623
    A4        2.11523   0.00192   0.00000   0.01032   0.01036   2.12559
    A5        2.08365  -0.00099   0.00000  -0.00532  -0.00534   2.07832
    A6        2.08430  -0.00093   0.00000  -0.00500  -0.00502   2.07928
    A7        2.05144   0.00139   0.00000   0.00345   0.00346   2.05490
    A8        2.11267   0.00173   0.00000   0.01180   0.01179   2.12446
    A9        2.11908  -0.00312   0.00000  -0.01525  -0.01525   2.10383
   A10        2.13389  -0.00366   0.00000  -0.01444  -0.01449   2.11940
   A11        2.27895  -0.00290   0.00000  -0.00513  -0.00514   2.27381
   A12        1.87035   0.00655   0.00000   0.01958   0.01963   1.88997
   A13        2.07274   0.00678   0.00000   0.02134   0.02128   2.09403
   A14        1.86517  -0.00697   0.00000  -0.02209  -0.02200   1.84317
   A15        2.34527   0.00020   0.00000   0.00075   0.00072   2.34599
   A16        2.07887  -0.00163   0.00000  -0.00498  -0.00497   2.07391
   A17        2.10306   0.00066   0.00000   0.00161   0.00160   2.10467
   A18        2.10125   0.00097   0.00000   0.00337   0.00336   2.10461
   A19        1.90743   0.00259   0.00000   0.00224   0.00218   1.90961
   A20        2.19023   0.00203   0.00000   0.01738   0.01741   2.20764
   A21        2.18553  -0.00462   0.00000  -0.01962  -0.01960   2.16593
   A22        1.86968  -0.00128   0.00000   0.00289   0.00289   1.87257
   A23        2.21717   0.00065   0.00000  -0.00137  -0.00137   2.21579
   A24        2.19633   0.00063   0.00000  -0.00151  -0.00151   2.19482
   A25        1.91215  -0.00089   0.00000  -0.00261  -0.00269   1.90945
   A26        2.10250  -0.00366   0.00000  -0.02153  -0.02149   2.08101
   A27        2.26854   0.00454   0.00000   0.02415   0.02419   2.29272
    D1       -0.00001   0.00000   0.00000   0.00005   0.00005   0.00004
    D2       -3.14156   0.00000   0.00000  -0.00000  -0.00000  -3.14156
    D3        3.14152   0.00000   0.00000   0.00009   0.00009  -3.14157
    D4       -0.00002   0.00000   0.00000   0.00003   0.00003   0.00001
    D5       -0.00003  -0.00000   0.00000  -0.00003  -0.00003  -0.00006
    D6        3.14153   0.00000   0.00000   0.00007   0.00007  -3.14159
    D7       -3.14157  -0.00000   0.00000  -0.00007  -0.00007   3.14155
    D8       -0.00001   0.00000   0.00000   0.00003   0.00003   0.00003
    D9        0.00003  -0.00000   0.00000   0.00000   0.00000   0.00004
   D10       -3.14154  -0.00000   0.00000  -0.00005  -0.00005  -3.14158
   D11        3.14158   0.00000   0.00000   0.00006   0.00006  -3.14155
   D12        0.00001  -0.00000   0.00000   0.00001   0.00001   0.00002
   D13       -0.00001  -0.00000   0.00000  -0.00008  -0.00007  -0.00008
   D14       -3.14144  -0.00000   0.00000  -0.00002  -0.00001  -3.14145
   D15        3.14156  -0.00000   0.00000  -0.00003  -0.00003   3.14153
   D16        0.00013  -0.00000   0.00000   0.00003   0.00003   0.00017
   D17       -0.00004   0.00001   0.00000   0.00010   0.00009   0.00006
   D18       -3.14151   0.00000   0.00000  -0.00004  -0.00005  -3.14156
   D19        3.14143   0.00000   0.00000   0.00005   0.00004   3.14147
   D20       -0.00005  -0.00000   0.00000  -0.00009  -0.00010  -0.00015
   D21       -3.14124  -0.00001   0.00000  -0.00039  -0.00040   3.14154
   D22       -0.00113   0.00001   0.00000   0.00024   0.00024  -0.00089
   D23        0.00049  -0.00001   0.00000  -0.00034  -0.00034   0.00015
   D24        3.14060   0.00001   0.00000   0.00030   0.00030   3.14091
   D25        0.00005  -0.00000   0.00000  -0.00004  -0.00004   0.00002
   D26       -3.14151  -0.00001   0.00000  -0.00014  -0.00014   3.14154
   D27        3.14150   0.00000   0.00000   0.00015   0.00015  -3.14154
   D28       -0.00007   0.00000   0.00000   0.00005   0.00005  -0.00002
   D29       -0.00041   0.00003   0.00000   0.00051   0.00050   0.00010
   D30        3.14139   0.00001   0.00000   0.00013   0.00012   3.14151
   D31        3.14132   0.00002   0.00000   0.00034   0.00033  -3.14153
   D32       -0.00006   0.00000   0.00000  -0.00005  -0.00005  -0.00012
   D33       -0.00077   0.00003   0.00000   0.00069   0.00069  -0.00009
   D34        3.14133   0.00001   0.00000   0.00020   0.00020   3.14153
   D35       -3.14089   0.00000   0.00000   0.00002   0.00002  -3.14087
   D36        0.00121  -0.00002   0.00000  -0.00047  -0.00046   0.00075
   D37        0.00072  -0.00003   0.00000  -0.00072  -0.00073  -0.00001
   D38       -3.14144  -0.00001   0.00000  -0.00019  -0.00019   3.14156
   D39       -3.14107  -0.00001   0.00000  -0.00034  -0.00035  -3.14142
   D40       -0.00005   0.00001   0.00000   0.00019   0.00019   0.00014
         Item               Value     Threshold  Converged?
 Maximum Force            0.051387     0.000450     NO 
 RMS     Force            0.010605     0.000300     NO 
 Maximum Displacement     0.119586     0.001800     NO 
 RMS     Displacement     0.033597     0.001200     NO 
 Predicted change in Energy=-1.016141D-02
 GradGradGradGradGradGradGradGradGradGradGradGradGradGradGradGradGradGrad

                          Input orientation:                          
 ---------------------------------------------------------------------
 Center     Atomic      Atomic             Coordinates (Angstroms)
 Number     Number       Type             X           Y           Z
 ---------------------------------------------------------------------
      1          6           0       -2.193170    0.702992    0.000009
      2          6           0       -2.146053   -0.703394    0.000015
      3          6           0       -0.913807   -1.411063    0.000025
      4          6           0        0.262669   -0.664604    0.000073
      5          6           0        0.238685    0.763908    0.000009
      6          6           0       -1.001791    1.451995   -0.000034
      7          7           0        1.592176   -1.079350   -0.000058
      8          6           0        1.608319    1.171377    0.000041
      9          6           0        2.395921   -0.002540   -0.000007
     10          1           0        1.939597   -2.079087    0.000534
     11          1           0        1.988677    2.194793   -0.000063
     12          1           0        3.481306   -0.145530   -0.000033
     13          1           0       -3.083703   -1.266738    0.000018
     14          1           0       -0.878437   -2.503678    0.000019
     15          1           0       -3.161738    1.212313    0.000019
     16          1           0       -1.031749    2.546054   -0.000033
 ---------------------------------------------------------------------
                    Distance matrix (angstroms):
                    1          2          3          4          5
     1  C    0.000000
     2  C    1.407175   0.000000
     3  C    2.471032   1.420995   0.000000
     4  C    2.810954   2.409035   1.393305   0.000000
     5  C    2.432617   2.799991   2.461451   1.428714   0.000000
     6  C    1.407263   2.440295   2.864410   2.465533   1.418535
     7  N    4.183968   3.757087   2.527842   1.392696   2.286819
     8  C    3.830235   4.196437   3.609726   2.276313   1.428961
     9  C    4.643008   4.595729   3.596976   2.233627   2.289347
    10  H    4.981940   4.311040   2.930558   2.193820   3.312963
    11  H    4.439968   5.049306   4.628889   3.339949   2.260510
    12  H    5.737566   5.654943   4.573685   3.260224   3.367740
    13  H    2.161685   1.093866   2.174690   3.400113   3.893813
    14  H    3.465726   2.201789   1.093187   2.164328   3.453271
    15  H    1.094319   2.168306   3.454750   3.905046   3.429860
    16  H    2.178480   3.435198   3.958874   3.461769   2.188617
                    6          7          8          9         10
     6  C    0.000000
     7  N    3.624414   0.000000
     8  C    2.625152   2.250785   0.000000
     9  C    3.695959   1.343699   1.413646   0.000000
    10  H    4.595683   1.058383   3.267301   2.126095   0.000000
    11  H    3.081339   3.298064   1.091812   2.234752   4.274161
    12  H    4.759227   2.107328   2.289612   1.094764   2.472955
    13  H    3.424305   4.679632   5.287672   5.623564   5.088561
    14  H    3.957596   2.851778   4.437340   4.120329   2.849841
    15  H    2.173205   5.277445   4.770233   5.688887   6.070991
    16  H    1.094469   4.475325   2.976524   4.271328   5.497347
                   11         12         13         14         15
    11  H    0.000000
    12  H    2.775798   0.000000
    13  H    6.140947   6.660063   0.000000
    14  H    5.504178   4.956634   2.528482   0.000000
    15  H    5.243286   6.780396   2.480278   4.361428   0.000000
    16  H    3.040783   5.254740   4.329884   5.052059   2.513110
                   16
    16  H    0.000000
 Stoichiometry    C8H7N
 Framework group  C1[X(C8H7N)]
 Deg. of freedom    42
 Full point group                 C1      NOp   1
 Largest Abelian subgroup         C1      NOp   1
 Largest concise Abelian subgroup C1      NOp   1
                         Standard orientation:                         
 ---------------------------------------------------------------------
 Center     Atomic      Atomic             Coordinates (Angstroms)
 Number     Number       Type             X           Y           Z
 ---------------------------------------------------------------------
      1          6           0       -2.208072    0.645016   -0.000005
      2          6           0       -2.126537   -0.759795    0.000001
      3          6           0       -0.877335   -1.437082    0.000011
      4          6           0        0.280514   -0.662043    0.000059
      5          6           0        0.221561    0.765454   -0.000005
      6          6           0       -1.035389    1.422964   -0.000048
      7          7           0        1.619776   -1.044114   -0.000071
      8          6           0        1.580809    1.206334    0.000028
      9          6           0        2.396916    0.052052   -0.000021
     10          1           0        1.991570   -2.035045    0.000520
     11          1           0        1.935997    2.238756   -0.000076
     12          1           0        3.485477   -0.064322   -0.000046
     13          1           0       -3.050113   -1.345926    0.000005
     14          1           0       -0.815224   -2.528504    0.000006
     15          1           0       -3.188821    1.130471    0.000006
     16          1           0       -1.092124    2.515961   -0.000047
 ---------------------------------------------------------------------
 Rotational constants (GHZ):           3.8514481           1.6116090           1.1361822
 Standard basis: 6-31+G(d) (6D, 7F)
 There are   185 symmetry adapted cartesian basis functions of A   symmetry.
 There are   185 symmetry adapted basis functions of A   symmetry.
   185 basis functions,   316 primitive gaussians,   185 cartesian basis functions
    31 alpha electrons       31 beta electrons
       nuclear repulsion energy       397.7194925505 Hartrees.
 NAtoms=   16 NActive=   16 NUniq=   16 SFac= 1.00D+00 NAtFMM=   60 NAOKFM=F Big=F
 Integral buffers will be    131072 words long.
 Regular integral format.
 Two-electron integral symmetry is turned on.
 One-electron integrals computed using PRISM.
 NBasis=   185 RedAO= T EigKep=  1.29D-06  NBF=   185
 NBsUse=   185 1.00D-06 EigRej= -1.00D+00 NBFU=   185
 Initial guess from the checkpoint file:  "FuncsBVP86-V-3rd.chk"
 B after Tr=     0.000000    0.000000   -0.000000
         Rot=    0.999926    0.000009    0.000007   -0.012189 Ang=   1.40 deg.
 ExpMin= 4.38D-02 ExpMax= 4.17D+03 ExpMxC= 6.27D+02 IAcc=3 IRadAn=         5 AccDes= 0.00D+00
 Harris functional with IExCor=  418 and IRadAn=       5 diagonalized for initial guess.
 HarFok:  IExCor=  418 AccDes= 0.00D+00 IRadAn=         5 IDoV= 1 UseB2=F ITyADJ=14
 ICtDFT=  3500011 ScaDFX=  1.000000  1.000000  1.000000  1.000000
 FoFCou: FMM=F IPFlag=           0 FMFlag=      100000 FMFlg1=           0
         NFxFlg=           0 DoJE=T BraDBF=F KetDBF=T FulRan=T
         wScrn=  0.000000 ICntrl=       500 IOpCl=  0 I1Cent=   200000004 NGrid=           0
         NMat0=    1 NMatS0=      1 NMatT0=    0 NMatD0=    1 NMtDS0=    0 NMtDT0=    0
 Petite list used in FoFCou.
 Keep J ints in memory in canonical form, NReq=152071459.
 Requested convergence on RMS density matrix=1.00D-08 within 128 cycles.
 Requested convergence on MAX density matrix=1.00D-06.
 Requested convergence on             energy=1.00D-06.
 No special actions if energy rises.
 SCF Done:  E(RB-VP86) =  -363.842722995     A.U. after   13 cycles
            NFock= 13  Conv=0.74D-08     -V/T= 2.0111
 DoSCS=F DFT=T ScalE2(SS,OS)=  1.000000  1.000000
 ExpMin= 4.38D-02 ExpMax= 4.17D+03 ExpMxC= 6.27D+02 IAcc=3 IRadAn=         5 AccDes= 0.00D+00
 HarFok:  IExCor=  205 AccDes= 0.00D+00 IRadAn=         5 IDoV=-2 UseB2=F ITyADJ=14
 ICtDFT= 12500011 ScaDFX=  1.000000  1.000000  1.000000  1.000000
 Range of M.O.s used for correlation:    10   185
 NBasis=   185 NAE=    31 NBE=    31 NFC=     9 NFV=     0
 NROrb=    176 NOA=    22 NOB=    22 NVA=   154 NVB=   154

 **** Warning!!: The largest alpha MO coefficient is  0.19347534D+03

 Keep J ints in memory in canonical form, NReq=156218803.
 Orbital symmetries:
       Occupied  (A) (A) (A) (A) (A) (A) (A) (A) (A) (A) (A) (A)
                 (A) (A) (A) (A) (A) (A) (A) (A) (A) (A) (A) (A)
                 (A) (A) (A) (A) (A) (A) (A)
       Virtual   (A) (A) (A) (A) (A) (A) (A) (A) (A) (A) (A) (A)
                 (A) (A) (A) (A) (A) (A) (A) (A) (A) (A) (A) (A)
                 (A) (A) (A) (A) (A) (A) (A) (A) (A) (A) (A) (A)
                 (A) (A) (A) (A) (A) (A) (A) (A) (A) (A) (A) (A)
                 (A) (A) (A) (A) (A) (A) (A) (A) (A) (A) (A) (A)
                 (A) (A) (A) (A) (A) (A) (A) (A) (A) (A) (A) (A)
                 (A) (A) (A) (A) (A) (A) (A) (A) (A) (A) (A) (A)
                 (A) (A) (A) (A) (A) (A) (A) (A) (A) (A) (A) (A)
                 (A) (A) (A) (A) (A) (A) (A) (A) (A) (A) (A) (A)
                 (A) (A) (A) (A) (A) (A) (A) (A) (A) (A) (A) (A)
                 (A) (A) (A) (A) (A) (A) (A) (A) (A) (A) (A) (A)
                 (A) (A) (A) (A) (A) (A) (A) (A) (A) (A) (A) (A)
                 (A) (A) (A) (A) (A) (A) (A) (A) (A) (A)
 Generating guess from densities on rwf.
 Convergence on wavefunction:    0.000001000000000
 Iteration     1 Dimension     6 NMult     0 NNew      6
 CISAX will form     6 AO SS matrices at one time.
 New state      4 was old state      5
 New state      5 was old state      6
 New state      6 was old state      4
 Iteration     2 Dimension    12 NMult     6 NNew      6
 Iteration     3 Dimension    18 NMult    12 NNew      6
 New state      5 was old state      6
 New state      6 was old state      5
 Iteration     4 Dimension    24 NMult    18 NNew      6
 Iteration     5 Dimension    30 NMult    24 NNew      6
 Iteration     6 Dimension    36 NMult    30 NNew      6
 New state      2 was old state      3
 New state      3 was old state      2
 Iteration     7 Dimension    42 NMult    36 NNew      6
 Iteration     8 Dimension    48 NMult    42 NNew      6
 Iteration     9 Dimension    54 NMult    48 NNew      6
 Iteration    10 Dimension    60 NMult    54 NNew      6
 Iteration    11 Dimension    66 NMult    60 NNew      6
 Iteration    12 Dimension    72 NMult    66 NNew      6
 Iteration    13 Dimension    78 NMult    72 NNew      6
 Iteration    14 Dimension    84 NMult    78 NNew      6
 Iteration    15 Dimension    90 NMult    84 NNew      6
 Iteration    16 Dimension    96 NMult    90 NNew      6
 Iteration    17 Dimension   102 NMult    96 NNew      6
 Iteration    18 Dimension   108 NMult   102 NNew      6
 Iteration    19 Dimension   114 NMult   108 NNew      6
 Iteration    20 Dimension   120 NMult   114 NNew      6
 Iteration    21 Dimension   126 NMult   120 NNew      6
 Iteration    22 Dimension   131 NMult   126 NNew      5
 Iteration    23 Dimension   135 NMult   131 NNew      4
 Iteration    24 Dimension   140 NMult   135 NNew      5
 Iteration    25 Dimension   145 NMult   140 NNew      5
 Iteration    26 Dimension   149 NMult   145 NNew      4
 Iteration    27 Dimension   154 NMult   149 NNew      5
 Iteration    28 Dimension   159 NMult   154 NNew      5
 Iteration    29 Dimension   163 NMult   159 NNew      4
 Iteration    30 Dimension   166 NMult   163 NNew      3
 Iteration    31 Dimension   169 NMult   166 NNew      3
 Iteration    32 Dimension   173 NMult   169 NNew      4
 Iteration    33 Dimension   176 NMult   173 NNew      3
 Iteration    34 Dimension   179 NMult   176 NNew      3
 Iteration    35 Dimension   181 NMult   179 NNew      2
 Iteration    36 Dimension   182 NMult   181 NNew      1
 Iteration    37 Dimension   183 NMult   182 NNew      1
 Iteration    38 Dimension   184 NMult   183 NNew      1
 Iteration    39 Dimension   185 NMult   184 NNew      1
 Iteration    40 Dimension   186 NMult   185 NNew      1
 Iteration    41 Dimension   187 NMult   186 NNew      1
 Iteration    42 Dimension   188 NMult   187 NNew      1
 Iteration    43 Dimension   189 NMult   188 NNew      1
 Iteration    44 Dimension   190 NMult   189 NNew      1
 Iteration    45 Dimension   191 NMult   190 NNew      1
 Iteration    46 Dimension   192 NMult   191 NNew      1
 Iteration    47 Dimension   193 NMult   192 NNew      1
 Iteration    48 Dimension   194 NMult   193 NNew      1
 Iteration    49 Dimension   195 NMult   194 NNew      1
 Iteration    50 Dimension   196 NMult   195 NNew      1
 Iteration    51 Dimension   198 NMult   196 NNew      2
 Iteration    52 Dimension   200 NMult   198 NNew      2
 Iteration    53 Dimension   201 NMult   200 NNew      1
 Iteration    54 Dimension   202 NMult   201 NNew      1
 Iteration    55 Dimension   203 NMult   202 NNew      1
 Iteration    56 Dimension   204 NMult   203 NNew      1
 Iteration    57 Dimension   205 NMult   204 NNew      1
 Iteration    58 Dimension   206 NMult   205 NNew      1
 Iteration    59 Dimension   207 NMult   206 NNew      1
 Iteration    60 Dimension   208 NMult   207 NNew      1
 Iteration    61 Dimension   209 NMult   208 NNew      1
 Iteration    62 Dimension   210 NMult   209 NNew      1
 Iteration    63 Dimension   211 NMult   210 NNew      1
 ***********************************************************************
 Excited states from <AA,BB:AA,BB> singles matrix:
 ***********************************************************************
 
 Ground to excited state transition densities written to RWF  633
 Ground to excited state transition electric dipole moments (Au):
       state          X           Y           Z        Dip. S.      Osc.
         1        -0.6613      0.5181     -0.0000      0.7057      0.0720
         2        -0.0249     -0.1432      0.0001      0.0211      0.0024
         3         0.0004     -0.0003     -0.0947      0.0090      0.0010
         4         0.0003      0.0000      0.0300      0.0009      0.0001
         5        -0.0001      0.0001     -0.0873      0.0076      0.0010
         6         0.0002     -0.0000      0.1355      0.0184      0.0024
 Ground to excited state transition velocity dipole moments (Au):
       state          X           Y           Z        Dip. S.      Osc.
         1         0.0917     -0.0877      0.0000      0.0161      0.0702
         2         0.0030      0.0261     -0.0000      0.0007      0.0027
         3        -0.0001      0.0001      0.0081      0.0001      0.0003
         4        -0.0000     -0.0000     -0.0025      0.0000      0.0000
         5         0.0000     -0.0000      0.0198      0.0004      0.0014
         6        -0.0000      0.0000     -0.0248      0.0006      0.0021
 Ground to excited state transition magnetic dipole moments (Au):
       state          X           Y           Z
         1         0.0000      0.0000      0.1993
         2        -0.0001     -0.0000      0.1127
         3         0.1394     -0.0574      0.0003
         4         0.2528     -0.1118      0.0001
         5        -0.0147     -0.1711     -0.0000
         6         0.0319      0.3234      0.0002
 Ground to excited state transition velocity quadrupole moments (Au):
       state          XX          YY          ZZ          XY          XZ          YZ
         1         0.1432     -0.1062      0.0106      0.0668      0.0000      0.0000
         2        -0.0094     -0.0472      0.0179      0.0208     -0.0000     -0.0000
         3        -0.0001     -0.0000      0.0001      0.0001      0.0354      0.0594
         4        -0.0000     -0.0000     -0.0000      0.0001      0.1190      0.1812
         5         0.0000      0.0000     -0.0000     -0.0001      0.0992     -0.0546
         6        -0.0000      0.0000      0.0000      0.0001     -0.2924     -0.0338
 <0|del|b> * <b|rxdel|0> + <0|del|b> * <b|delr+rdel|0>
 Rotatory Strengths (R) in cgs (10**-40 erg-esu-cm/Gauss)
       state          XX          YY          ZZ    R(velocity)    E-M Angle
         1        -0.0070      0.0134     -0.0028      0.0012       90.00
         2        -0.0016     -0.0024     -0.0014     -0.0018       90.00
         3        -0.0043     -0.0213     -0.0120     -0.0125       90.00
         4        -0.0003     -0.0376     -0.0062     -0.0147       90.00
         5         0.0054     -0.0020      0.0041      0.0025       90.00
         6        -0.0085     -0.0013     -0.0049     -0.0049       90.00
 1/2[<0|r|b>*<b|rxdel|0> + (<0|rxdel|b>*<b|r|0>)*]
 Rotatory Strengths (R) in cgs (10**-40 erg-esu-cm/Gauss)
       state          XX          YY          ZZ     R(length)
         1         0.0218     -0.0164      0.0037      0.0030
         2        -0.0024     -0.0005     -0.0054     -0.0028
         3        -0.0367     -0.0136      0.0171     -0.0111
         4        -0.0450      0.0004     -0.0031     -0.0159
         5        -0.0015      0.0132     -0.0005      0.0037
         6        -0.0053      0.0008     -0.0151     -0.0066
  1/2[<0|del|b>*<b|r|0> + (<0|r|b>*<b|del|0>)*] (Au)
       state          X           Y           Z        Dip. S.   Osc.(frdel)
         1        -0.0606     -0.0455     -0.0000      0.1061      0.0707
         2        -0.0001     -0.0037     -0.0000      0.0038      0.0025
         3        -0.0000     -0.0000     -0.0008      0.0008      0.0005
         4        -0.0000     -0.0000     -0.0001      0.0001      0.0000
         5        -0.0000     -0.0000     -0.0017      0.0017      0.0012
         6        -0.0000     -0.0000     -0.0034      0.0034      0.0022

 Excitation energies and oscillator strengths:
 
 Excited State   1:      Singlet-A      4.1617 eV  297.92 nm  f=0.0720  <S**2>=0.000
      29 -> 32         0.13337
      30 -> 34         0.10434
      31 -> 32         0.66423
      31 -> 34        -0.11311
 
 Excited State   2:      Singlet-A      4.5887 eV  270.20 nm  f=0.0024  <S**2>=0.000
      30 -> 32         0.51406
      31 -> 34        -0.47629
 
 Excited State   3:      Singlet-A      4.4430 eV  279.06 nm  f=0.0010  <S**2>=0.000
      31 -> 33         0.70681
 This state for optimization and/or second-order correction.
 Total Energy, E(TD-HF/TD-DFT) =  -363.679447305    
 Copying the excited state density for this state as the 1-particle RhoCI density.
 
 Excited State   4:      Singlet-A      5.1251 eV  241.92 nm  f=0.0001  <S**2>=0.000
      31 -> 35        -0.70668
 
 Excited State   5:      Singlet-A      5.2225 eV  237.40 nm  f=0.0010  <S**2>=0.000
      30 -> 33         0.70657
 
 Excited State   6:      Singlet-A      5.3503 eV  231.73 nm  f=0.0024  <S**2>=0.000
      31 -> 37        -0.70643
 SavETr:  write IOETrn=   770 NScale= 10 NData=  16 NLR=1 NState=    6 LETran=     118.
          IDoAtm=1111111111111111
          Differentiating once with respect to electric field.
                with respect to dipole field.
          Differentiating once with respect to nuclear coordinates.
 Keep J ints in memory in canonical form, NReq=152083851.
          There are     1 degrees of freedom in the 1st order CPHF.  IDoFFX=0 NUNeed=     1.
 LinEq1:  Iter=  0 NonCon=     1 RMS=1.96D-02 Max=7.60D-01 NDo=     1
 AX will form     1 AO Fock derivatives at one time.
 LinEq1:  Iter=  1 NonCon=     1 RMS=1.54D-02 Max=4.11D-01 NDo=     1
 LinEq1:  Iter=  2 NonCon=     1 RMS=1.04D-02 Max=2.06D-01 NDo=     1
 LinEq1:  Iter=  3 NonCon=     1 RMS=8.82D-03 Max=1.75D-01 NDo=     1
 LinEq1:  Iter=  4 NonCon=     1 RMS=7.28D-03 Max=1.42D-01 NDo=     1
 LinEq1:  Iter=  5 NonCon=     1 RMS=4.30D-03 Max=1.28D-01 NDo=     1
 LinEq1:  Iter=  6 NonCon=     1 RMS=2.36D-03 Max=4.79D-02 NDo=     1
 LinEq1:  Iter=  7 NonCon=     1 RMS=2.11D-03 Max=5.76D-02 NDo=     1
 LinEq1:  Iter=  8 NonCon=     1 RMS=1.04D-03 Max=1.92D-02 NDo=     1
 LinEq1:  Iter=  9 NonCon=     1 RMS=8.79D-04 Max=3.13D-02 NDo=     1
 LinEq1:  Iter= 10 NonCon=     1 RMS=4.01D-04 Max=5.16D-03 NDo=     1
 LinEq1:  Iter= 11 NonCon=     1 RMS=1.79D-04 Max=3.52D-03 NDo=     1
 LinEq1:  Iter= 12 NonCon=     1 RMS=1.18D-04 Max=2.20D-03 NDo=     1
 LinEq1:  Iter= 13 NonCon=     1 RMS=3.29D-05 Max=5.24D-04 NDo=     1
 LinEq1:  Iter= 14 NonCon=     1 RMS=2.57D-05 Max=4.15D-04 NDo=     1
 LinEq1:  Iter= 15 NonCon=     1 RMS=7.37D-06 Max=9.82D-05 NDo=     1
 LinEq1:  Iter= 16 NonCon=     1 RMS=2.09D-06 Max=3.44D-05 NDo=     1
 LinEq1:  Iter= 17 NonCon=     1 RMS=1.61D-06 Max=3.33D-05 NDo=     1
 LinEq1:  Iter= 18 NonCon=     1 RMS=4.57D-07 Max=5.31D-06 NDo=     1
 LinEq1:  Iter= 19 NonCon=     1 RMS=8.74D-08 Max=1.19D-06 NDo=     1
 LinEq1:  Iter= 20 NonCon=     1 RMS=1.71D-08 Max=2.15D-07 NDo=     1
 LinEq1:  Iter= 21 NonCon=     1 RMS=6.35D-09 Max=7.99D-08 NDo=     1
 LinEq1:  Iter= 22 NonCon=     1 RMS=1.70D-09 Max=3.32D-08 NDo=     1
 LinEq1:  Iter= 23 NonCon=     1 RMS=3.44D-10 Max=5.37D-09 NDo=     1
 LinEq1:  Iter= 24 NonCon=     0 RMS=6.46D-11 Max=8.58D-10 NDo=     1
 Linear equations converged to 1.000D-10 1.000D-09 after    24 iterations.
 End of Minotr F.D. properties file   721 does not exist.
 End of Minotr F.D. properties file   722 does not exist.
 End of Minotr F.D. properties file   788 does not exist.
 Calling FoFJK, ICntrl=  10005527 FMM=F ISym2X=0 I1Cent= 0 IOpClX= 0 NMat=1 NMatS=1 NMatT=0.
 ***** Axes restored to original set *****
 -------------------------------------------------------------------
 Center     Atomic                   Forces (Hartrees/Bohr)
 Number     Number              X              Y              Z
 -------------------------------------------------------------------
      1        6           0.001944941   -0.000862422   -0.000007357
      2        6          -0.001452263    0.003322227    0.000005630
      3        6           0.006324182   -0.001543641   -0.000000953
      4        6          -0.009199530   -0.006232358   -0.000013874
      5        6           0.009576225    0.002233188    0.000003003
      6        6          -0.002089954    0.001836457    0.000010590
      7        7          -0.000490601    0.039033854    0.000016190
      8        6          -0.013288648    0.014196477   -0.000017203
      9        6          -0.006891279   -0.022599940   -0.000004505
     10        1           0.011684182   -0.028120076    0.000000870
     11        1           0.000925536    0.000097977    0.000003933
     12        1           0.002508002   -0.000925369    0.000004151
     13        1           0.000349032   -0.000946737    0.000000811
     14        1          -0.000573111    0.000280882    0.000000291
     15        1           0.000483158    0.000298622   -0.000001609
     16        1           0.000190129   -0.000069141    0.000000030
 -------------------------------------------------------------------
 Cartesian Forces:  Max     0.039033854 RMS     0.008762224

 GradGradGradGradGradGradGradGradGradGradGradGradGradGradGradGradGradGrad
 Berny optimization.
 Using GEDIIS/GDIIS optimizer.
 FormGI is forming the generalized inverse of G from B-inverse, IUseBI=4.
 Internal  Forces:  Max     0.030397512 RMS     0.004195398
 Search for a local minimum.
 Step number   2 out of a maximum of   94
 All quantities printed in internal units (Hartrees-Bohrs-Radians)
 Mixed Optimization -- RFO/linear search
 Update second derivatives using D2CorX and points    1    2
 DE= -1.23D-02 DEPred=-1.02D-02 R= 1.21D+00
 TightC=F SS=  1.41D+00  RLast= 2.04D-01 DXNew= 5.0454D-01 6.1333D-01
 Trust test= 1.21D+00 RLast= 2.04D-01 DXMaxT set to 5.05D-01
 ITU=  1  0
 Use linear search instead of GDIIS.
     Eigenvalues ---    0.01855   0.01932   0.01987   0.02011   0.02070
     Eigenvalues ---    0.02114   0.02148   0.02158   0.02172   0.02210
     Eigenvalues ---    0.02234   0.02248   0.02346   0.15718   0.16000
     Eigenvalues ---    0.16000   0.16000   0.16000   0.16000   0.16120
     Eigenvalues ---    0.21869   0.22169   0.22418   0.24264   0.24692
     Eigenvalues ---    0.29381   0.35715   0.35746   0.35789   0.36049
     Eigenvalues ---    0.36453   0.37127   0.37313   0.38890   0.42690
     Eigenvalues ---    0.43568   0.45895   0.46740   0.47501   0.47625
     Eigenvalues ---    0.49578   0.56798
 RFO step:  Lambda=-3.47159800D-03 EMin= 1.85462391D-02
 Quartic linear search produced a step of  0.49931.
 Iteration  1 RMS(Cart)=  0.01977327 RMS(Int)=  0.00026677
 Iteration  2 RMS(Cart)=  0.00036562 RMS(Int)=  0.00004032
 Iteration  3 RMS(Cart)=  0.00000031 RMS(Int)=  0.00004032
 Variable       Old X    -DE/DX   Delta X   Delta X   Delta X     New X
                                 (Linear)    (Quad)   (Total)
    R1        2.65918   0.00005   0.00185  -0.00125   0.00060   2.65977
    R2        2.65934  -0.00151   0.02318  -0.01780   0.00539   2.66473
    R3        2.06796  -0.00029   0.01186  -0.00758   0.00428   2.07224
    R4        2.68529   0.00195   0.03481  -0.01421   0.02059   2.70588
    R5        2.06711   0.00019   0.01148  -0.00540   0.00608   2.07319
    R6        2.63296  -0.00477  -0.00038  -0.01499  -0.01538   2.61758
    R7        2.06582  -0.00030   0.01023  -0.00674   0.00348   2.06931
    R8        2.69988   0.00497   0.00964   0.01315   0.02285   2.72273
    R9        2.63181   0.00225   0.01525  -0.00343   0.01176   2.64358
   R10        2.68064   0.00032   0.01645  -0.00783   0.00863   2.68927
   R11        2.70035  -0.00714  -0.00402  -0.02166  -0.02557   2.67477
   R12        2.06825  -0.00007   0.01148  -0.00648   0.00500   2.07324
   R13        2.53922  -0.01398  -0.03321  -0.02481  -0.05812   2.48110
   R14        2.00005   0.03040   0.05224   0.06620   0.11845   2.11850
   R15        2.67140   0.01299   0.04629   0.01084   0.05713   2.72854
   R16        2.06323   0.00041   0.01450  -0.00614   0.00835   2.07158
   R17        2.06880   0.00261   0.01723   0.00132   0.01854   2.08735
    A1        2.09855   0.00110  -0.00781   0.01078   0.00298   2.10153
    A2        2.08840  -0.00005   0.00426  -0.00089   0.00337   2.09177
    A3        2.09623  -0.00106   0.00355  -0.00989  -0.00635   2.08989
    A4        2.12559   0.00099   0.00517   0.00315   0.00833   2.13391
    A5        2.07832   0.00053  -0.00266   0.00784   0.00517   2.08349
    A6        2.07928  -0.00152  -0.00251  -0.01099  -0.01350   2.06578
    A7        2.05490  -0.00174   0.00173  -0.01279  -0.01106   2.04384
    A8        2.12446   0.00029   0.00589  -0.00158   0.00430   2.12876
    A9        2.10383   0.00146  -0.00762   0.01437   0.00676   2.11058
   A10        2.11940   0.00144  -0.00723   0.01369   0.00647   2.12587
   A11        2.27381   0.00033  -0.00257   0.00312   0.00054   2.27436
   A12        1.88997  -0.00177   0.00980  -0.01680  -0.00701   1.88296
   A13        2.09403  -0.00037   0.01063  -0.00794   0.00263   2.09666
   A14        1.84317   0.00184  -0.01099   0.02038   0.00955   1.85272
   A15        2.34599  -0.00147   0.00036  -0.01244  -0.01217   2.33381
   A16        2.07391  -0.00142  -0.00248  -0.00689  -0.00934   2.06456
   A17        2.10467   0.00090   0.00080   0.00540   0.00619   2.11086
   A18        2.10461   0.00051   0.00168   0.00149   0.00315   2.10776
   A19        1.90961   0.00113   0.00109   0.00134   0.00228   1.91189
   A20        2.20764   0.00124   0.00869   0.01226   0.02103   2.22868
   A21        2.16593  -0.00237  -0.00978  -0.01361  -0.02331   2.14262
   A22        1.87257  -0.00410   0.00144  -0.02298  -0.02143   1.85114
   A23        2.21579   0.00291  -0.00069   0.01936   0.01862   2.23441
   A24        2.19482   0.00119  -0.00076   0.00362   0.00281   2.19763
   A25        1.90945   0.00290  -0.00134   0.01806   0.01662   1.92607
   A26        2.08101  -0.00206  -0.01073  -0.01017  -0.02085   2.06016
   A27        2.29272  -0.00084   0.01208  -0.00789   0.00423   2.29696
    D1        0.00004  -0.00000   0.00003  -0.00012  -0.00009  -0.00006
    D2       -3.14156  -0.00000  -0.00000  -0.00011  -0.00011   3.14152
    D3       -3.14157  -0.00000   0.00004  -0.00003   0.00002  -3.14156
    D4        0.00001  -0.00000   0.00002  -0.00001   0.00000   0.00001
    D5       -0.00006   0.00000  -0.00002   0.00017   0.00015   0.00009
    D6       -3.14159   0.00000   0.00003   0.00006   0.00009  -3.14150
    D7        3.14155   0.00000  -0.00003   0.00008   0.00004   3.14159
    D8        0.00003  -0.00000   0.00002  -0.00004  -0.00002   0.00001
    D9        0.00004   0.00000   0.00000   0.00006   0.00006   0.00009
   D10       -3.14158  -0.00000  -0.00002  -0.00004  -0.00006   3.14155
[...]
   A13        2.09591  -0.00332  -0.00026  -0.00302  -0.00351   2.09240
   A14        1.87837   0.00112   0.00887   0.01661   0.02613   1.90450
   A15        2.30891   0.00220  -0.00861  -0.01359  -0.02262   2.28629
   A16        2.05162   0.00455  -0.00447  -0.00363  -0.00799   2.04363
   A17        2.11923  -0.00266   0.00290   0.00229   0.00513   2.12436
   A18        2.11233  -0.00189   0.00158   0.00134   0.00286   2.11519
   A19        1.90133  -0.00921  -0.00365  -0.02439  -0.02885   1.87248
   A20        2.31765   0.00679   0.03076   0.08811   0.11927   2.43692
   A21        2.06419   0.00243  -0.02712  -0.06368  -0.09040   1.97378
   A22        1.80248   0.00586  -0.01683  -0.03253  -0.04861   1.75386
   A23        2.28115  -0.00431   0.01616   0.02939   0.04517   2.32632
   A24        2.19956  -0.00155   0.00067   0.00315   0.00344   2.20300
   A25        1.96632  -0.00444   0.01392   0.02914   0.04275   2.00907
   A26        2.02758   0.00992  -0.01126  -0.00145  -0.01256   2.01502
   A27        2.28928  -0.00547  -0.00265  -0.02769  -0.03019   2.25909
    D1       -0.00030   0.00002  -0.00008   0.00016   0.00008  -0.00022
    D2        3.14104   0.00001  -0.00017   0.00031   0.00014   3.14117
    D3       -3.14127  -0.00000   0.00010  -0.00027  -0.00017  -3.14144
    D4        0.00006  -0.00001   0.00002  -0.00012  -0.00011  -0.00005
    D5        0.00078  -0.00002   0.00024  -0.00058  -0.00034   0.00044
    D6       -3.14100  -0.00002   0.00017  -0.00046  -0.00029  -3.14129
    D7       -3.14143  -0.00000   0.00006  -0.00015  -0.00009  -3.14152
    D8       -0.00002  -0.00000  -0.00001  -0.00003  -0.00004  -0.00006
    D9        0.00017  -0.00002   0.00002  -0.00030  -0.00029  -0.00012
   D10        3.14112  -0.00000  -0.00015   0.00018   0.00003   3.14115
   D11       -3.14118  -0.00002   0.00011  -0.00045  -0.00035  -3.14152
   D12       -0.00022  -0.00000  -0.00007   0.00004  -0.00003  -0.00025
   D13       -0.00054   0.00003  -0.00013   0.00088   0.00076   0.00021
   D14        3.14116   0.00003  -0.00014   0.00085   0.00070  -3.14133
   D15       -3.14150   0.00002   0.00004   0.00040   0.00045  -3.14105
   D16        0.00021   0.00001   0.00003   0.00037   0.00039   0.00060
   D17        0.00106  -0.00004   0.00029  -0.00134  -0.00105   0.00001
   D18       -3.14101  -0.00003   0.00017  -0.00107  -0.00093   3.14124
   D19       -3.14062  -0.00004   0.00030  -0.00132  -0.00100   3.14156
   D20        0.00049  -0.00003   0.00018  -0.00105  -0.00088  -0.00039
   D21        3.13911   0.00014  -0.00067   0.00295   0.00228   3.14139
   D22        0.00516  -0.00008   0.00184  -0.00327  -0.00151   0.00365
   D23       -0.00238   0.00014  -0.00068   0.00293   0.00223  -0.00015
   D24       -3.13633  -0.00008   0.00183  -0.00329  -0.00157  -3.13790
   D25       -0.00113   0.00003  -0.00034   0.00113   0.00079  -0.00034
   D26        3.14064   0.00004  -0.00027   0.00102   0.00074   3.14138
   D27        3.14108   0.00002  -0.00017   0.00077   0.00062  -3.14148
   D28       -0.00032   0.00002  -0.00011   0.00066   0.00057   0.00024
   D29        0.00123  -0.00002   0.00029  -0.00094  -0.00060   0.00063
   D30       -3.14079  -0.00002   0.00026  -0.00062  -0.00033  -3.14112
   D31       -3.14093  -0.00000   0.00014  -0.00062  -0.00045  -3.14138
   D32        0.00024   0.00000   0.00011  -0.00030  -0.00018   0.00005
   D33        0.00329  -0.00017   0.00091  -0.00363  -0.00270   0.00058
   D34       -3.14052  -0.00005   0.00031  -0.00103  -0.00063  -3.14115
   D35        3.13851   0.00005  -0.00117   0.00229   0.00096   3.13947
   D36       -0.00529   0.00017  -0.00176   0.00489   0.00303  -0.00226
   D37       -0.00291   0.00014  -0.00078   0.00287   0.00210  -0.00081
   D38        3.14132  -0.00003  -0.00007  -0.00030  -0.00038   3.14094
   D39        3.13908   0.00013  -0.00075   0.00255   0.00184   3.14092
   D40        0.00013  -0.00003  -0.00004  -0.00061  -0.00064  -0.00051
         Item               Value     Threshold  Converged?
 Maximum Force            0.052548     0.000450     NO 
 RMS     Force            0.009311     0.000300     NO 
 Maximum Displacement     0.571628     0.001800     NO 
 RMS     Displacement     0.083077     0.001200     NO 
 Predicted change in Energy=-1.571860D-02
 GradGradGradGradGradGradGradGradGradGradGradGradGradGradGradGradGradGrad

                          Input orientation:                          
 ---------------------------------------------------------------------
 Center     Atomic      Atomic             Coordinates (Angstroms)
 Number     Number       Type             X           Y           Z
 ---------------------------------------------------------------------
      1          6           0       -2.222499    0.753007   -0.000526
      2          6           0       -2.164523   -0.653055    0.000037
      3          6           0       -0.902093   -1.411995    0.000674
      4          6           0        0.239323   -0.670257    0.000548
      5          6           0        0.219065    0.832873    0.000076
      6          6           0       -1.048511    1.538783   -0.000247
      7          7           0        1.608182   -1.094583    0.000754
      8          6           0        1.494982    1.294546    0.000499
      9          6           0        2.303053   -0.083833    0.000294
     10          1           0        2.501350   -2.501842   -0.002743
     11          1           0        1.932726    2.306277    0.000759
     12          1           0        3.425185   -0.262674   -0.000071
     13          1           0       -3.091624   -1.255801    0.000210
     14          1           0       -0.908519   -2.507663    0.001516
     15          1           0       -3.200666    1.262096   -0.000845
     16          1           0       -1.088527    2.641566   -0.000399
 ---------------------------------------------------------------------
                    Distance matrix (angstroms):
                    1          2          3          4          5
     1  C    0.000000
     2  C    1.407257   0.000000
     3  C    2.535884   1.472997   0.000000
     4  C    2.843633   2.403908   1.361252   0.000000
     5  C    2.442870   2.808821   2.509269   1.503266   0.000000
     6  C    1.412690   2.459601   2.954409   2.557025   1.450883
     7  N    4.252964   3.798454   2.530263   1.433117   2.375864
     8  C    3.756718   4.145495   3.615430   2.331765   1.356873
     9  C    4.602274   4.503693   3.469435   2.145431   2.276698
    10  H    5.736619   5.018805   3.573682   2.910581   4.040935
    11  H    4.436050   5.054216   4.675655   3.424525   2.259990
    12  H    5.738288   5.603324   4.477307   3.211829   3.388131
    13  H    2.188764   1.105811   2.195095   3.382022   3.914489
    14  H    3.515469   2.239893   1.095687   2.166473   3.525710
    15  H    1.102716   2.177474   3.526216   3.945569   3.446563
    16  H    2.202850   3.465876   4.057847   3.568103   2.231853
                    6          7          8          9         10
     6  C    0.000000
     7  N    3.740673   0.000000
     8  C    2.555192   2.391809   0.000000
     9  C    3.723690   1.226564   1.597782   0.000000
    10  H    5.378492   1.666776   3.927512   2.426128   0.000000
    11  H    3.078445   3.416310   1.102370   2.418630   4.841628
    12  H    4.822780   1.998393   2.480045   1.136295   2.422262
    13  H    3.461793   4.702570   5.247973   5.520512   5.730095
    14  H    4.048868   2.886274   4.498179   4.023574   3.409877
    15  H    2.169868   5.355273   4.695760   5.665902   6.832293
    16  H    1.103509   4.607716   2.913585   4.350933   6.272310
                   11         12         13         14         15
    11  H    0.000000
    12  H    2.971018   0.000000
    13  H    6.158936   6.592049   0.000000
    14  H    5.589875   4.880674   2.516567   0.000000
    15  H    5.238514   6.799032   2.520256   4.411919   0.000000
    16  H    3.039800   5.367328   4.381994   5.152375   2.522711
                   16
    16  H    0.000000
 Stoichiometry    C8H7N
 Framework group  C1[X(C8H7N)]
 Deg. of freedom    42
 Full point group                 C1      NOp   1
 Largest Abelian subgroup         C1      NOp   1
 Largest concise Abelian subgroup C1      NOp   1
                         Standard orientation:                         
 ---------------------------------------------------------------------
 Center     Atomic      Atomic             Coordinates (Angstroms)
 Number     Number       Type             X           Y           Z
 ---------------------------------------------------------------------
      1          6           0       -2.254653    0.515839   -0.000717
      2          6           0       -2.063887   -0.878428   -0.000154
      3          6           0       -0.735306   -1.514504    0.000483
      4          6           0        0.330801   -0.668086    0.000358
      5          6           0        0.168398    0.826382   -0.000115
      6          6           0       -1.160288    1.409179   -0.000438
      7          7           0        1.733669   -0.960978    0.000563
      8          6           0        1.394903    1.406719    0.000308
      9          6           0        2.329779    0.110989    0.000103
     10          1           0        2.755994   -2.277406   -0.002934
     11          1           0        1.734947    2.455332    0.000568
     12          1           0        3.463799    0.039134   -0.000261
     13          1           0       -2.929793   -1.566197    0.000019
     14          1           0       -0.638025   -2.605864    0.001325
     15          1           0       -3.276604    0.930083   -0.001036
     16          1           0       -1.304476    2.503227   -0.000590
 ---------------------------------------------------------------------
 Rotational constants (GHZ):           3.5598406           1.6230133           1.1147660
 Standard basis: 6-31+G(d) (6D, 7F)
 There are   185 symmetry adapted cartesian basis functions of A   symmetry.
 There are   185 symmetry adapted basis functions of A   symmetry.
   185 basis functions,   316 primitive gaussians,   185 cartesian basis functions
    31 alpha electrons       31 beta electrons
       nuclear repulsion energy       391.9851440919 Hartrees.
 NAtoms=   16 NActive=   16 NUniq=   16 SFac= 1.00D+00 NAtFMM=   60 NAOKFM=F Big=F
 Integral buffers will be    131072 words long.
 Regular integral format.
 Two-electron integral symmetry is turned on.
 One-electron integrals computed using PRISM.
 NBasis=   185 RedAO= T EigKep=  1.33D-06  NBF=   185
 NBsUse=   185 1.00D-06 EigRej= -1.00D+00 NBFU=   185
 Initial guess from the checkpoint file:  "FuncsBVP86-V-3rd.chk"
 B after Tr=    -0.000000   -0.000000    0.000000
         Rot=    0.999856    0.000072    0.000058   -0.016999 Ang=   1.95 deg.
 ExpMin= 4.38D-02 ExpMax= 4.17D+03 ExpMxC= 6.27D+02 IAcc=3 IRadAn=         5 AccDes= 0.00D+00
 Harris functional with IExCor=  418 and IRadAn=       5 diagonalized for initial guess.
 HarFok:  IExCor=  418 AccDes= 0.00D+00 IRadAn=         5 IDoV= 1 UseB2=F ITyADJ=14
 ICtDFT=  3500011 ScaDFX=  1.000000  1.000000  1.000000  1.000000
 FoFCou: FMM=F IPFlag=           0 FMFlag=      100000 FMFlg1=           0
         NFxFlg=           0 DoJE=T BraDBF=F KetDBF=T FulRan=T
         wScrn=  0.000000 ICntrl=       500 IOpCl=  0 I1Cent=   200000004 NGrid=           0
         NMat0=    1 NMatS0=      1 NMatT0=    0 NMatD0=    1 NMtDS0=    0 NMtDT0=    0
 Petite list used in FoFCou.
 Keep J ints in memory in canonical form, NReq=152071459.
 Requested convergence on RMS density matrix=1.00D-08 within 128 cycles.
 Requested convergence on MAX density matrix=1.00D-06.
 Requested convergence on             energy=1.00D-06.
 No special actions if energy rises.
 EnCoef did     4 forward-backward iterations
 EnCoef did     2 forward-backward iterations
 EnCoef did     6 forward-backward iterations
 EnCoef did   100 forward-backward iterations
 EnCoef did   100 forward-backward iterations
 EnCoef did   100 forward-backward iterations
 EnCoef did   100 forward-backward iterations
 EnCoef did   100 forward-backward iterations
 EnCoef did   100 forward-backward iterations
 EnCoef did   100 forward-backward iterations
 EnCoef did   100 forward-backward iterations
 EnCoef did    99 forward-backward iterations
 Rare condition: small coef for last iteration: -0.440D-15
 EnCoef did   100 forward-backward iterations
 EnCoef did   100 forward-backward iterations
 Rare condition: small coef for last iteration: -0.421D-15
 EnCoef did   100 forward-backward iterations
 EnCoef did   100 forward-backward iterations
 EnCoef did   100 forward-backward iterations
 Rare condition: small coef for last iteration: -0.135D-14
 EnCoef did   100 forward-backward iterations
 EnCoef did   100 forward-backward iterations
 Rare condition: small coef for last iteration: -0.711D-15
 EnCoef did   100 forward-backward iterations
 EnCoef did   100 forward-backward iterations
 Rare condition: small coef for last iteration:  0.336D-14
 EnCoef did   100 forward-backward iterations
 EnCoef did   100 forward-backward iterations
 EnCoef did   100 forward-backward iterations
 EnCoef did   100 forward-backward iterations
 EnCoef did   100 forward-backward iterations
 Rare condition: small coef for last iteration:  0.000D+00
 EnCoef did   100 forward-backward iterations
 EnCoef did   100 forward-backward iterations
 Rare condition: small coef for last iteration:  0.180D-14
 EnCoef did   100 forward-backward iterations
 EnCoef did   100 forward-backward iterations
 EnCoef did   100 forward-backward iterations
 EnCoef did   100 forward-backward iterations
 Rare condition: small coef for last iteration:  0.165D-14
 EnCoef did   100 forward-backward iterations
 EnCoef did   100 forward-backward iterations
 Rare condition: small coef for last iteration: -0.111D-14
 EnCoef did   100 forward-backward iterations
 Rare condition: small coef for last iteration:  0.644D-05
 EnCoef did   100 forward-backward iterations
 EnCoef did   100 forward-backward iterations
 EnCoef did   100 forward-backward iterations
 Rare condition: small coef for last iteration:  0.000D+00
 EnCoef did   100 forward-backward iterations
 EnCoef did   100 forward-backward iterations
 Rare condition: small coef for last iteration:  0.122D-14
 EnCoef did   100 forward-backward iterations
 EnCoef did   100 forward-backward iterations
 Rare condition: small coef for last iteration:  0.147D-14
 EnCoef did   100 forward-backward iterations
 EnCoef did   100 forward-backward iterations
 EnCoef did   100 forward-backward iterations
 EnCoef did   100 forward-backward iterations
 Rare condition: small coef for last iteration:  0.000D+00
 EnCoef did   100 forward-backward iterations
 EnCoef did   100 forward-backward iterations
 EnCoef did   100 forward-backward iterations
 EnCoef did   100 forward-backward iterations
 Rare condition: small coef for last iteration:  0.111D-15
 EnCoef did   100 forward-backward iterations
 EnCoef did   100 forward-backward iterations
 Rare condition: small coef for last iteration: -0.809D-15
 EnCoef did   100 forward-backward iterations
 EnCoef did    51 forward-backward iterations
 Rare condition: small coef for last iteration:  0.621D-15
 EnCoef did   100 forward-backward iterations
 EnCoef did   100 forward-backward iterations
 EnCoef did   100 forward-backward iterations
 EnCoef did   100 forward-backward iterations
 Rare condition: small coef for last iteration:  0.103D-14
 EnCoef did   100 forward-backward iterations
 EnCoef did   100 forward-backward iterations
 Rare condition: small coef for last iteration: -0.288D-14
 EnCoef did   100 forward-backward iterations
 EnCoef did   100 forward-backward iterations
 Rare condition: small coef for last iteration:  0.171D-14
 EnCoef did   100 forward-backward iterations
 EnCoef did   100 forward-backward iterations
 EnCoef did   100 forward-backward iterations
 EnCoef did   100 forward-backward iterations
 EnCoef did   100 forward-backward iterations
 Rare condition: small coef for last iteration:  0.137D-14
 EnCoef did   100 forward-backward iterations
 EnCoef did   100 forward-backward iterations
 EnCoef did   100 forward-backward iterations
 EnCoef did   100 forward-backward iterations
 Rare condition: small coef for last iteration: -0.609D-15
 EnCoef did   100 forward-backward iterations
 EnCoef did   100 forward-backward iterations
 EnCoef did   100 forward-backward iterations
 EnCoef did   100 forward-backward iterations
 Rare condition: small coef for last iteration:  0.777D-15
 EnCoef did   100 forward-backward iterations
 EnCoef did   100 forward-backward iterations
 EnCoef did   100 forward-backward iterations
 EnCoef did    91 forward-backward iterations
 Rare condition: small coef for last iteration: -0.666D-15
 EnCoef did   100 forward-backward iterations
 EnCoef did   100 forward-backward iterations
 Rare condition: small coef for last iteration: -0.177D-14
 EnCoef did   100 forward-backward iterations
 EnCoef did   100 forward-backward iterations
 EnCoef did   100 forward-backward iterations
 EnCoef did   100 forward-backward iterations
 Rare condition: small coef for last iteration:  0.174D-14
 EnCoef did   100 forward-backward iterations
 EnCoef did   100 forward-backward iterations
 EnCoef did   100 forward-backward iterations
 EnCoef did   100 forward-backward iterations
 Rare condition: small coef for last iteration:  0.000D+00
 EnCoef did   100 forward-backward iterations
 EnCoef did   100 forward-backward iterations
 Rare condition: small coef for last iteration: -0.274D-14
 EnCoef did   100 forward-backward iterations
 EnCoef did   100 forward-backward iterations
 EnCoef did   100 forward-backward iterations
 EnCoef did   100 forward-backward iterations
 Rare condition: small coef for last iteration:  0.825D-15
 EnCoef did   100 forward-backward iterations
 EnCoef did   100 forward-backward iterations
 Rare condition: small coef for last iteration: -0.330D-14
 EnCoef did   100 forward-backward iterations
 EnCoef did   100 forward-backward iterations
 Rare condition: small coef for last iteration: -0.888D-15
 EnCoef did   100 forward-backward iterations
 EnCoef did   100 forward-backward iterations
 EnCoef did   100 forward-backward iterations
 Rare condition: small coef for last iteration: -0.444D-15
 EnCoef did   100 forward-backward iterations
 EnCoef did   100 forward-backward iterations
 Rare condition: small coef for last iteration:  0.111D-15
 EnCoef did   100 forward-backward iterations
 EnCoef did   100 forward-backward iterations
 EnCoef did   100 forward-backward iterations
 Rare condition: small coef for last iteration:  0.000D+00
 EnCoef did   100 forward-backward iterations
 EnCoef did   100 forward-backward iterations
 EnCoef did   100 forward-backward iterations
 EnCoef did   100 forward-backward iterations
 Rare condition: small coef for last iteration: -0.284D-14
 EnCoef did   100 forward-backward iterations
 EnCoef did   100 forward-backward iterations
 Rare condition: small coef for last iteration: -0.161D-14
 EnCoef did   100 forward-backward iterations
 EnCoef did   100 forward-backward iterations
 EnCoef did   100 forward-backward iterations
 EnCoef did   100 forward-backward iterations
 Rare condition: small coef for last iteration: -0.166D-14
 >>>>>>>>>> Convergence criterion not met.
 SCF Done:  E(RB-VP86) =  -363.184623032     A.U. after  129 cycles
            NFock=128  Conv=0.22D+00     -V/T= 2.0105
 Convergence failure -- run terminated.
 Error termination via Lnk1e in /cm/shared/apps/spack/cpu/opt/spack/linux-centos8-zen/gcc-8.3.1/gaussian-16.C.01-po5bqktfeugvmjyga3v7eigbecnokxng/g16/l502.exe at Mon Jun 14 12:37:58 2021.
 Job cpu time:       0 days  2 hours 37 minutes  7.8 seconds.
 Elapsed time:       0 days  0 hours 40 minutes  2.5 seconds.
 File lengths (MBytes):  RWF=    239 Int=      0 D2E=      0 Chk=     11 Scr=      1
