 Entering Gaussian System, Link 0=/cm/shared/apps/spack/cpu/opt/spack/linux-centos8-zen/gcc-8.3.1/gaussian-16.C.01-po5bqktfeugvmjyga3v7eigbecnokxng/g16/g16
 Initial command:
 /cm/shared/apps/spack/cpu/opt/spack/linux-centos8-zen/gcc-8.3.1/gaussian-16.C.01-po5bqktfeugvmjyga3v7eigbecnokxng/g16/l1.exe "/scratch/cwaldt/job_3576371/Gau-22938.inp" -scrdir="/scratch/cwaldt/job_3576371/"
 Entering Link 1 = /cm/shared/apps/spack/cpu/opt/spack/linux-centos8-zen/gcc-8.3.1/gaussian-16.C.01-po5bqktfeugvmjyga3v7eigbecnokxng/g16/l1.exe PID=     22939.
  
 Copyright (c) 1988-2019, Gaussian, Inc.  All Rights Reserved.
  
 This is part of the Gaussian(R) 16 program.  It is based on
 the Gaussian(R) 09 system (copyright 2009, Gaussian, Inc.),
 the Gaussian(R) 03 system (copyright 2003, Gaussian, Inc.),
 the Gaussian(R) 98 system (copyright 1998, Gaussian, Inc.),
 the Gaussian(R) 94 system (copyright 1995, Gaussian, Inc.),
 the Gaussian 92(TM) system (copyright 1992, Gaussian, Inc.),
 the Gaussian 90(TM) system (copyright 1990, Gaussian, Inc.),
 the Gaussian 88(TM) system (copyright 1988, Gaussian, Inc.),
 the Gaussian 86(TM) system (copyright 1986, Carnegie Mellon
 University), and the Gaussian 82(TM) system (copyright 1983,
 Carnegie Mellon University). Gaussian is a federally registered
 trademark of Gaussian, Inc.
  
 This software contains proprietary and confidential information,
 including trade secrets, belonging to Gaussian, Inc.
  
 This software is provided under written license and may be
 used, copied, transmitted, or stored only in accord with that
 written license.
  
 The following legend is applicable only to US Government
 contracts under FAR:
  
                    RESTRICTED RIGHTS LEGEND
  
 Use, reproduction and disclosure by the US Government is
 subject to restrictions as set forth in subparagraphs (a)
 and (c) of the Commercial Computer Software - Restricted
 Rights clause in FAR 52.227-19.
  
 Gaussian, Inc.
 340 Quinnipiac St., Bldg. 40, Wallingford CT 06492
  
  
 ---------------------------------------------------------------
 Warning -- This program may not be used in any manner that
 competes with the business of Gaussian, Inc. or will provide
 assistance to any competitor of Gaussian, Inc.  The licensee
 of this program is prohibited from giving any competitor of
 Gaussian, Inc. access to this program.  By using this program,
 the user acknowledges that Gaussian, Inc. is engaged in the
 business of creating and licensing software in the field of
 computational chemistry and represents and warrants to the
 licensee that it is not a competitor of Gaussian, Inc. and that
 it will not use this program in any manner prohibited above.
 ---------------------------------------------------------------
  

 Cite this work as:
 Gaussian 16, Revision C.01,
 M. J. Frisch, G. W. Trucks, H. B. Schlegel, G. E. Scuseria, 
 M. A. Robb, J. R. Cheeseman, G. Scalmani, V. Barone, 
 G. A. Petersson, H. Nakatsuji, X. Li, M. Caricato, A. V. Marenich, 
 J. Bloino, B. G. Janesko, R. Gomperts, B. Mennucci, H. P. Hratchian, 
 J. V. Ortiz, A. F. Izmaylov, J. L. Sonnenberg, D. Williams-Young, 
 F. Ding, F. Lipparini, F. Egidi, J. Goings, B. Peng, A. Petrone, 
 T. Henderson, D. Ranasinghe, V. G. Zakrzewski, J. Gao, N. Rega, 
 G. Zheng, W. Liang, M. Hada, M. Ehara, K. Toyota, R. Fukuda, 
 J. Hasegawa, M. Ishida, T. Nakajima, Y. Honda, O. Kitao, H. Nakai, 
 T. Vreven, K. Throssell, J. A. Montgomery, Jr., J. E. Peralta, 
 F. Ogliaro, M. J. Bearpark, J. J. Heyd, E. N. Brothers, K. N. Kudin, 
 V. N. Staroverov, T. A. Keith, R. Kobayashi, J. Normand, 
 K. Raghavachari, A. P. Rendell, J. C. Burant, S. S. Iyengar, 
 J. Tomasi, M. Cossi, J. M. Millam, M. Klene, C. Adamo, R. Cammi, 
 J. W. Ochterski, R. L. Martin, K. Morokuma, O. Farkas, 
 J. B. Foresman, and D. J. Fox, Gaussian, Inc., Wallingford CT, 2019.
 
 ******************************************
 Gaussian 16:  AS64L-G16RevC.01  3-Jul-2019
                23-Jun-2021 
 ******************************************
 %nprocshared=4
 Will use up to    4 processors via shared memory.
 %chk=FuncsMN15-V-3rd.chk
 %Mem=3GB
 ----------------------------------------------------------
 # td= (nstates=6, root=3) MN15/6-31+G* Opt density=current
 ----------------------------------------------------------
 1/18=20,19=15,26=3,38=1/1,3;
 2/9=110,12=2,17=6,18=5,40=1/2;
 3/5=1,6=6,7=11,11=9,25=1,30=1,71=1,74=-73/1,2,3,8;
 4//1;
 5/5=2,38=5/2;
 8/6=1,10=2,107=3,108=6/1;
 9/8=3,15=2,41=6,42=1,70=2/14;
 10/5=4,28=3/2;
 6/7=2,8=2,9=2,10=2,22=-1/1;
 7/12=6,13=5,14=3/1,2,3,16;
 1/18=20,19=15,26=3/3(2);
 2/9=110/2;
 99//99;
 2/9=110/2;
 3/5=1,6=6,7=11,11=9,25=1,30=1,71=1,74=-73/1,2,3,8;
 4/5=5,16=3,69=1/1;
 5/5=2,38=5/2;
 8/6=1,10=2,107=3,108=6/1;
 9/8=3,15=2,41=6,42=1,49=4,70=2/14;
 10/5=4,28=3/2;
 7/12=6,13=5,14=3/1,2,3,16;
 1/18=20,19=15,26=3/3(-8);
 2/9=110/2;
 6/7=2,8=2,9=2,10=2,22=-1/1;
 99/9=10/99;
 ---------------
 FuncsMN15-V-3rd
 ---------------
 Symbolic Z-matrix:
 Charge =  0 Multiplicity = 1
 C                    -2.15106   0.68921   0.00009 
 C                    -2.12793  -0.71582   0.00008 
 C                    -0.9323   -1.4131   -0.00001 
 C                     0.24691  -0.6702   -0.00004 
 C                     0.24819   0.7483    0. 
 C                    -0.97947   1.42353   0.00003 
 N                     1.56177  -1.07759  -0.00029 
 C                     1.62013   1.1629   -0.00016 
 C                     2.38201   0.03081   0.00025 
 H                     1.87632  -2.03001   0.00044 
 H                     1.99217   2.17301  -0.00035 
 H                     3.45255  -0.08243   0.00041 
 H                    -3.06159  -1.26202   0.00009 
 H                    -0.91725  -2.49534  -0.00007 
 H                    -3.1042    1.20079   0.00009 
 H                    -1.00935   2.50542  -0.00002 
 

 GradGradGradGradGradGradGradGradGradGradGradGradGradGradGradGradGradGrad
 Berny optimization.
 Initialization pass.
                           ----------------------------
                           !    Initial Parameters    !
                           ! (Angstroms and Degrees)  !
 --------------------------                            --------------------------
 ! Name  Definition              Value          Derivative Info.                !
 --------------------------------------------------------------------------------
 ! R1    R(1,2)                  1.4052         estimate D2E/DX2                !
 ! R2    R(1,6)                  1.3827         estimate D2E/DX2                !
 ! R3    R(1,15)                 1.0818         estimate D2E/DX2                !
 ! R4    R(2,3)                  1.3841         estimate D2E/DX2                !
 ! R5    R(2,13)                 1.0817         estimate D2E/DX2                !
 ! R6    R(3,4)                  1.3937         estimate D2E/DX2                !
 ! R7    R(3,14)                 1.0823         estimate D2E/DX2                !
 ! R8    R(4,5)                  1.4185         estimate D2E/DX2                !
 ! R9    R(4,7)                  1.3765         estimate D2E/DX2                !
 ! R10   R(5,6)                  1.4011         estimate D2E/DX2                !
 ! R11   R(5,8)                  1.4332         estimate D2E/DX2                !
 ! R12   R(6,16)                 1.0823         estimate D2E/DX2                !
 ! R13   R(7,9)                  1.3789         estimate D2E/DX2                !
 ! R14   R(7,10)                 1.003          estimate D2E/DX2                !
 ! R15   R(8,9)                  1.3646         estimate D2E/DX2                !
 ! R16   R(8,11)                 1.0764         estimate D2E/DX2                !
 ! R17   R(9,12)                 1.0765         estimate D2E/DX2                !
 ! A1    A(2,1,6)              121.1349         estimate D2E/DX2                !
 ! A2    A(2,1,15)             119.1671         estimate D2E/DX2                !
 ! A3    A(6,1,15)             119.698          estimate D2E/DX2                !
 ! A4    A(1,2,3)              121.1938         estimate D2E/DX2                !
 ! A5    A(1,2,13)             119.3846         estimate D2E/DX2                !
 ! A6    A(3,2,13)             119.4217         estimate D2E/DX2                !
 ! A7    A(2,3,4)              117.5387         estimate D2E/DX2                !
 ! A8    A(2,3,14)             121.0469         estimate D2E/DX2                !
 ! A9    A(4,3,14)             121.4144         estimate D2E/DX2                !
 ! A10   A(3,4,5)              122.2626         estimate D2E/DX2                !
 ! A11   A(3,4,7)              130.5743         estimate D2E/DX2                !
 ! A12   A(5,4,7)              107.163          estimate D2E/DX2                !
 ! A13   A(4,5,6)              118.7594         estimate D2E/DX2                !
 ! A14   A(4,5,8)              106.8666         estimate D2E/DX2                !
 ! A15   A(6,5,8)              134.374          estimate D2E/DX2                !
 ! A16   A(1,6,5)              119.1105         estimate D2E/DX2                !
 ! A17   A(1,6,16)             120.4966         estimate D2E/DX2                !
 ! A18   A(5,6,16)             120.3928         estimate D2E/DX2                !
 ! A19   A(4,7,9)              109.2874         estimate D2E/DX2                !
 ! A20   A(4,7,10)             125.4909         estimate D2E/DX2                !
 ! A21   A(9,7,10)             125.2217         estimate D2E/DX2                !
 ! A22   A(5,8,9)              107.125          estimate D2E/DX2                !
 ! A23   A(5,8,11)             127.0344         estimate D2E/DX2                !
 ! A24   A(9,8,11)             125.8405         estimate D2E/DX2                !
 ! A25   A(7,9,8)              109.5578         estimate D2E/DX2                !
 ! A26   A(7,9,12)             120.4645         estimate D2E/DX2                !
 ! A27   A(8,9,12)             129.9776         estimate D2E/DX2                !
 ! D1    D(6,1,2,3)             -0.0008         estimate D2E/DX2                !
 ! D2    D(6,1,2,13)          -179.9981         estimate D2E/DX2                !
 ! D3    D(15,1,2,3)           179.996          estimate D2E/DX2                !
 ! D4    D(15,1,2,13)           -0.0013         estimate D2E/DX2                !
 ! D5    D(2,1,6,5)             -0.0018         estimate D2E/DX2                !
 ! D6    D(2,1,6,16)           179.9965         estimate D2E/DX2                !
 ! D7    D(15,1,6,5)          -179.9986         estimate D2E/DX2                !
 ! D8    D(15,1,6,16)           -0.0003         estimate D2E/DX2                !
 ! D9    D(1,2,3,4)              0.002          estimate D2E/DX2                !
 ! D10   D(1,2,3,14)          -179.9968         estimate D2E/DX2                !
 ! D11   D(13,2,3,4)           179.9992         estimate D2E/DX2                !
 ! D12   D(13,2,3,14)            0.0005         estimate D2E/DX2                !
 ! D13   D(2,3,4,5)             -0.0005         estimate D2E/DX2                !
 ! D14   D(2,3,4,7)           -179.9911         estimate D2E/DX2                !
 ! D15   D(14,3,4,5)           179.9982         estimate D2E/DX2                !
 ! D16   D(14,3,4,7)             0.0076         estimate D2E/DX2                !
 ! D17   D(3,4,5,6)             -0.002          estimate D2E/DX2                !
 ! D18   D(3,4,5,8)           -179.9955         estimate D2E/DX2                !
 ! D19   D(7,4,5,6)            179.9905         estimate D2E/DX2                !
 ! D20   D(7,4,5,8)             -0.003          estimate D2E/DX2                !
 ! D21   D(3,4,7,9)           -179.98           estimate D2E/DX2                !
 ! D22   D(3,4,7,10)            -0.0649         estimate D2E/DX2                !
 ! D23   D(5,4,7,9)              0.0284         estimate D2E/DX2                !
 ! D24   D(5,4,7,10)           179.9434         estimate D2E/DX2                !
 ! D25   D(4,5,6,1)              0.0031         estimate D2E/DX2                !
 ! D26   D(4,5,6,16)          -179.9951         estimate D2E/DX2                !
 ! D27   D(8,5,6,1)            179.9944         estimate D2E/DX2                !
 ! D28   D(8,5,6,16)            -0.0038         estimate D2E/DX2                !
 ! D29   D(4,5,8,9)             -0.0234         estimate D2E/DX2                !
 ! D30   D(4,5,8,11)           179.9883         estimate D2E/DX2                !
 ! D31   D(6,5,8,9)            179.9846         estimate D2E/DX2                !
 ! D32   D(6,5,8,11)            -0.0037         estimate D2E/DX2                !
 ! D33   D(4,7,9,8)             -0.0444         estimate D2E/DX2                !
 ! D34   D(4,7,9,12)           179.9847         estimate D2E/DX2                !
 ! D35   D(10,7,9,8)          -179.9597         estimate D2E/DX2                !
 ! D36   D(10,7,9,12)            0.0693         estimate D2E/DX2                !
 ! D37   D(5,8,9,7)              0.0414         estimate D2E/DX2                !
 ! D38   D(5,8,9,12)          -179.9913         estimate D2E/DX2                !
 ! D39   D(11,8,9,7)          -179.9702         estimate D2E/DX2                !
 ! D40   D(11,8,9,12)           -0.0029         estimate D2E/DX2                !
 --------------------------------------------------------------------------------
 Trust Radius=3.00D-01 FncErr=1.00D-07 GrdErr=1.00D-06 EigMax=2.50D+02 EigMin=1.00D-04
 Number of steps in this run=     94 maximum allowed number of steps=    100.
 GradGradGradGradGradGradGradGradGradGradGradGradGradGradGradGradGradGrad

                          Input orientation:                          
 ---------------------------------------------------------------------
 Center     Atomic      Atomic             Coordinates (Angstroms)
 Number     Number       Type             X           Y           Z
 ---------------------------------------------------------------------
      1          6           0       -2.151063    0.689208    0.000088
      2          6           0       -2.127927   -0.715818    0.000075
      3          6           0       -0.932297   -1.413100   -0.000011
      4          6           0        0.246911   -0.670201   -0.000042
      5          6           0        0.248193    0.748299    0.000000
      6          6           0       -0.979474    1.423526    0.000032
      7          7           0        1.561774   -1.077592   -0.000285
      8          6           0        1.620133    1.162900   -0.000157
      9          6           0        2.382013    0.030806    0.000248
     10          1           0        1.876315   -2.030011    0.000438
     11          1           0        1.992173    2.173010   -0.000348
     12          1           0        3.452549   -0.082425    0.000408
     13          1           0       -3.061594   -1.262020    0.000088
     14          1           0       -0.917252   -2.495342   -0.000073
     15          1           0       -3.104203    1.200785    0.000090
     16          1           0       -1.009348    2.505421   -0.000015
 ---------------------------------------------------------------------
                    Distance matrix (angstroms):
                    1          2          3          4          5
     1  C    0.000000
     2  C    1.405216   0.000000
     3  C    2.430039   1.384100   0.000000
     4  C    2.756496   2.375276   1.393711   0.000000
     5  C    2.399984   2.790983   2.462763   1.418501   0.000000
     6  C    1.382694   2.428114   2.837018   2.426461   1.401106
     7  N    4.111781   3.707395   2.516536   1.376529   2.249305
     8  C    3.800829   4.192557   3.626386   2.290414   1.433218
     9  C    4.580641   4.571324   3.615178   2.247236   2.251218
    10  H    4.859416   4.214387   2.875566   2.122273   3.220216
    11  H    4.400917   5.031953   4.627387   3.336134   2.251948
    12  H    5.656491   5.616307   4.582311   3.259079   3.310287
    13  H    2.153220   1.081698   2.134650   3.361020   3.872476
    14  H    3.415208   2.152310   1.082347   2.164813   3.446661
    15  H    1.081752   2.150926   3.398466   3.838040   3.382795
    16  H    2.145261   3.409927   3.919278   3.415079   2.160761
                    6          7          8          9         10
     6  C    0.000000
     7  N    3.565604   0.000000
     8  C    2.612639   2.241252   0.000000
     9  C    3.638580   1.378890   1.364587   0.000000
    10  H    4.481345   1.003015   3.203172   2.121956   0.000000
    11  H    3.064704   3.278972   1.076446   2.177387   4.204618
    12  H    4.680888   2.136677   2.215532   1.076508   2.505515
    13  H    3.398144   4.627045   5.272457   5.595021   4.997275
    14  H    3.919362   2.855798   4.452085   4.155307   2.832058
    15  H    2.136372   5.192528   4.724488   5.609583   5.936632
    16  H    1.082307   4.410062   2.952378   4.198220   5.375611
                   11         12         13         14         15
    11  H    0.000000
    12  H    2.686947   0.000000
    13  H    6.110646   6.620083   0.000000
    14  H    5.500751   4.991726   2.473719   0.000000
    15  H    5.188282   6.681139   2.463174   4.294661   0.000000
    16  H    3.019872   5.158049   4.290143   5.001611   2.467892
                   16
    16  H    0.000000
 Stoichiometry    C8H7N
 Framework group  C1[X(C8H7N)]
 Deg. of freedom    42
 Full point group                 C1      NOp   1
 Largest Abelian subgroup         C1      NOp   1
 Largest concise Abelian subgroup C1      NOp   1
                         Standard orientation:                         
 ---------------------------------------------------------------------
 Center     Atomic      Atomic             Coordinates (Angstroms)
 Number     Number       Type             X           Y           Z
 ---------------------------------------------------------------------
      1          6           0       -2.151063    0.689208    0.000088
      2          6           0       -2.127927   -0.715818    0.000075
      3          6           0       -0.932297   -1.413100   -0.000011
      4          6           0        0.246911   -0.670201   -0.000042
      5          6           0        0.248193    0.748299    0.000000
      6          6           0       -0.979474    1.423526    0.000032
      7          7           0        1.561774   -1.077592   -0.000285
      8          6           0        1.620133    1.162900   -0.000157
      9          6           0        2.382013    0.030806    0.000248
     10          1           0        1.876315   -2.030011    0.000438
     11          1           0        1.992173    2.173010   -0.000348
     12          1           0        3.452549   -0.082425    0.000408
     13          1           0       -3.061594   -1.262020    0.000088
     14          1           0       -0.917252   -2.495342   -0.000073
     15          1           0       -3.104203    1.200785    0.000090
     16          1           0       -1.009348    2.505421   -0.000015
 ---------------------------------------------------------------------
 Rotational constants (GHZ):           3.9080822           1.6429452           1.1566805
 Standard basis: 6-31+G(d) (6D, 7F)
 There are   185 symmetry adapted cartesian basis functions of A   symmetry.
 There are   185 symmetry adapted basis functions of A   symmetry.
   185 basis functions,   316 primitive gaussians,   185 cartesian basis functions
    31 alpha electrons       31 beta electrons
       nuclear repulsion energy       401.3368668897 Hartrees.
 NAtoms=   16 NActive=   16 NUniq=   16 SFac= 1.00D+00 NAtFMM=   60 NAOKFM=F Big=F
 Integral buffers will be    131072 words long.
 Regular integral format.
 Two-electron integral symmetry is turned on.
 One-electron integrals computed using PRISM.
 NBasis=   185 RedAO= T EigKep=  1.26D-06  NBF=   185
 NBsUse=   185 1.00D-06 EigRej= -1.00D+00 NBFU=   185
 ExpMin= 4.38D-02 ExpMax= 4.17D+03 ExpMxC= 6.27D+02 IAcc=3 IRadAn=         5 AccDes= 0.00D+00
 Harris functional with IExCor= 1009 and IRadAn=       5 diagonalized for initial guess.
 HarFok:  IExCor= 1009 AccDes= 0.00D+00 IRadAn=         5 IDoV= 1 UseB2=F ITyADJ=14
 ICtDFT=  3500011 ScaDFX=  1.000000  1.000000  1.000000  1.000000
 FoFCou: FMM=F IPFlag=           0 FMFlag=      100000 FMFlg1=           0
         NFxFlg=           0 DoJE=T BraDBF=F KetDBF=T FulRan=T
         wScrn=  0.000000 ICntrl=       500 IOpCl=  0 I1Cent=   200000004 NGrid=           0
         NMat0=    1 NMatS0=      1 NMatT0=    0 NMatD0=    1 NMtDS0=    0 NMtDT0=    0
 Petite list used in FoFCou.
 Keep R1 ints in memory in canonical form, NReq=152074523.
 Requested convergence on RMS density matrix=1.00D-08 within 128 cycles.
 Requested convergence on MAX density matrix=1.00D-06.
 Requested convergence on             energy=1.00D-06.
 No special actions if energy rises.
 SCF Done:  E(RMN15) =  -363.386843859     A.U. after   15 cycles
            NFock= 15  Conv=0.71D-08     -V/T= 2.0149
 DoSCS=F DFT=T ScalE2(SS,OS)=  1.000000  1.000000
 ExpMin= 4.38D-02 ExpMax= 4.17D+03 ExpMxC= 6.27D+02 IAcc=3 IRadAn=         5 AccDes= 0.00D+00
 HarFok:  IExCor=  205 AccDes= 0.00D+00 IRadAn=         5 IDoV=-2 UseB2=F ITyADJ=14
 ICtDFT= 12500011 ScaDFX=  1.000000  1.000000  1.000000  1.000000
 Range of M.O.s used for correlation:    10   185
 NBasis=   185 NAE=    31 NBE=    31 NFC=     9 NFV=     0
 NROrb=    176 NOA=    22 NOB=    22 NVA=   154 NVB=   154

 **** Warning!!: The largest alpha MO coefficient is  0.19992148D+03

 Orbital symmetries:
       Occupied  (A) (A) (A) (A) (A) (A) (A) (A) (A) (A) (A) (A)
                 (A) (A) (A) (A) (A) (A) (A) (A) (A) (A) (A) (A)
                 (A) (A) (A) (A) (A) (A) (A)
       Virtual   (A) (A) (A) (A) (A) (A) (A) (A) (A) (A) (A) (A)
                 (A) (A) (A) (A) (A) (A) (A) (A) (A) (A) (A) (A)
                 (A) (A) (A) (A) (A) (A) (A) (A) (A) (A) (A) (A)
                 (A) (A) (A) (A) (A) (A) (A) (A) (A) (A) (A) (A)
                 (A) (A) (A) (A) (A) (A) (A) (A) (A) (A) (A) (A)
                 (A) (A) (A) (A) (A) (A) (A) (A) (A) (A) (A) (A)
                 (A) (A) (A) (A) (A) (A) (A) (A) (A) (A) (A) (A)
                 (A) (A) (A) (A) (A) (A) (A) (A) (A) (A) (A) (A)
                 (A) (A) (A) (A) (A) (A) (A) (A) (A) (A) (A) (A)
                 (A) (A) (A) (A) (A) (A) (A) (A) (A) (A) (A) (A)
                 (A) (A) (A) (A) (A) (A) (A) (A) (A) (A) (A) (A)
                 (A) (A) (A) (A) (A) (A) (A) (A) (A) (A) (A) (A)
                 (A) (A) (A) (A) (A) (A) (A) (A) (A) (A)
    24 initial guesses have been made.
 Convergence on wavefunction:    0.000001000000000
 Iteration     1 Dimension    24 NMult     0 NNew     24
 CISAX will form    24 AO SS matrices at one time.
 New state      1 was old state      2
 New state      2 was old state      1
 New state      4 was old state      5
 New state      5 was old state      6
 New state      6 was old state      8
 Iteration     2 Dimension    36 NMult    24 NNew     12
 New state      1 was old state      2
 New state      2 was old state      1
 Iteration     3 Dimension    48 NMult    36 NNew     12
 Iteration     4 Dimension    60 NMult    48 NNew     12
 No map to state      4
 New state      5 was old state      4
 New state      6 was old state      5
 Iteration     5 Dimension    72 NMult    60 NNew     12
 Iteration     6 Dimension    84 NMult    72 NNew     12
 Iteration     7 Dimension    96 NMult    84 NNew     12
 Iteration     8 Dimension   108 NMult    96 NNew     12
 Iteration     9 Dimension   120 NMult   108 NNew     12
 Iteration    10 Dimension   130 NMult   120 NNew     10
 Iteration    11 Dimension   136 NMult   130 NNew      6
 Iteration    12 Dimension   140 NMult   136 NNew      4
 Iteration    13 Dimension   142 NMult   140 NNew      2
 ***********************************************************************
 Excited states from <AA,BB:AA,BB> singles matrix:
 ***********************************************************************
 
 Ground to excited state transition densities written to RWF  633
 Ground to excited state transition electric dipole moments (Au):
       state          X           Y           Z        Dip. S.      Osc.
         1        -0.2982      0.6623     -0.0001      0.5276      0.0648
         2        -0.7964      0.1735     -0.0001      0.6643      0.0824
         3         0.0003     -0.0001     -0.1868      0.0349      0.0051
         4        -1.9051     -0.6643     -0.0003      4.0709      0.6228
         5         0.0010      0.0006     -0.1854      0.0344      0.0054
         6        -0.0014     -0.0010      0.0775      0.0060      0.0010
 Ground to excited state transition velocity dipole moments (Au):
       state          X           Y           Z        Dip. S.      Osc.
         1         0.0496     -0.1350      0.0000      0.0207      0.0749
         2         0.1425     -0.0367      0.0000      0.0217      0.0776
         3        -0.0001      0.0000      0.0312      0.0010      0.0030
         4         0.4402      0.1569      0.0001      0.2184      0.6346
         5        -0.0002     -0.0001      0.0452      0.0020      0.0058
         6         0.0003      0.0002     -0.0183      0.0003      0.0009
 Ground to excited state transition magnetic dipole moments (Au):
       state          X           Y           Z
         1         0.0003      0.0000      0.1520
         2         0.0000     -0.0002      0.0077
         3         0.1216     -0.1500     -0.0000
         4        -0.0000     -0.0007     -0.7584
         5         0.1787     -0.2966      0.0007
         6         0.4847     -0.0879     -0.0003
 Ground to excited state transition velocity quadrupole moments (Au):
       state          XX          YY          ZZ          XY          XZ          YZ
         1         0.1687     -0.0641     -0.0063      0.0118      0.0001      0.0001
         2         0.1554     -0.1709      0.0199     -0.0014      0.0001     -0.0000
         3        -0.0001      0.0000      0.0001     -0.0000      0.1225      0.0528
         4         0.1233     -0.1267     -0.0308     -0.5023      0.0005     -0.0000
         5        -0.0001      0.0001      0.0001      0.0006      0.2203      0.1059
         6        -0.0002     -0.0001      0.0000     -0.0003      0.1463      0.3829
 <0|del|b> * <b|rxdel|0> + <0|del|b> * <b|delr+rdel|0>
 Rotatory Strengths (R) in cgs (10**-40 erg-esu-cm/Gauss)
       state          XX          YY          ZZ    R(velocity)    E-M Angle
         1         0.0120      0.0343     -0.0040      0.0141       90.00
         2         0.0253      0.0124      0.0167      0.0181       90.00
         3        -0.0141     -0.0158     -0.0074     -0.0124       90.00
         4        -0.4503     -0.0862     -0.0678     -0.2014       90.03
         5         0.2063     -0.0883     -0.0083      0.0366       90.00
         6        -0.0686      0.4252      0.0708      0.1425       89.08
 1/2[<0|r|b>*<b|rxdel|0> + (<0|rxdel|b>*<b|r|0>)*]
 Rotatory Strengths (R) in cgs (10**-40 erg-esu-cm/Gauss)
       state          XX          YY          ZZ     R(length)
         1         0.0538     -0.0101      0.0078      0.0171
         2         0.0254      0.0257      0.0008      0.0173
         3        -0.0260     -0.0109     -0.0042     -0.0137
         4        -0.0550     -0.3484     -0.1762     -0.1932
         5        -0.1257      0.1262      0.0983      0.0329
         6         0.4661     -0.0609      0.0167      0.1407
  1/2[<0|del|b>*<b|r|0> + (<0|r|b>*<b|del|0>)*] (Au)
       state          X           Y           Z        Dip. S.   Osc.(frdel)
         1        -0.0148     -0.0894     -0.0000      0.1042      0.0695
         2        -0.1135     -0.0064     -0.0000      0.1199      0.0799
         3        -0.0000     -0.0000     -0.0058      0.0058      0.0039
         4        -0.8387     -0.1042     -0.0000      0.9430      0.6286
         5        -0.0000     -0.0000     -0.0084      0.0084      0.0056
         6        -0.0000     -0.0000     -0.0014      0.0014      0.0009

 Excitation energies and oscillator strengths:
 
 Excited State   1:      Singlet-A      5.0140 eV  247.28 nm  f=0.0648  <S**2>=0.000
      30 -> 32        -0.36914
      30 -> 34         0.14686
      31 -> 32         0.54418
      31 -> 34         0.18158
 
 Excited State   2:      Singlet-A      5.0640 eV  244.83 nm  f=0.0824  <S**2>=0.000
      30 -> 32         0.45726
      30 -> 34         0.10969
      31 -> 32         0.39632
      31 -> 34        -0.33427
 
 Excited State   3:      Singlet-A      5.9252 eV  209.25 nm  f=0.0051  <S**2>=0.000
      31 -> 33         0.68472
 This state for optimization and/or second-order correction.
 Total Energy, E(TD-HF/TD-DFT) =  -363.169097050    
 Copying the excited state density for this state as the 1-particle RhoCI density.
 
 Excited State   4:      Singlet-A      6.2445 eV  198.55 nm  f=0.6228  <S**2>=0.000
      30 -> 32         0.35192
      31 -> 34         0.57586
      31 -> 37         0.11677
 
 Excited State   5:      Singlet-A      6.3948 eV  193.88 nm  f=0.0054  <S**2>=0.000
      30 -> 33         0.63161
      31 -> 35         0.22246
      31 -> 36        -0.11432
 
 Excited State   6:      Singlet-A      6.5055 eV  190.58 nm  f=0.0010  <S**2>=0.000
      30 -> 33        -0.21478
      31 -> 35         0.63997
 SavETr:  write IOETrn=   770 NScale= 10 NData=  16 NLR=1 NState=    6 LETran=     118.
          IDoAtm=1111111111111111
          Differentiating once with respect to electric field.
                with respect to dipole field.
          Differentiating once with respect to nuclear coordinates.
 Keep R1 ints in memory in canonical form, NReq=152086915.
          There are     1 degrees of freedom in the 1st order CPHF.  IDoFFX=0 NUNeed=     1.
 LinEq1:  Iter=  0 NonCon=     1 RMS=9.16D-03 Max=1.46D-01 NDo=     1
 AX will form     1 AO Fock derivatives at one time.
 LinEq1:  Iter=  1 NonCon=     1 RMS=4.02D-03 Max=8.82D-02 NDo=     1
 LinEq1:  Iter=  2 NonCon=     1 RMS=3.03D-03 Max=8.88D-02 NDo=     1
 LinEq1:  Iter=  3 NonCon=     1 RMS=1.17D-03 Max=2.92D-02 NDo=     1
 LinEq1:  Iter=  4 NonCon=     1 RMS=6.12D-04 Max=1.01D-02 NDo=     1
 LinEq1:  Iter=  5 NonCon=     1 RMS=2.61D-04 Max=6.67D-03 NDo=     1
 LinEq1:  Iter=  6 NonCon=     1 RMS=1.87D-04 Max=5.58D-03 NDo=     1
 LinEq1:  Iter=  7 NonCon=     1 RMS=7.01D-05 Max=1.78D-03 NDo=     1
 LinEq1:  Iter=  8 NonCon=     1 RMS=2.40D-05 Max=6.46D-04 NDo=     1
 LinEq1:  Iter=  9 NonCon=     1 RMS=1.66D-05 Max=4.91D-04 NDo=     1
 LinEq1:  Iter= 10 NonCon=     1 RMS=6.27D-06 Max=1.34D-04 NDo=     1
 LinEq1:  Iter= 11 NonCon=     1 RMS=3.41D-06 Max=6.89D-05 NDo=     1
 LinEq1:  Iter= 12 NonCon=     1 RMS=1.31D-06 Max=3.12D-05 NDo=     1
 LinEq1:  Iter= 13 NonCon=     1 RMS=5.69D-07 Max=1.03D-05 NDo=     1
 LinEq1:  Iter= 14 NonCon=     1 RMS=2.49D-07 Max=3.76D-06 NDo=     1
 LinEq1:  Iter= 15 NonCon=     1 RMS=5.29D-08 Max=5.75D-07 NDo=     1
 LinEq1:  Iter= 16 NonCon=     1 RMS=1.96D-08 Max=5.00D-07 NDo=     1
 LinEq1:  Iter= 17 NonCon=     1 RMS=8.77D-09 Max=1.25D-07 NDo=     1
 LinEq1:  Iter= 18 NonCon=     1 RMS=1.87D-09 Max=2.55D-08 NDo=     1
 LinEq1:  Iter= 19 NonCon=     1 RMS=4.56D-10 Max=6.16D-09 NDo=     1
 LinEq1:  Iter= 20 NonCon=     1 RMS=2.66D-10 Max=5.02D-09 NDo=     1
 LinEq1:  Iter= 21 NonCon=     1 RMS=9.25D-11 Max=2.05D-09 NDo=     1
 LinEq1:  Iter= 22 NonCon=     0 RMS=2.05D-11 Max=3.35D-10 NDo=     1
 Linear equations converged to 1.000D-10 1.000D-09 after    22 iterations.
 End of Minotr F.D. properties file   721 does not exist.
 End of Minotr F.D. properties file   722 does not exist.
 End of Minotr F.D. properties file   788 does not exist.

 **********************************************************************

            Population analysis using the CI Density.

 **********************************************************************

 Orbital symmetries:
       Occupied  (A) (A) (A) (A) (A) (A) (A) (A) (A) (A) (A) (A)
                 (A) (A) (A) (A) (A) (A) (A) (A) (A) (A) (A) (A)
                 (A) (A) (A) (A) (A) (A) (A)
       Virtual   (A) (A) (A) (A) (A) (A) (A) (A) (A) (A) (A) (A)
                 (A) (A) (A) (A) (A) (A) (A) (A) (A) (A) (A) (A)
                 (A) (A) (A) (A) (A) (A) (A) (A) (A) (A) (A) (A)
                 (A) (A) (A) (A) (A) (A) (A) (A) (A) (A) (A) (A)
                 (A) (A) (A) (A) (A) (A) (A) (A) (A) (A) (A) (A)
                 (A) (A) (A) (A) (A) (A) (A) (A) (A) (A) (A) (A)
                 (A) (A) (A) (A) (A) (A) (A) (A) (A) (A) (A) (A)
                 (A) (A) (A) (A) (A) (A) (A) (A) (A) (A) (A) (A)
                 (A) (A) (A) (A) (A) (A) (A) (A) (A) (A) (A) (A)
                 (A) (A) (A) (A) (A) (A) (A) (A) (A) (A) (A) (A)
                 (A) (A) (A) (A) (A) (A) (A) (A) (A) (A) (A) (A)
                 (A) (A) (A) (A) (A) (A) (A) (A) (A) (A) (A) (A)
                 (A) (A) (A) (A) (A) (A) (A) (A) (A) (A)
 The electronic state is 1-A.
 Alpha  occ. eigenvalues --  -14.17214 -10.10600 -10.10318 -10.07255 -10.06788
 Alpha  occ. eigenvalues --  -10.06747 -10.06718 -10.06211 -10.05912  -1.02768
 Alpha  occ. eigenvalues --   -0.88638  -0.82726  -0.77807  -0.75963  -0.66785
 Alpha  occ. eigenvalues --   -0.63651  -0.62407  -0.58418  -0.52279  -0.51305
 Alpha  occ. eigenvalues --   -0.47809  -0.47256  -0.46999  -0.45131  -0.43088
 Alpha  occ. eigenvalues --   -0.39308  -0.37947  -0.37241  -0.31838  -0.25624
 Alpha  occ. eigenvalues --   -0.23932
 Alpha virt. eigenvalues --    0.00948   0.04612   0.04690   0.06322   0.06992
 Alpha virt. eigenvalues --    0.08112   0.08496   0.08642   0.10009   0.10825
 Alpha virt. eigenvalues --    0.11375   0.11413   0.13359   0.13730   0.14964
 Alpha virt. eigenvalues --    0.15363   0.15653   0.17547   0.18317   0.18530
 Alpha virt. eigenvalues --    0.19908   0.20697   0.21063   0.21213   0.21496
 Alpha virt. eigenvalues --    0.22048   0.22934   0.23782   0.23827   0.24062
 Alpha virt. eigenvalues --    0.24470   0.25044   0.26261   0.26692   0.27417
 Alpha virt. eigenvalues --    0.28024   0.28172   0.28776   0.29682   0.30191
 Alpha virt. eigenvalues --    0.31237   0.31736   0.32163   0.34094   0.34734
 Alpha virt. eigenvalues --    0.35423   0.36042   0.37838   0.40028   0.40917
 Alpha virt. eigenvalues --    0.41865   0.44406   0.47325   0.49285   0.55331
 Alpha virt. eigenvalues --    0.61637   0.66238   0.69354   0.70659   0.72378
 Alpha virt. eigenvalues --    0.74561   0.74651   0.75348   0.76060   0.76795
 Alpha virt. eigenvalues --    0.77746   0.78351   0.80085   0.81847   0.82293
 Alpha virt. eigenvalues --    0.83732   0.88123   0.91925   0.93139   0.94189
 Alpha virt. eigenvalues --    0.96189   0.96779   0.97545   0.99417   1.00478
 Alpha virt. eigenvalues --    1.02871   1.05674   1.07326   1.09324   1.12019
 Alpha virt. eigenvalues --    1.13453   1.13677   1.19598   1.19923   1.22306
 Alpha virt. eigenvalues --    1.23740   1.24749   1.27082   1.32740   1.33297
 Alpha virt. eigenvalues --    1.34067   1.38171   1.41530   1.43076   1.45957
 Alpha virt. eigenvalues --    1.46016   1.46228   1.49053   1.49790   1.55483
 Alpha virt. eigenvalues --    1.59811   1.65179   1.78242   1.83036   1.86580
 Alpha virt. eigenvalues --    1.87680   1.90243   1.93244   1.96525   1.97325
 Alpha virt. eigenvalues --    1.98403   2.04424   2.07273   2.11503   2.14253
 Alpha virt. eigenvalues --    2.14484   2.16978   2.21955   2.22418   2.22814
 Alpha virt. eigenvalues --    2.25313   2.27818   2.33816   2.37047   2.40446
 Alpha virt. eigenvalues --    2.50997   2.51475   2.58564   2.60740   2.61243
 Alpha virt. eigenvalues --    2.63975   2.67762   2.75554   2.78738   2.79118
 Alpha virt. eigenvalues --    2.89594   2.91486   3.03937   3.15617   3.34936
 Alpha virt. eigenvalues --    4.10197   4.18882   4.21833   4.25195   4.28587
 Alpha virt. eigenvalues --    4.32046   4.39758   4.43373   4.69098
          Condensed to atoms (all electrons):
               1          2          3          4          5          6
     1  C   20.746490   5.865213  -0.504796 -17.681667  -5.260518 -12.031598
     2  C    5.865213  18.076896   5.430153 -20.485857   8.639806 -19.294630
     3  C   -0.504796   5.430153  21.097364 -16.549464   7.288658 -15.086170
     4  C  -17.681667 -20.485857 -16.549464 106.212578 -30.896031  33.569014
     5  C   -5.260518   8.639806   7.288658 -30.896031  76.248230 -26.640116
     6  C  -12.031598 -19.294630 -15.086170  33.569014 -26.640116  54.868689
     7  N   -0.295859  -0.181212   0.153103   6.182194  -4.862851   0.633197
     8  C   22.600982  12.421014   5.804890 -92.910774 -32.293337 -13.129731
     9  C   -7.453710  -4.086529  -1.636825  38.092471  12.714441   2.783637
    10  H    0.002162  -0.046951  -0.309301  -0.476295   0.998810   0.061545
    11  H    0.012122   0.001309   0.016083   0.078686  -0.239986  -0.102802
    12  H    0.002473   0.004338  -0.057729  -0.126157   0.133608   0.026689
    13  H   -0.043148   0.339914  -0.122800   0.123297  -0.078326   0.098273
    14  H    0.055910   0.022119   0.468327  -0.312869   0.082828  -0.013656
    15  H    0.458163   0.033510   0.073218  -0.105548   0.117965  -0.291178
    16  H   -0.124801  -0.016350  -0.039974   0.152431   0.023886   0.434299
               7          8          9         10         11         12
     1  C   -0.295859  22.600982  -7.453710   0.002162   0.012122   0.002473
     2  C   -0.181212  12.421014  -4.086529  -0.046951   0.001309   0.004338
     3  C    0.153103   5.804890  -1.636825  -0.309301   0.016083  -0.057729
     4  C    6.182194 -92.910774  38.092471  -0.476295   0.078686  -0.126157
     5  C   -4.862851 -32.293337  12.714441   0.998810  -0.239986   0.133608
     6  C    0.633197 -13.129731   2.783637   0.061545  -0.102802   0.026689
     7  N   12.383088 -15.859517   9.157739  -0.678316   0.007906  -0.076313
     8  C  -15.859517 219.584257 -98.284378   1.593210   0.757004   0.107228
     9  C    9.157739 -98.284378  53.621063  -0.978086  -0.222126   0.310358
    10  H   -0.678316   1.593210  -0.978086   0.482913   0.000030   0.003433
    11  H    0.007906   0.757004  -0.222126   0.000030   0.456304  -0.001025
    12  H   -0.076313   0.107228   0.310358   0.003433  -0.001025   0.421236
    13  H    0.000949  -0.016188   0.006203  -0.000014   0.000000  -0.000000
    14  H    0.006984  -0.015358   0.016874   0.001579   0.000001   0.000005
    15  H   -0.000133   0.034973  -0.008904   0.000001  -0.000001  -0.000000
    16  H   -0.001053  -0.176965   0.039785  -0.000001   0.001253  -0.000002
              13         14         15         16
     1  C   -0.043148   0.055910   0.458163  -0.124801
     2  C    0.339914   0.022119   0.033510  -0.016350
     3  C   -0.122800   0.468327   0.073218  -0.039974
     4  C    0.123297  -0.312869  -0.105548   0.152431
     5  C   -0.078326   0.082828   0.117965   0.023886
     6  C    0.098273  -0.013656  -0.291178   0.434299
     7  N    0.000949   0.006984  -0.000133  -0.001053
     8  C   -0.016188  -0.015358   0.034973  -0.176965
     9  C    0.006203   0.016874  -0.008904   0.039785
    10  H   -0.000014   0.001579   0.000001  -0.000001
    11  H    0.000000   0.000001  -0.000001   0.001253
    12  H   -0.000000   0.000005  -0.000000  -0.000002
    13  H    0.493856  -0.004205  -0.004793  -0.000118
    14  H   -0.004205   0.448296  -0.000107   0.000012
    15  H   -0.004793  -0.000107   0.505817  -0.004688
    16  H   -0.000118   0.000012  -0.004688   0.504065
 Mulliken charges:
               1
     1  C   -0.347418
     2  C   -0.722744
     3  C   -0.024736
     4  C    1.133991
     5  C    0.022931
     6  C    0.114539
     7  N    0.430095
     8  C   -4.217311
     9  C    1.927987
    10  H    0.345281
    11  H    0.235243
    12  H    0.251856
    13  H    0.207100
    14  H    0.243261
    15  H    0.191705
    16  H    0.208220
 Sum of Mulliken charges =  -0.00000
 Mulliken charges with hydrogens summed into heavy atoms:
               1
     1  C   -0.155713
     2  C   -0.515644
     3  C    0.218525
     4  C    1.133991
     5  C    0.022931
     6  C    0.322759
     7  N    0.775375
     8  C   -3.982068
     9  C    2.179844
 Electronic spatial extent (au):  <R**2>=           1035.8368
 Charge=             -0.0000 electrons
 Dipole moment (field-independent basis, Debye):
    X=             -4.9083    Y=              5.1231    Z=             -0.0015  Tot=              7.0949
 Quadrupole moment (field-independent basis, Debye-Ang):
   XX=            -60.5093   YY=            -63.2065   ZZ=            -66.1325
   XY=             11.5825   XZ=             -0.0053   YZ=              0.0032
 Traceless Quadrupole moment (field-independent basis, Debye-Ang):
   XX=              2.7735   YY=              0.0763   ZZ=             -2.8497
   XY=             11.5825   XZ=             -0.0053   YZ=              0.0032
 Octapole moment (field-independent basis, Debye-Ang**2):
  XXX=            -89.9214  YYY=             60.7448  ZZZ=             -0.0136  XYY=            -37.5123
  XXY=             35.7198  XXZ=             -0.0205  XZZ=            -16.5694  YZZ=             14.7743
  YYZ=             -0.0055  XYZ=              0.0080
 Hexadecapole moment (field-independent basis, Debye-Ang**3):
 XXXX=          -1235.8979 YYYY=           -669.9797 ZZZZ=           -140.4258 XXXY=            143.6513
 XXXZ=             -0.0838 YYYX=             99.3936 YYYZ=              0.0274 ZZZX=             -0.0323
 ZZZY=              0.0242 XXYY=           -323.5296 XXZZ=           -244.1759 YYZZ=           -145.9592
 XXYZ=              0.0330 YYXZ=             -0.0258 ZZXY=             26.2162
 N-N= 4.013368668897D+02 E-N=-1.638880216523D+03  KE= 3.579934859418D+02
 Calling FoFJK, ICntrl=  10005127 FMM=F ISym2X=0 I1Cent= 0 IOpClX= 0 NMat=1 NMatS=1 NMatT=0.
 ***** Axes restored to original set *****
 -------------------------------------------------------------------
 Center     Atomic                   Forces (Hartrees/Bohr)
 Number     Number              X              Y              Z
 -------------------------------------------------------------------
      1        6          -0.013177734   -0.013714009   -0.000000111
      2        6          -0.016432764    0.024082369    0.000003703
      3        6           0.029562466   -0.007774675   -0.000010771
      4        6          -0.015866879    0.003645996   -0.000007018
      5        6           0.003879754   -0.004038958   -0.000022988
      6        6           0.007901004    0.010017409   -0.000010615
      7        7           0.024561123    0.068276658    0.000067466
      8        6          -0.036016772    0.022787767    0.000035076
      9        6          -0.005707751   -0.067122734   -0.000084487
     10        1           0.014945053   -0.039830051    0.000011629
     11        1           0.002542851    0.006549082    0.000003149
     12        1           0.007569409   -0.003290152    0.000007056
     13        1          -0.003021948   -0.001765761    0.000001167
     14        1           0.002453227   -0.002895710    0.000001034
     15        1          -0.003068041    0.001819659    0.000002344
     16        1          -0.000122999    0.003253113    0.000003367
 -------------------------------------------------------------------
 Cartesian Forces:  Max     0.068276658 RMS     0.018372327

 GradGradGradGradGradGradGradGradGradGradGradGradGradGradGradGradGradGrad
 Berny optimization.
 FormGI is forming the generalized inverse of G from B-inverse, IUseBI=4.
 Internal  Forces:  Max     0.043111182 RMS     0.009440757
 Search for a local minimum.
 Step number   1 out of a maximum of   94
 All quantities printed in internal units (Hartrees-Bohrs-Radians)
 Mixed Optimization -- RFO/linear search
 Second derivative matrix not updated -- first step.
 ITU=  0
     Eigenvalues ---    0.01853   0.01931   0.01986   0.02012   0.02070
     Eigenvalues ---    0.02113   0.02148   0.02153   0.02172   0.02209
     Eigenvalues ---    0.02233   0.02248   0.02338   0.16000   0.16000
     Eigenvalues ---    0.16000   0.16000   0.16000   0.16000   0.16000
     Eigenvalues ---    0.22000   0.22188   0.22662   0.24011   0.24651
     Eigenvalues ---    0.35712   0.35717   0.35783   0.35790   0.36420
     Eigenvalues ---    0.36427   0.37009   0.38432   0.42633   0.43465
     Eigenvalues ---    0.45769   0.46692   0.47162   0.47468   0.47567
     Eigenvalues ---    0.48125   0.50955
 RFO step:  Lambda=-1.53700976D-02 EMin= 1.85287394D-02
 Linear search not attempted -- first point.
 Iteration  1 RMS(Cart)=  0.02711839 RMS(Int)=  0.00011470
 Iteration  2 RMS(Cart)=  0.00015021 RMS(Int)=  0.00002487
 Iteration  3 RMS(Cart)=  0.00000001 RMS(Int)=  0.00002487
 Variable       Old X    -DE/DX   Delta X   Delta X   Delta X     New X
                                 (Linear)    (Quad)   (Total)
    R1        2.65547  -0.00595   0.00000  -0.01139  -0.01139   2.64409
    R2        2.61291   0.01348   0.00000   0.02801   0.02802   2.64093
    R3        2.04421   0.00356   0.00000   0.00955   0.00955   2.05376
    R4        2.61557   0.02849   0.00000   0.05736   0.05736   2.67293
    R5        2.04411   0.00350   0.00000   0.00938   0.00938   2.05349
    R6        2.63373  -0.01023   0.00000  -0.02239  -0.02239   2.61134
    R7        2.04534   0.00293   0.00000   0.00787   0.00787   2.05321
    R8        2.68058  -0.00162   0.00000  -0.00564  -0.00560   2.67497
    R9        2.60126   0.01740   0.00000   0.03130   0.03136   2.63263
   R10        2.64771   0.00746   0.00000   0.01563   0.01564   2.66334
   R11        2.70839  -0.00904   0.00000  -0.01856  -0.01860   2.68979
   R12        2.04526   0.00325   0.00000   0.00874   0.00874   2.05400
   R13        2.60573  -0.04311   0.00000  -0.08605  -0.08605   2.51968
   R14        1.89542   0.04251   0.00000   0.08728   0.08728   1.98271
   R15        2.57870   0.04270   0.00000   0.08144   0.08138   2.66007
   R16        2.03419   0.00703   0.00000   0.01851   0.01851   2.05269
   R17        2.03430   0.00787   0.00000   0.02074   0.02074   2.05505
    A1        2.11420  -0.00505   0.00000  -0.01626  -0.01624   2.09796
    A2        2.07986   0.00268   0.00000   0.00900   0.00899   2.08885
    A3        2.08912   0.00237   0.00000   0.00726   0.00725   2.09637
    A4        2.11523   0.00214   0.00000   0.01241   0.01241   2.12764
    A5        2.08365  -0.00107   0.00000  -0.00620  -0.00620   2.07745
    A6        2.08430  -0.00107   0.00000  -0.00621  -0.00621   2.07809
    A7        2.05144  -0.00014   0.00000  -0.00252  -0.00252   2.04892
    A8        2.11267   0.00254   0.00000   0.01534   0.01534   2.12801
    A9        2.11908  -0.00240   0.00000  -0.01282  -0.01282   2.10626
   A10        2.13389  -0.00213   0.00000  -0.00952  -0.00957   2.12432
   A11        2.27895  -0.00385   0.00000  -0.00902  -0.00907   2.26989
   A12        1.87035   0.00598   0.00000   0.01854   0.01864   1.88898
   A13        2.07274   0.00753   0.00000   0.02398   0.02399   2.09673
   A14        1.86517  -0.00718   0.00000  -0.02280  -0.02280   1.84237
   A15        2.34527  -0.00035   0.00000  -0.00118  -0.00119   2.34408
   A16        2.07887  -0.00235   0.00000  -0.00809  -0.00807   2.07080
   A17        2.10306   0.00114   0.00000   0.00384   0.00383   2.10689
   A18        2.10125   0.00121   0.00000   0.00425   0.00424   2.10549
   A19        1.90743   0.00306   0.00000   0.00437   0.00443   1.91185
   A20        2.19023   0.00008   0.00000   0.00702   0.00699   2.19722
   A21        2.18553  -0.00315   0.00000  -0.01139  -0.01142   2.17411
   A22        1.86968  -0.00006   0.00000   0.00731   0.00722   1.87690
   A23        2.21717   0.00015   0.00000  -0.00296  -0.00291   2.21426
   A24        2.19633  -0.00009   0.00000  -0.00435  -0.00431   2.19203
   A25        1.91215  -0.00181   0.00000  -0.00742  -0.00748   1.90467
   A26        2.10250  -0.00161   0.00000  -0.01063  -0.01060   2.09190
   A27        2.26854   0.00342   0.00000   0.01805   0.01808   2.28662
    D1       -0.00001   0.00000   0.00000   0.00001   0.00001  -0.00001
    D2       -3.14156  -0.00000   0.00000  -0.00002  -0.00002  -3.14158
    D3        3.14152   0.00000   0.00000   0.00005   0.00005   3.14157
    D4       -0.00002   0.00000   0.00000   0.00002   0.00002   0.00000
    D5       -0.00003  -0.00000   0.00000  -0.00002  -0.00002  -0.00006
    D6        3.14153   0.00000   0.00000   0.00007   0.00007  -3.14158
    D7       -3.14157  -0.00000   0.00000  -0.00007  -0.00007   3.14155
    D8       -0.00001   0.00000   0.00000   0.00003   0.00003   0.00002
    D9        0.00003   0.00000   0.00000   0.00004   0.00004   0.00007
   D10       -3.14154  -0.00000   0.00000  -0.00004  -0.00004  -3.14157
   D11        3.14158   0.00000   0.00000   0.00007   0.00007  -3.14154
   D12        0.00001  -0.00000   0.00000  -0.00001  -0.00001  -0.00000
   D13       -0.00001  -0.00000   0.00000  -0.00007  -0.00007  -0.00008
   D14       -3.14144  -0.00001   0.00000  -0.00008  -0.00007  -3.14151
   D15        3.14156  -0.00000   0.00000   0.00001   0.00001   3.14157
   D16        0.00013  -0.00000   0.00000   0.00000   0.00000   0.00014
   D17       -0.00004   0.00000   0.00000   0.00005   0.00005   0.00001
   D18       -3.14151   0.00000   0.00000  -0.00004  -0.00004  -3.14156
   D19        3.14143   0.00001   0.00000   0.00006   0.00005   3.14148
   D20       -0.00005   0.00000   0.00000  -0.00003  -0.00004  -0.00009
   D21       -3.14124  -0.00001   0.00000  -0.00039  -0.00040   3.14154
   D22       -0.00113   0.00001   0.00000   0.00025   0.00025  -0.00089
   D23        0.00049  -0.00001   0.00000  -0.00039  -0.00040   0.00009
   D24        3.14060   0.00001   0.00000   0.00025   0.00024   3.14085
   D25        0.00005  -0.00000   0.00000  -0.00000  -0.00000   0.00005
   D26       -3.14151  -0.00000   0.00000  -0.00010  -0.00010   3.14158
   D27        3.14150   0.00000   0.00000   0.00012   0.00012  -3.14157
   D28       -0.00007   0.00000   0.00000   0.00002   0.00003  -0.00004
   D29       -0.00041   0.00002   0.00000   0.00048   0.00047   0.00006
   D30        3.14139   0.00001   0.00000   0.00009   0.00008   3.14147
   D31        3.14132   0.00002   0.00000   0.00036   0.00036  -3.14151
   D32       -0.00006   0.00000   0.00000  -0.00002  -0.00003  -0.00009
   D33       -0.00077   0.00003   0.00000   0.00073   0.00072  -0.00005
   D34        3.14133   0.00001   0.00000   0.00022   0.00022   3.14154
   D35       -3.14089   0.00001   0.00000   0.00007   0.00007  -3.14082
   D36        0.00121  -0.00001   0.00000  -0.00044  -0.00044   0.00077
   D37        0.00072  -0.00002   0.00000  -0.00072  -0.00073  -0.00001
   D38       -3.14144  -0.00000   0.00000  -0.00016  -0.00016   3.14158
   D39       -3.14107  -0.00001   0.00000  -0.00034  -0.00035  -3.14142
   D40       -0.00005   0.00001   0.00000   0.00022   0.00022   0.00017
         Item               Value     Threshold  Converged?
 Maximum Force            0.043111     0.000450     NO 
 RMS     Force            0.009441     0.000300     NO 
 Maximum Displacement     0.104055     0.001800     NO 
 RMS     Displacement     0.027138     0.001200     NO 
 Predicted change in Energy=-7.936112D-03
 GradGradGradGradGradGradGradGradGradGradGradGradGradGradGradGradGradGrad

                          Input orientation:                          
 ---------------------------------------------------------------------
 Center     Atomic      Atomic             Coordinates (Angstroms)
 Number     Number       Type             X           Y           Z
 ---------------------------------------------------------------------
      1          6           0       -2.180788    0.700346    0.000010
      2          6           0       -2.133083   -0.698033    0.000026
      3          6           0       -0.907528   -1.404214   -0.000002
      4          6           0        0.255914   -0.658598    0.000047
      5          6           0        0.232684    0.756748    0.000028
      6          6           0       -0.997672    1.444189   -0.000024
      7          7           0        1.586084   -1.072657   -0.000051
      8          6           0        1.597442    1.161019    0.000040
      9          6           0        2.385385   -0.005439   -0.000016
     10          1           0        1.920753   -2.067054    0.000571
     11          1           0        1.975490    2.179348   -0.000073
     12          1           0        3.464822   -0.137489   -0.000035
     13          1           0       -3.064696   -1.257432    0.000039
     14          1           0       -0.870085   -2.490078   -0.000007
     15          1           0       -3.142788    1.206014    0.000012
     16          1           0       -1.025030    2.530775   -0.000029
 ---------------------------------------------------------------------
                    Distance matrix (angstroms):
                    1          2          3          4          5
     1  C    0.000000
     2  C    1.399192   0.000000
     3  C    2.459749   1.414453   0.000000
     4  C    2.790026   2.389322   1.381861   0.000000
     5  C    2.414131   2.777272   2.443326   1.415536   0.000000
     6  C    1.397522   2.424515   2.849829   2.448099   1.409380
     7  N    4.163276   3.737987   2.515558   1.393126   2.275613
     8  C    3.806212   4.168080   3.585429   2.260687   1.423376
     9  C    4.620397   4.571240   3.577687   2.227389   2.283648
    10  H    4.947842   4.278762   2.904915   2.180697   3.289898
    11  H    4.411587   5.015944   4.599317   3.318265   2.249703
    12  H    5.707441   5.625900   4.552146   3.250945   3.353561
    13  H    2.148066   1.086661   2.162156   3.374174   3.863889
    14  H    3.449166   2.192394   1.086510   2.149929   3.428991
    15  H    1.086804   2.155203   3.436521   3.876590   3.405239
    16  H    2.164774   3.413646   3.936743   3.436992   2.174631
                    6          7          8          9         10
     6  C    0.000000
     7  N    3.606981   0.000000
     8  C    2.610518   2.233705   0.000000
     9  C    3.680556   1.333355   1.407649   0.000000
    10  H    4.565745   1.049203   3.244223   2.113324   0.000000
    11  H    3.062703   3.275237   1.086239   2.222905   4.246755
    12  H    4.734507   2.098617   2.274473   1.087484   2.471310
    13  H    3.401668   4.654450   5.252089   5.592036   5.050762
    14  H    3.936336   2.835816   4.406722   4.095304   2.822716
    15  H    2.158298   5.249246   4.740444   5.659356   6.029297
    16  H    1.086930   4.450016   2.958647   4.250095   5.460556
                   11         12         13         14         15
    11  H    0.000000
    12  H    2.754241   0.000000
    13  H    6.100405   6.624868   0.000000
    14  H    5.468166   4.932149   2.517089   0.000000
    15  H    5.210005   6.742811   2.464683   4.338926   0.000000
    16  H    3.021030   5.222873   4.302412   5.023244   2.497977
                   16
    16  H    0.000000
 Stoichiometry    C8H7N
 Framework group  C1[X(C8H7N)]
 Deg. of freedom    42
 Full point group                 C1      NOp   1
 Largest Abelian subgroup         C1      NOp   1
 Largest concise Abelian subgroup C1      NOp   1
                         Standard orientation:                         
 ---------------------------------------------------------------------
 Center     Atomic      Atomic             Coordinates (Angstroms)
 Number     Number       Type             X           Y           Z
 ---------------------------------------------------------------------
      1          6           0       -2.196111    0.639863   -0.000002
      2          6           0       -2.112150   -0.756808    0.000013
      3          6           0       -0.868691   -1.430963   -0.000014
      4          6           0        0.275020   -0.655420    0.000034
      5          6           0        0.215087    0.758846    0.000015
      6          6           0       -1.032686    1.414144   -0.000036
      7          7           0        1.615483   -1.034839   -0.000063
      8          6           0        1.568900    1.198381    0.000027
      9          6           0        2.386833    0.052753   -0.000028
     10          1           0        1.975831   -2.020220    0.000559
     11          1           0        1.920407    2.226173   -0.000086
     12          1           0        3.469332   -0.051254   -0.000048
     13          1           0       -3.028941   -1.340183    0.000026
     14          1           0       -0.803095   -2.515491   -0.000020
     15          1           0       -3.170903    1.120409   -0.000000
     16          1           0       -1.088219    2.499654   -0.000041
 ---------------------------------------------------------------------
 Rotational constants (GHZ):           3.9012335           1.6293568           1.1493351
 Standard basis: 6-31+G(d) (6D, 7F)
 There are   185 symmetry adapted cartesian basis functions of A   symmetry.
 There are   185 symmetry adapted basis functions of A   symmetry.
   185 basis functions,   316 primitive gaussians,   185 cartesian basis functions
    31 alpha electrons       31 beta electrons
       nuclear repulsion energy       400.0544978638 Hartrees.
 NAtoms=   16 NActive=   16 NUniq=   16 SFac= 1.00D+00 NAtFMM=   60 NAOKFM=F Big=F
 Integral buffers will be    131072 words long.
 Regular integral format.
 Two-electron integral symmetry is turned on.
 One-electron integrals computed using PRISM.
 NBasis=   185 RedAO= T EigKep=  1.20D-06  NBF=   185
 NBsUse=   185 1.00D-06 EigRej= -1.00D+00 NBFU=   185
 Initial guess from the checkpoint file:  "FuncsMN15-V-3rd.chk"
 B after Tr=    -0.000000   -0.000000    0.000000
         Rot=    0.999917    0.000007    0.000007   -0.012846 Ang=   1.47 deg.
 ExpMin= 4.38D-02 ExpMax= 4.17D+03 ExpMxC= 6.27D+02 IAcc=3 IRadAn=         5 AccDes= 0.00D+00
 Harris functional with IExCor= 1009 and IRadAn=       5 diagonalized for initial guess.
 HarFok:  IExCor= 1009 AccDes= 0.00D+00 IRadAn=         5 IDoV= 1 UseB2=F ITyADJ=14
 ICtDFT=  3500011 ScaDFX=  1.000000  1.000000  1.000000  1.000000
 FoFCou: FMM=F IPFlag=           0 FMFlag=      100000 FMFlg1=           0
         NFxFlg=           0 DoJE=T BraDBF=F KetDBF=T FulRan=T
         wScrn=  0.000000 ICntrl=       500 IOpCl=  0 I1Cent=   200000004 NGrid=           0
         NMat0=    1 NMatS0=      1 NMatT0=    0 NMatD0=    1 NMtDS0=    0 NMtDT0=    0
 Petite list used in FoFCou.
 Keep R1 ints in memory in canonical form, NReq=152074523.
 Requested convergence on RMS density matrix=1.00D-08 within 128 cycles.
 Requested convergence on MAX density matrix=1.00D-06.
 Requested convergence on             energy=1.00D-06.
 No special actions if energy rises.
 SCF Done:  E(RMN15) =  -363.381159609     A.U. after   14 cycles
            NFock= 14  Conv=0.83D-08     -V/T= 2.0155
 DoSCS=F DFT=T ScalE2(SS,OS)=  1.000000  1.000000
 ExpMin= 4.38D-02 ExpMax= 4.17D+03 ExpMxC= 6.27D+02 IAcc=3 IRadAn=         5 AccDes= 0.00D+00
 HarFok:  IExCor=  205 AccDes= 0.00D+00 IRadAn=         5 IDoV=-2 UseB2=F ITyADJ=14
 ICtDFT= 12500011 ScaDFX=  1.000000  1.000000  1.000000  1.000000
 Range of M.O.s used for correlation:    10   185
 NBasis=   185 NAE=    31 NBE=    31 NFC=     9 NFV=     0
 NROrb=    176 NOA=    22 NOB=    22 NVA=   154 NVB=   154

 **** Warning!!: The largest alpha MO coefficient is  0.20977974D+03

 Orbital symmetries:
       Occupied  (A) (A) (A) (A) (A) (A) (A) (A) (A) (A) (A) (A)
                 (A) (A) (A) (A) (A) (A) (A) (A) (A) (A) (A) (A)
                 (A) (A) (A) (A) (A) (A) (A)
       Virtual   (A) (A) (A) (A) (A) (A) (A) (A) (A) (A) (A) (A)
                 (A) (A) (A) (A) (A) (A) (A) (A) (A) (A) (A) (A)
                 (A) (A) (A) (A) (A) (A) (A) (A) (A) (A) (A) (A)
                 (A) (A) (A) (A) (A) (A) (A) (A) (A) (A) (A) (A)
                 (A) (A) (A) (A) (A) (A) (A) (A) (A) (A) (A) (A)
                 (A) (A) (A) (A) (A) (A) (A) (A) (A) (A) (A) (A)
                 (A) (A) (A) (A) (A) (A) (A) (A) (A) (A) (A) (A)
                 (A) (A) (A) (A) (A) (A) (A) (A) (A) (A) (A) (A)
                 (A) (A) (A) (A) (A) (A) (A) (A) (A) (A) (A) (A)
                 (A) (A) (A) (A) (A) (A) (A) (A) (A) (A) (A) (A)
                 (A) (A) (A) (A) (A) (A) (A) (A) (A) (A) (A) (A)
                 (A) (A) (A) (A) (A) (A) (A) (A) (A) (A) (A) (A)
                 (A) (A) (A) (A) (A) (A) (A) (A) (A) (A)
 Generating guess from densities on rwf.
 Convergence on wavefunction:    0.000001000000000
 Iteration     1 Dimension    12 NMult     0 NNew     12
 CISAX will form    12 AO SS matrices at one time.
 New state      1 was old state      2
 New state      2 was old state      1
 New state      5 was old state      6
 New state      6 was old state      5
 Iteration     2 Dimension    24 NMult    12 NNew     12
 Iteration     3 Dimension    36 NMult    24 NNew     12
 Iteration     4 Dimension    48 NMult    36 NNew     12
 Iteration     5 Dimension    60 NMult    48 NNew     12
 Iteration     6 Dimension    72 NMult    60 NNew     12
 Iteration     7 Dimension    84 NMult    72 NNew     12
 Iteration     8 Dimension    96 NMult    84 NNew     12
 Iteration     9 Dimension   108 NMult    96 NNew     12
 Iteration    10 Dimension   116 NMult   108 NNew      8
 Iteration    11 Dimension   122 NMult   116 NNew      6
 Iteration    12 Dimension   126 NMult   122 NNew      4
 Iteration    13 Dimension   128 NMult   126 NNew      2
 Iteration    14 Dimension   130 NMult   128 NNew      2
 ***********************************************************************
 Excited states from <AA,BB:AA,BB> singles matrix:
 ***********************************************************************
 
 Ground to excited state transition densities written to RWF  633
 Ground to excited state transition electric dipole moments (Au):
       state          X           Y           Z        Dip. S.      Osc.
         1        -0.9032      0.6388      0.0000      1.2239      0.1409
         2         0.0552      0.2120      0.0000      0.0480      0.0059
         3         0.0004     -0.0000     -0.1675      0.0280      0.0038
         4        -1.9200     -0.6694     -0.0002      4.1345      0.6156
         5        -0.0015     -0.0006      0.0631      0.0040      0.0006
         6         0.0007      0.0003     -0.2629      0.0691      0.0107
 Ground to excited state transition velocity dipole moments (Au):
       state          X           Y           Z        Dip. S.      Osc.
         1         0.1477     -0.1241     -0.0000      0.0372      0.1437
         2        -0.0095     -0.0428     -0.0000      0.0019      0.0070
         3        -0.0001     -0.0000      0.0252      0.0006      0.0021
         4         0.4311      0.1550      0.0000      0.2099      0.6265
         5         0.0003      0.0001     -0.0112      0.0001      0.0004
         6        -0.0002     -0.0001      0.0621      0.0039      0.0111
 Ground to excited state transition magnetic dipole moments (Au):
       state          X           Y           Z
         1         0.0000      0.0001      0.1278
         2         0.0001      0.0001     -0.0987
         3         0.1791     -0.1432      0.0003
         4        -0.0001     -0.0003     -0.7824
         5         0.4452     -0.1586     -0.0004
         6         0.0120     -0.6283      0.0001
 Ground to excited state transition velocity quadrupole moments (Au):
       state          XX          YY          ZZ          XY          XZ          YZ
         1         0.2020     -0.1619      0.0090      0.0282     -0.0000      0.0000
         2         0.0357      0.0585     -0.0203     -0.0383     -0.0000      0.0000
         3        -0.0001      0.0001      0.0001      0.0002      0.1031      0.0832
         4         0.1900     -0.1582     -0.0181     -0.4900      0.0002     -0.0001
         5         0.0001     -0.0001     -0.0000     -0.0002      0.1805      0.3248
         6        -0.0000      0.0000     -0.0000      0.0000      0.5368      0.0790
 <0|del|b> * <b|rxdel|0> + <0|del|b> * <b|delr+rdel|0>
 Rotatory Strengths (R) in cgs (10**-40 erg-esu-cm/Gauss)
       state          XX          YY          ZZ    R(velocity)    E-M Angle
         1        -0.0191      0.0159     -0.0026     -0.0019       90.00
         2        -0.0071     -0.0009     -0.0050     -0.0043       90.00
         3         0.0260     -0.0325     -0.0137     -0.0067       90.00
         4        -0.1832     -0.2085     -0.0279     -0.1398       90.02
         5        -0.0608      0.4046      0.0675      0.1371       88.56
         6         0.1546     -0.0205      0.0281      0.0540       90.00
 1/2[<0|r|b>*<b|rxdel|0> + (<0|rxdel|b>*<b|r|0>)*]
 Rotatory Strengths (R) in cgs (10**-40 erg-esu-cm/Gauss)
       state          XX          YY          ZZ     R(length)
         1         0.0299     -0.0288     -0.0006      0.0002
         2        -0.0027     -0.0111      0.0014     -0.0041
         3        -0.0530     -0.0009      0.0413     -0.0042
         4        -0.1915     -0.1224     -0.1105     -0.1414
         5         0.4615     -0.0651      0.0161      0.1375
         6        -0.0059      0.1470      0.0125      0.0512
  1/2[<0|del|b>*<b|r|0> + (<0|r|b>*<b|del|0>)*] (Au)
       state          X           Y           Z        Dip. S.   Osc.(frdel)
         1        -0.1334     -0.0793     -0.0000      0.2126      0.1418
         2        -0.0005     -0.0091     -0.0000      0.0096      0.0064
         3        -0.0000      0.0000     -0.0042      0.0042      0.0028
         4        -0.8278     -0.1038     -0.0000      0.9316      0.6210
         5        -0.0000     -0.0000     -0.0007      0.0007      0.0005
         6        -0.0000     -0.0000     -0.0163      0.0163      0.0109

 Excitation energies and oscillator strengths:
 
 Excited State   1:      Singlet-A      4.6976 eV  263.93 nm  f=0.1409  <S**2>=0.000
      30 -> 34         0.13901
      31 -> 32         0.68192
 
 Excited State   2:      Singlet-A      5.0189 eV  247.03 nm  f=0.0059  <S**2>=0.000
      30 -> 32        -0.53274
      31 -> 34         0.44605
 
 Excited State   3:      Singlet-A      5.5075 eV  225.12 nm  f=0.0038  <S**2>=0.000
      31 -> 33         0.69047
 This state for optimization and/or second-order correction.
 Total Energy, E(TD-HF/TD-DFT) =  -363.178763985    
 Copying the excited state density for this state as the 1-particle RhoCI density.
 
 Excited State   4:      Singlet-A      6.0778 eV  204.00 nm  f=0.6156  <S**2>=0.000
      30 -> 32         0.41378
      31 -> 34         0.52154
      31 -> 37         0.15549
 
 Excited State   5:      Singlet-A      6.2127 eV  199.56 nm  f=0.0006  <S**2>=0.000
      31 -> 35         0.67275
      31 -> 40        -0.10227
 
 Excited State   6:      Singlet-A      6.3203 eV  196.17 nm  f=0.0107  <S**2>=0.000
      30 -> 33         0.14275
      31 -> 36         0.64035
      31 -> 38        -0.11032
      31 -> 39         0.12658
      31 -> 40         0.11246
 SavETr:  write IOETrn=   770 NScale= 10 NData=  16 NLR=1 NState=    6 LETran=     118.
          IDoAtm=1111111111111111
          Differentiating once with respect to electric field.
                with respect to dipole field.
          Differentiating once with respect to nuclear coordinates.
 Keep R1 ints in memory in canonical form, NReq=152086915.
          There are     1 degrees of freedom in the 1st order CPHF.  IDoFFX=0 NUNeed=     1.
 LinEq1:  Iter=  0 NonCon=     1 RMS=1.08D-02 Max=2.08D-01 NDo=     1
 AX will form     1 AO Fock derivatives at one time.
 LinEq1:  Iter=  1 NonCon=     1 RMS=5.10D-03 Max=1.09D-01 NDo=     1
 LinEq1:  Iter=  2 NonCon=     1 RMS=3.60D-03 Max=9.28D-02 NDo=     1
 LinEq1:  Iter=  3 NonCon=     1 RMS=1.57D-03 Max=3.79D-02 NDo=     1
 LinEq1:  Iter=  4 NonCon=     1 RMS=8.24D-04 Max=1.42D-02 NDo=     1
 LinEq1:  Iter=  5 NonCon=     1 RMS=3.21D-04 Max=8.57D-03 NDo=     1
 LinEq1:  Iter=  6 NonCon=     1 RMS=2.26D-04 Max=6.34D-03 NDo=     1
 LinEq1:  Iter=  7 NonCon=     1 RMS=7.32D-05 Max=1.43D-03 NDo=     1
 LinEq1:  Iter=  8 NonCon=     1 RMS=3.37D-05 Max=8.20D-04 NDo=     1
 LinEq1:  Iter=  9 NonCon=     1 RMS=1.61D-05 Max=4.54D-04 NDo=     1
 LinEq1:  Iter= 10 NonCon=     1 RMS=8.26D-06 Max=2.62D-04 NDo=     1
 LinEq1:  Iter= 11 NonCon=     1 RMS=4.47D-06 Max=1.56D-04 NDo=     1
 LinEq1:  Iter= 12 NonCon=     1 RMS=1.87D-06 Max=5.20D-05 NDo=     1
 LinEq1:  Iter= 13 NonCon=     1 RMS=9.57D-07 Max=1.94D-05 NDo=     1
 LinEq1:  Iter= 14 NonCon=     1 RMS=3.32D-07 Max=6.21D-06 NDo=     1
 LinEq1:  Iter= 15 NonCon=     1 RMS=8.76D-08 Max=1.31D-06 NDo=     1
 LinEq1:  Iter= 16 NonCon=     1 RMS=4.80D-08 Max=1.00D-06 NDo=     1
 LinEq1:  Iter= 17 NonCon=     1 RMS=1.25D-08 Max=1.97D-07 NDo=     1
 LinEq1:  Iter= 18 NonCon=     1 RMS=2.63D-09 Max=4.74D-08 NDo=     1
 LinEq1:  Iter= 19 NonCon=     1 RMS=5.92D-10 Max=1.39D-08 NDo=     1
 LinEq1:  Iter= 20 NonCon=     1 RMS=1.43D-10 Max=2.45D-09 NDo=     1
 LinEq1:  Iter= 21 NonCon=     1 RMS=6.58D-11 Max=1.04D-09 NDo=     1
 LinEq1:  Iter= 22 NonCon=     0 RMS=2.59D-11 Max=2.88D-10 NDo=     1
 Linear equations converged to 1.000D-10 1.000D-09 after    22 iterations.
 End of Minotr F.D. properties file   721 does not exist.
 End of Minotr F.D. properties file   722 does not exist.
 End of Minotr F.D. properties file   788 does not exist.
 Calling FoFJK, ICntrl=  10005127 FMM=F ISym2X=0 I1Cent= 0 IOpClX= 0 NMat=1 NMatS=1 NMatT=0.
 ***** Axes restored to original set *****
 -------------------------------------------------------------------
 Center     Atomic                   Forces (Hartrees/Bohr)
 Number     Number              X              Y              Z
 -------------------------------------------------------------------
      1        6           0.002529180    0.000993411   -0.000004222
      2        6           0.000929265    0.000310834   -0.000000181
      3        6           0.003214848   -0.001602236    0.000004602
      4        6          -0.011194133   -0.005428301   -0.000002841
      5        6           0.008360454    0.001966997   -0.000005073
      6        6          -0.002183617    0.001845033    0.000008675
      7        7           0.004121280    0.033369352    0.000013334
      8        6          -0.011344332    0.013506790   -0.000015465
      9        6          -0.006956667   -0.022304076   -0.000005416
     10        1           0.007814016   -0.021375421   -0.000002713
     11        1           0.000827987   -0.000180485    0.000005283
     12        1           0.002944597   -0.000304404    0.000005409
     13        1           0.000550994   -0.000765103    0.000000129
     14        1          -0.000555932    0.000315697   -0.000001040
     15        1           0.000635579    0.000063650   -0.000000111
     16        1           0.000306482   -0.000411736   -0.000000371
 -------------------------------------------------------------------
 Cartesian Forces:  Max     0.033369352 RMS     0.007603277

 GradGradGradGradGradGradGradGradGradGradGradGradGradGradGradGradGradGrad
 Berny optimization.
 Using GEDIIS/GDIIS optimizer.
 FormGI is forming the generalized inverse of G from B-inverse, IUseBI=4.
 Internal  Forces:  Max     0.022749969 RMS     0.003480483
 Search for a local minimum.
 Step number   2 out of a maximum of   94
 All quantities printed in internal units (Hartrees-Bohrs-Radians)
 Mixed Optimization -- RFO/linear search
 Update second derivatives using D2CorX and points    1    2
 DE= -9.67D-03 DEPred=-7.94D-03 R= 1.22D+00
 TightC=F SS=  1.41D+00  RLast= 1.80D-01 DXNew= 5.0454D-01 5.4143D-01
 Trust test= 1.22D+00 RLast= 1.80D-01 DXMaxT set to 5.05D-01
 ITU=  1  0
 Use linear search instead of GDIIS.
     Eigenvalues ---    0.01855   0.01932   0.01986   0.02011   0.02070
     Eigenvalues ---    0.02113   0.02148   0.02157   0.02172   0.02210
     Eigenvalues ---    0.02234   0.02248   0.02343   0.15895   0.16000
     Eigenvalues ---    0.16000   0.16000   0.16000   0.16000   0.16126
     Eigenvalues ---    0.21802   0.22152   0.22364   0.24398   0.24763
     Eigenvalues ---    0.30770   0.35714   0.35738   0.35789   0.35870
     Eigenvalues ---    0.36482   0.36754   0.37382   0.38869   0.42666
     Eigenvalues ---    0.43659   0.45780   0.46717   0.47537   0.47760
     Eigenvalues ---    0.49481   0.54987
 RFO step:  Lambda=-2.20763963D-03 EMin= 1.85454062D-02
 Quartic linear search produced a step of  0.39428.
 Iteration  1 RMS(Cart)=  0.01290164 RMS(Int)=  0.00007911
 Iteration  2 RMS(Cart)=  0.00010083 RMS(Int)=  0.00002252
 Iteration  3 RMS(Cart)=  0.00000002 RMS(Int)=  0.00002252
 Variable       Old X    -DE/DX   Delta X   Delta X   Delta X     New X
                                 (Linear)    (Quad)   (Total)
    R1        2.64409   0.00176  -0.00449   0.00779   0.00328   2.64737
    R2        2.64093  -0.00195   0.01105  -0.01244  -0.00139   2.63954
    R3        2.05376  -0.00053   0.00376  -0.00438  -0.00061   2.05315
    R4        2.67293  -0.00098   0.02262  -0.01722   0.00538   2.67831
    R5        2.05349  -0.00008   0.00370  -0.00257   0.00113   2.05462
    R6        2.61134  -0.00384  -0.00883  -0.00592  -0.01475   2.59659
    R7        2.05321  -0.00033   0.00310  -0.00320  -0.00010   2.05311
    R8        2.67497   0.00442  -0.00221   0.01711   0.01498   2.68995
    R9        2.63263   0.00336   0.01237   0.00055   0.01292   2.64555
   R10        2.66334  -0.00042   0.00616  -0.00467   0.00150   2.66485
   R11        2.68979  -0.00564  -0.00733  -0.01274  -0.02005   2.66975
   R12        2.05400  -0.00042   0.00344  -0.00374  -0.00030   2.05370
   R13        2.51968  -0.01372  -0.03393  -0.01912  -0.05310   2.46658
   R14        1.98271   0.02275   0.03441   0.04560   0.08001   2.06272
   R15        2.66007   0.01187   0.03208   0.01186   0.04390   2.70397
   R16        2.05269   0.00012   0.00730  -0.00402   0.00327   2.05597
   R17        2.05505   0.00296   0.00818   0.00623   0.01441   2.06946
    A1        2.09796   0.00145  -0.00640   0.01265   0.00624   2.10420
    A2        2.08885  -0.00037   0.00355  -0.00345   0.00010   2.08894
    A3        2.09637  -0.00108   0.00286  -0.00920  -0.00634   2.09004
    A4        2.12764   0.00104   0.00489   0.00253   0.00741   2.13505
    A5        2.07745   0.00045  -0.00244   0.00705   0.00462   2.08207
    A6        2.07809  -0.00149  -0.00245  -0.00958  -0.01202   2.06606
    A7        2.04892  -0.00238  -0.00099  -0.01449  -0.01548   2.03343
    A8        2.12801   0.00064   0.00605  -0.00079   0.00526   2.13328
    A9        2.10626   0.00175  -0.00506   0.01527   0.01022   2.11648
   A10        2.12432   0.00242  -0.00377   0.01726   0.01348   2.13780
   A11        2.26989   0.00020  -0.00357   0.00276  -0.00087   2.26902
   A12        1.88898  -0.00263   0.00735  -0.02002  -0.01261   1.87637
   A13        2.09673  -0.00076   0.00946  -0.01023  -0.00078   2.09595
   A14        1.84237   0.00196  -0.00899   0.02010   0.01118   1.85355
   A15        2.34408  -0.00120  -0.00047  -0.00987  -0.01040   2.33368
   A16        2.07080  -0.00177  -0.00318  -0.00771  -0.01086   2.05994
   A17        2.10689   0.00119   0.00151   0.00649   0.00799   2.11488
   A18        2.10549   0.00059   0.00167   0.00122   0.00288   2.10837
   A19        1.91185   0.00206   0.00175   0.00673   0.00843   1.92029
   A20        2.19722  -0.00045   0.00276  -0.00046   0.00232   2.19954
   A21        2.17411  -0.00162  -0.00450  -0.00627  -0.01075   2.16336
   A22        1.87690  -0.00367   0.00285  -0.02049  -0.01764   1.85926
   A23        2.21426   0.00269  -0.00115   0.01745   0.01631   2.23056
   A24        2.19203   0.00098  -0.00170   0.00303   0.00134   2.19336
   A25        1.90467   0.00228  -0.00295   0.01368   0.01064   1.91531
   A26        2.09190  -0.00108  -0.00418  -0.00301  -0.00714   2.08476
   A27        2.28662  -0.00120   0.00713  -0.01067  -0.00350   2.28312
    D1       -0.00001  -0.00000   0.00000  -0.00001  -0.00001  -0.00002
    D2       -3.14158  -0.00000  -0.00001  -0.00003  -0.00004   3.14157
    D3        3.14157   0.00000   0.00002   0.00002   0.00004  -3.14157
    D4        0.00000   0.00000   0.00001   0.00000   0.00001   0.00001
    D5       -0.00006   0.00000  -0.00001   0.00013   0.00012   0.00006
    D6       -3.14158  -0.00000   0.00003  -0.00002   0.00001  -3.14157
    D7        3.14155   0.00000  -0.00003   0.00009   0.00007  -3.14157
    D8        0.00002  -0.00000   0.00001  -0.00005  -0.00004  -0.00002
    D9        0.00007  -0.00000   0.00002  -0.00006  -0.00004   0.00003
   D10       -3.14157  -0.00000  -0.00001  -0.00000  -0.00002  -3.14159
   D11       -3.14154  -0.00000   0.00003  -0.00004  -0.00001  -3.14155
   D12       -0.00000   0.00000  -0.00000   0.00002   0.00001   0.00001
   D13       -0.00008   0.00000  -0.00003   0.00001  -0.00002  -0.00009
   D14       -3.14151   0.00000  -0.00003   0.00000  -0.00002  -3.14153
   D15        3.14157  -0.00000   0.00000  -0.00005  -0.00004   3.14153
   D16        0.00014  -0.00000   0.00000  -0.00005  -0.00005   0.00009
   D17        0.00001   0.00000   0.00002   0.00011   0.00013   0.00014
   D18       -3.14156   0.00000  -0.00002   0.00008   0.00006  -3.14150
   D19        3.14148   0.00000   0.00002   0.00011   0.00013  -3.14157
   D20       -0.00009   0.00000  -0.00002   0.00008   0.00006  -0.00003
   D21        3.14154  -0.00000  -0.00016   0.00003  -0.00014   3.14141
   D22       -0.00089   0.00001   0.00010   0.00035   0.00045  -0.00044
   D23        0.00009  -0.00000  -0.00016   0.00002  -0.00014  -0.00005
   D24        3.14085   0.00001   0.00010   0.00035   0.00044   3.14129
   D25        0.00005  -0.00000  -0.00000  -0.00017  -0.00017  -0.00012
   D26        3.14158  -0.00000  -0.00004  -0.00003  -0.00007   3.14152
   D27       -3.14157  -0.00000   0.00005  -0.00013  -0.00008   3.14153
   D28       -0.00004   0.00000   0.00001   0.00001   0.00002  -0.00002
   D29        0.00006  -0.00000   0.00018  -0.00015   0.00003   0.00009
   D30        3.14147   0.00000   0.00003   0.00014   0.00017  -3.14154
   D31       -3.14151  -0.00000   0.00014  -0.00019  -0.00005  -3.14156
   D32       -0.00009   0.00000  -0.00001   0.00010   0.00009  -0.00000
   D33       -0.00005  -0.00000   0.00029  -0.00012   0.00016   0.00011
   D34        3.14154  -0.00000   0.00009  -0.00011  -0.00002   3.14152
   D35       -3.14082  -0.00001   0.00003  -0.00044  -0.00042  -3.14124
   D36        0.00077  -0.00001  -0.00017  -0.00043  -0.00060   0.00017
   D37       -0.00001   0.00000  -0.00029   0.00017  -0.00012  -0.00013
   D38        3.14158   0.00000  -0.00006   0.00016   0.00010  -3.14151
   D39       -3.14142  -0.00000  -0.00014  -0.00012  -0.00026   3.14150
   D40        0.00017  -0.00000   0.00009  -0.00013  -0.00004   0.00012
         Item               Value     Threshold  Converged?
 Maximum Force            0.022750     0.000450     NO 
 RMS     Force            0.003480     0.000300     NO 
 Maximum Displacement     0.050647     0.001800     NO 
 RMS     Displacement     0.012927     0.001200     NO 
 Predicted change in Energy=-1.841402D-03
 GradGradGradGradGradGradGradGradGradGradGradGradGradGradGradGradGradGrad

                          Input orientation:                          
 ---------------------------------------------------------------------
 Center     Atomic      Atomic             Coordinates (Angstroms)
 Number     Number       Type             X           Y           Z
 ---------------------------------------------------------------------
      1          6           0       -2.176041    0.704179   -0.000023
      2          6           0       -2.126361   -0.695869    0.000003
      3          6           0       -0.902633   -1.410875    0.000047
      4          6           0        0.247182   -0.658576    0.000104
      5          6           0        0.229564    0.764776    0.000007
[...]
 LinEq1:  Iter= 12 NonCon=     1 RMS=4.95D-05 Max=1.13D-03 NDo=     1
 LinEq1:  Iter= 13 NonCon=     1 RMS=1.62D-05 Max=3.59D-04 NDo=     1
 LinEq1:  Iter= 14 NonCon=     1 RMS=5.85D-06 Max=1.59D-04 NDo=     1
 LinEq1:  Iter= 15 NonCon=     1 RMS=3.05D-06 Max=3.94D-05 NDo=     1
 LinEq1:  Iter= 16 NonCon=     1 RMS=1.04D-06 Max=1.65D-05 NDo=     1
 LinEq1:  Iter= 17 NonCon=     1 RMS=6.96D-07 Max=1.85D-05 NDo=     1
 LinEq1:  Iter= 18 NonCon=     1 RMS=2.04D-07 Max=4.25D-06 NDo=     1
 LinEq1:  Iter= 19 NonCon=     1 RMS=8.10D-08 Max=1.43D-06 NDo=     1
 LinEq1:  Iter= 20 NonCon=     1 RMS=4.02D-08 Max=7.61D-07 NDo=     1
 LinEq1:  Iter= 21 NonCon=     1 RMS=1.36D-08 Max=2.09D-07 NDo=     1
 LinEq1:  Iter= 22 NonCon=     1 RMS=4.51D-09 Max=8.21D-08 NDo=     1
 LinEq1:  Iter= 23 NonCon=     1 RMS=1.39D-09 Max=2.51D-08 NDo=     1
 LinEq1:  Iter= 24 NonCon=     1 RMS=3.66D-10 Max=6.25D-09 NDo=     1
 LinEq1:  Iter= 25 NonCon=     0 RMS=6.73D-11 Max=8.69D-10 NDo=     1
 Linear equations converged to 1.000D-10 1.000D-09 after    25 iterations.
 End of Minotr F.D. properties file   721 does not exist.
 End of Minotr F.D. properties file   722 does not exist.
 End of Minotr F.D. properties file   788 does not exist.
 Calling FoFJK, ICntrl=  10005127 FMM=F ISym2X=0 I1Cent= 0 IOpClX= 0 NMat=1 NMatS=1 NMatT=0.
 ***** Axes restored to original set *****
 -------------------------------------------------------------------
 Center     Atomic                   Forces (Hartrees/Bohr)
 Number     Number              X              Y              Z
 -------------------------------------------------------------------
      1        6           0.004262951    0.003058979   -0.013111511
      2        6           0.004584729   -0.007756807    0.005620088
      3        6          -0.012605725    0.002631309   -0.012941375
      4        6          -0.006985679   -0.014298121   -0.021799193
      5        6           0.001999986   -0.003888640    0.017421026
      6        6          -0.003111295   -0.005018741   -0.004965769
      7        7          -0.009923753   -0.031061198    0.172281415
      8        6           0.019040739   -0.016384023   -0.065775095
      9        6           0.019348870    0.038032277   -0.095550330
     10        1          -0.017975231    0.035261851   -0.048807280
     11        1           0.001598619   -0.001130632    0.025521191
     12        1          -0.000570747    0.001523863    0.030565702
     13        1           0.000094633   -0.000405108    0.002684719
     14        1          -0.000413907   -0.000819395   -0.006775943
     15        1          -0.000263604    0.000178743    0.000229212
     16        1           0.000919413    0.000075645    0.015403143
 -------------------------------------------------------------------
 Cartesian Forces:  Max     0.172281415 RMS     0.033615921

 GradGradGradGradGradGradGradGradGradGradGradGradGradGradGradGradGradGrad
 Berny optimization.
 Using GEDIIS/GDIIS optimizer.
 FormGI is forming the generalized inverse of G from B-inverse, IUseBI=4.
 Internal  Forces:  Max     0.045476618 RMS     0.012677199
 Search for a local minimum.
 Step number  10 out of a maximum of   94
 All quantities printed in internal units (Hartrees-Bohrs-Radians)
 Mixed Optimization -- RFO/linear search
 Iteration  1 RMS(Cart)=  0.03068210 RMS(Int)=  0.03494563
 Iteration  2 RMS(Cart)=  0.02110031 RMS(Int)=  0.01312087
 Iteration  3 RMS(Cart)=  0.01264434 RMS(Int)=  0.00000359
 Iteration  4 RMS(Cart)=  0.00000893 RMS(Int)=  0.00000000
 Iteration  5 RMS(Cart)=  0.00000000 RMS(Int)=  0.00000000
 Update second derivatives using D2CorX and points    7    6   10    9    8
 DE=  6.63D-03 DEPred=-5.42D-03 R=-1.22D+00
 Trust test=-1.22D+00 RLast= 6.59D-01 DXMaxT set to 1.78D-01
 ITU= -1 -1  1 -1  1  0  1  1  1  0
 Use linear search instead of GDIIS.
 Energy rises -- skip Quadratic/GDIIS search.
 Quartic linear search produced a step of -0.80733.
 Iteration  1 RMS(Cart)=  0.02914550 RMS(Int)=  0.03573091
 Iteration  2 RMS(Cart)=  0.02097645 RMS(Int)=  0.01390750
 Iteration  3 RMS(Cart)=  0.01337557 RMS(Int)=  0.00010495
 Iteration  4 RMS(Cart)=  0.00001050 RMS(Int)=  0.00010480
 Iteration  5 RMS(Cart)=  0.00000000 RMS(Int)=  0.00010480
 Variable       Old X    -DE/DX   Delta X   Delta X   Delta X     New X
                                 (Linear)    (Quad)   (Total)
    R1        2.65698   0.00182   0.00193   0.00000   0.00174   2.65872
    R2        2.62220   0.00268   0.00611   0.00000   0.01526   2.63746
    R3        2.05219   0.00061   0.00105   0.00000   0.00215   2.05434
    R4        2.66257   0.00107   0.00029   0.00000   0.00312   2.66568
    R5        2.05365   0.00062   0.00155   0.00000   0.00278   2.05642
    R6        2.61051   0.00191   0.00253   0.00000   0.00441   2.61492
    R7        2.04622   0.00228   0.00544   0.00000   0.01109   2.05731
    R8        2.70605  -0.00092   0.00106   0.00000  -0.00325   2.70280
    R9        2.66389  -0.01019  -0.01787   0.00000  -0.03786   2.62604
   R10        2.67573   0.00237  -0.00514   0.00000  -0.01080   2.66493
   R11        2.63942   0.00059   0.01349   0.00000   0.02652   2.66594
   R12        2.05000   0.00142   0.00430   0.00000   0.00886   2.05885
   R13        2.47573   0.00115   0.00515   0.00000  -0.00047   2.47525
   R14        3.95962  -0.01279  -0.52466   0.00000  -1.04613   2.91349
   R15        2.75297  -0.00669  -0.01333   0.00000  -0.02988   2.72309
   R16        2.03801   0.00384   0.00892   0.00000   0.01927   2.05729
   R17        2.05468  -0.00098  -0.00255   0.00000  -0.00494   2.04975
    A1        2.10421  -0.00000  -0.00201   0.00000  -0.00300   2.10121
    A2        2.08170   0.00023   0.00413   0.00000   0.00713   2.08882
    A3        2.09728  -0.00023  -0.00212   0.00000  -0.00412   2.09316
    A4        2.13171  -0.00078  -0.00041   0.00000  -0.00187   2.12984
    A5        2.07313   0.00068   0.00089   0.00000   0.00323   2.07636
    A6        2.07834   0.00011  -0.00048   0.00000  -0.00136   2.07698
    A7        2.05498  -0.00015   0.00129   0.00000   0.00003   2.05501
    A8        2.11092   0.00055   0.00732   0.00000   0.01415   2.12506
    A9        2.11729  -0.00040  -0.00861   0.00000  -0.01418   2.10311
   A10        2.10802   0.00194  -0.00156   0.00000   0.00172   2.10974
   A11        2.21926   0.00170   0.01420   0.00000   0.02622   2.24548
   A12        1.95591  -0.00364  -0.01264   0.00000  -0.02795   1.92796
   A13        2.10588  -0.00161   0.00158   0.00000   0.00125   2.10714
   A14        1.83182   0.00157  -0.00059   0.00000  -0.00094   1.83088
   A15        2.34548   0.00004  -0.00099   0.00000  -0.00031   2.34516
   A16        2.06157   0.00060   0.00112   0.00000   0.00186   2.06343
   A17        2.10731   0.00019   0.00070   0.00000   0.00230   2.10961
   A18        2.11430  -0.00079  -0.00182   0.00000  -0.00416   2.11014
   A19        1.81421   0.00573   0.02478   0.00000   0.05327   1.86749
   A20        2.38305  -0.00334  -0.05322   0.00000  -0.10887   2.27418
   A21        2.08592  -0.00239   0.02844   0.00000   0.05550   2.14142
   A22        1.83249  -0.00035   0.00745   0.00000   0.01377   1.84626
   A23        2.23446   0.00060  -0.00752   0.00000  -0.01269   2.22176
   A24        2.21624  -0.00026   0.00007   0.00000  -0.00108   2.21516
   A25        1.99034  -0.00331  -0.01900   0.00000  -0.03819   1.95215
   A26        2.12312  -0.00159  -0.01355   0.00000  -0.03434   2.08878
   A27        2.16973   0.00490   0.03255   0.00000   0.07252   2.24225
    D1       -0.00009   0.00001   0.00013   0.00000   0.00033   0.00024
    D2        3.14157  -0.00001   0.00008   0.00000   0.00007  -3.14155
    D3        3.14152  -0.00003   0.00007   0.00000  -0.00016   3.14136
    D4       -0.00000  -0.00005   0.00003   0.00000  -0.00042  -0.00042
    D5       -0.00002  -0.00012  -0.00007   0.00000  -0.00114  -0.00115
    D6        3.14158  -0.00017  -0.00006   0.00000  -0.00162   3.13997
    D7        3.14155  -0.00008  -0.00002   0.00000  -0.00064   3.14091
    D8       -0.00003  -0.00013  -0.00001   0.00000  -0.00112  -0.00115
    D9       -0.00003   0.00000  -0.00010   0.00000  -0.00001  -0.00004
   D10        3.14151  -0.00006   0.00004   0.00000  -0.00030   3.14121
   D11       -3.14169   0.00002  -0.00005   0.00000   0.00025  -3.14144
   D12       -0.00015  -0.00004   0.00008   0.00000  -0.00004  -0.00019
   D13        0.00026   0.00010   0.00002   0.00000   0.00052   0.00078
   D14       -3.14176   0.00037   0.00031   0.00000   0.00401  -3.13776
   D15       -3.14128   0.00016  -0.00011   0.00000   0.00081  -3.14047
   D16       -0.00012   0.00043   0.00017   0.00000   0.00429   0.00418
   D17       -0.00038  -0.00021   0.00002   0.00000  -0.00137  -0.00175
   D18        3.14122  -0.00004  -0.00003   0.00000   0.00025   3.14148
   D19        3.14159  -0.00045  -0.00022   0.00000  -0.00429   3.13730
   D20       -0.00000  -0.00027  -0.00027   0.00000  -0.00266  -0.00266
   D21       -3.14118   0.00053   0.00009   0.00000   0.00410  -3.13709
   D22        0.00115  -0.00134  -0.00035   0.00000  -0.01216  -0.01100
   D23        0.00001   0.00078   0.00035   0.00000   0.00729   0.00730
   D24        3.14235  -0.00109  -0.00009   0.00000  -0.00896   3.13339
   D25        0.00025   0.00022   0.00000   0.00000   0.00165   0.00190
   D26       -3.14136   0.00027  -0.00001   0.00000   0.00213  -3.13923
   D27        3.14183  -0.00002   0.00007   0.00000  -0.00055   3.14128
   D28        0.00023   0.00004   0.00006   0.00000  -0.00007   0.00016
   D29       -0.00001  -0.00030   0.00009   0.00000  -0.00256  -0.00257
   D30       -3.14157   0.00010  -0.00001   0.00000   0.00147  -3.14010
   D31        3.14159  -0.00009   0.00003   0.00000  -0.00060   3.14099
   D32        0.00003   0.00031  -0.00007   0.00000   0.00343   0.00346
   D33       -0.00001  -0.00100  -0.00029   0.00000  -0.00905  -0.00906
   D34        3.14165  -0.00085  -0.00005   0.00000  -0.00801   3.13364
   D35       -3.14220   0.00048   0.00005   0.00000   0.00560  -3.13660
   D36       -0.00053   0.00063   0.00029   0.00000   0.00663   0.00610
   D37        0.00001   0.00086   0.00013   0.00000   0.00745   0.00747
   D38       -3.14166   0.00071  -0.00014   0.00000   0.00630  -3.13536
   D39       -3.14161   0.00047   0.00023   0.00000   0.00344  -3.13816
   D40       -0.00009   0.00031  -0.00003   0.00000   0.00229   0.00220
         Item               Value     Threshold  Converged?
 Maximum Force            0.045477     0.000450     NO 
 RMS     Force            0.012677     0.000300     NO 
 Maximum Displacement     0.432616     0.001800     NO 
 RMS     Displacement     0.060763     0.001200     NO 
 Predicted change in Energy=-1.736124D-02
 GradGradGradGradGradGradGradGradGradGradGradGradGradGradGradGradGradGrad

                          Input orientation:                          
 ---------------------------------------------------------------------
 Center     Atomic      Atomic             Coordinates (Angstroms)
 Number     Number       Type             X           Y           Z
 ---------------------------------------------------------------------
      1          6           0       -2.192887    0.724158    0.000860
      2          6           0       -2.129056   -0.681327    0.000746
      3          6           0       -0.900476   -1.374463   -0.000221
      4          6           0        0.262321   -0.624345   -0.001120
      5          6           0        0.213735    0.805089   -0.000103
      6          6           0       -1.022245    1.484111   -0.000280
      7          7           0        1.580007   -1.065677   -0.006319
      8          6           0        1.563931    1.213986   -0.001297
      9          6           0        2.340962    0.000438    0.000597
     10          1           0        2.152196   -2.497302    0.000348
     11          1           0        1.944290    2.234047    0.000269
     12          1           0        3.419999   -0.109936    0.005716
     13          1           0       -3.056244   -1.251000    0.001608
     14          1           0       -0.856284   -2.462249    0.000049
     15          1           0       -3.160818    1.219054    0.001402
     16          1           0       -1.062529    2.572863   -0.001719
 ---------------------------------------------------------------------
                    Distance matrix (angstroms):
                    1          2          3          4          5
     1  C    0.000000
     2  C    1.406934   0.000000
     3  C    2.464658   1.410619   0.000000
     4  C    2.801162   2.392057   1.383754   0.000000
     5  C    2.407982   2.774546   2.447839   1.430261   0.000000
     6  C    1.395683   2.431903   2.861166   2.468947   1.410218
     7  N    4.175917   3.728930   2.499636   1.389639   2.316572
     8  C    3.788617   4.150948   3.573986   2.252476   1.410755
     9  C    4.591248   4.521711   3.520977   2.170508   2.274327
    10  H    5.409025   4.650472   3.252626   2.660751   3.829285
    11  H    4.404088   5.009147   4.595001   3.316538   2.244268
    12  H    5.674524   5.578398   4.501729   3.199311   3.334282
    13  H    2.155606   1.088212   2.159301   3.377214   3.862676
    14  H    3.455386   2.188979   1.088683   2.151550   3.438086
    15  H    1.087112   2.162402   3.440273   3.887931   3.399849
    16  H    2.166894   3.424506   3.950652   3.460834   2.180338
                    6          7          8          9         10
     6  C    0.000000
     7  N    3.643236   0.000000
     8  C    2.600246   2.279725   0.000000
     9  C    3.675929   1.309848   1.441000   0.000000
    10  H    5.092026   1.541750   3.757621   2.504862   0.000000
    11  H    3.059858   3.319778   1.088669   2.268559   4.735914
    12  H    4.719592   2.073441   2.279870   1.084679   2.703122
    13  H    3.408517   4.639959   5.236620   5.540391   5.355475
    14  H    3.949847   2.808196   4.401380   4.035741   3.008684
    15  H    2.154936   5.262649   4.724753   5.635123   6.483781
    16  H    1.089499   4.496887   2.957168   4.266278   6.003419
                   11         12         13         14         15
    11  H    0.000000
    12  H    2.769838   0.000000
    13  H    6.095153   6.575999   0.000000
    14  H    5.467943   4.880574   2.511364   0.000000
    15  H    5.205030   6.713671   2.472267   4.343140   0.000000
    16  H    3.025848   5.224033   4.312406   5.039335   2.497124
                   16
    16  H    0.000000
 Stoichiometry    C8H7N
 Framework group  C1[X(C8H7N)]
 Deg. of freedom    42
 Full point group                 C1      NOp   1
 Largest Abelian subgroup         C1      NOp   1
 Largest concise Abelian subgroup C1      NOp   1
                         Standard orientation:                         
 ---------------------------------------------------------------------
 Center     Atomic      Atomic             Coordinates (Angstroms)
 Number     Number       Type             X           Y           Z
 ---------------------------------------------------------------------
      1          6           0       -2.214277    0.585363    0.000245
      2          6           0       -2.077614   -0.814918    0.000762
      3          6           0       -0.814727   -1.443380    0.000646
      4          6           0        0.307587   -0.633944   -0.000049
      5          6           0        0.184905    0.791045    0.000333
      6          6           0       -1.084639    1.405026   -0.000693
      7          7           0        1.646397   -1.006320   -0.004464
      8          6           0        1.512069    1.269441   -0.000427
      9          6           0        2.351013    0.097841    0.002339
     10          1           0        2.292088   -2.406328    0.003075
     11          1           0        1.838992    2.307862    0.000874
     12          1           0        3.434320    0.043600    0.007992
     13          1           0       -2.973997   -1.431927    0.001449
     14          1           0       -0.714158   -2.527407    0.001403
     15          1           0       -3.206581    1.029374    0.000137
     16          1           0       -1.181354    2.490222   -0.002617
 ---------------------------------------------------------------------
 Rotational constants (GHZ):           3.7784925           1.6420275           1.1446136
 Standard basis: 6-31+G(d) (6D, 7F)
 There are   185 symmetry adapted cartesian basis functions of A   symmetry.
 There are   185 symmetry adapted basis functions of A   symmetry.
   185 basis functions,   316 primitive gaussians,   185 cartesian basis functions
    31 alpha electrons       31 beta electrons
       nuclear repulsion energy       397.7560135179 Hartrees.
 NAtoms=   16 NActive=   16 NUniq=   16 SFac= 1.00D+00 NAtFMM=   60 NAOKFM=F Big=F
 Integral buffers will be    131072 words long.
 Regular integral format.
 Two-electron integral symmetry is turned on.
 One-electron integrals computed using PRISM.
 NBasis=   185 RedAO= T EigKep=  1.18D-06  NBF=   185
 NBsUse=   185 1.00D-06 EigRej= -1.00D+00 NBFU=   185
 Lowest energy guess from the checkpoint file:  "FuncsMN15-V-3rd.chk"
 B after Tr=     0.000000   -0.000000    0.000000
         Rot=    0.999981   -0.000023   -0.000011    0.006173 Ang=  -0.71 deg.
 B after Tr=     0.000000   -0.000000   -0.000000
         Rot=    0.999971    0.000004    0.000002    0.007552 Ang=   0.87 deg.
 Keep R1 ints in memory in canonical form, NReq=152074523.
 Requested convergence on RMS density matrix=1.00D-08 within 128 cycles.
 Requested convergence on MAX density matrix=1.00D-06.
 Requested convergence on             energy=1.00D-06.
 No special actions if energy rises.
 SCF Done:  E(RMN15) =  -363.278864405     A.U. after   16 cycles
            NFock= 16  Conv=0.81D-08     -V/T= 2.0163
 DoSCS=F DFT=T ScalE2(SS,OS)=  1.000000  1.000000
 ExpMin= 4.38D-02 ExpMax= 4.17D+03 ExpMxC= 6.27D+02 IAcc=3 IRadAn=         5 AccDes= 0.00D+00
 HarFok:  IExCor=  205 AccDes= 0.00D+00 IRadAn=         5 IDoV=-2 UseB2=F ITyADJ=14
 ICtDFT= 12500011 ScaDFX=  1.000000  1.000000  1.000000  1.000000
 Range of M.O.s used for correlation:    10   185
 NBasis=   185 NAE=    31 NBE=    31 NFC=     9 NFV=     0
 NROrb=    176 NOA=    22 NOB=    22 NVA=   154 NVB=   154

 **** Warning!!: The largest alpha MO coefficient is  0.19668434D+03

 Orbital symmetries:
       Occupied  (A) (A) (A) (A) (A) (A) (A) (A) (A) (A) (A) (A)
                 (A) (A) (A) (A) (A) (A) (A) (A) (A) (A) (A) (A)
                 (A) (A) (A) (A) (A) (A) (A)
       Virtual   (A) (A) (A) (A) (A) (A) (A) (A) (A) (A) (A) (A)
                 (A) (A) (A) (A) (A) (A) (A) (A) (A) (A) (A) (A)
                 (A) (A) (A) (A) (A) (A) (A) (A) (A) (A) (A) (A)
                 (A) (A) (A) (A) (A) (A) (A) (A) (A) (A) (A) (A)
                 (A) (A) (A) (A) (A) (A) (A) (A) (A) (A) (A) (A)
                 (A) (A) (A) (A) (A) (A) (A) (A) (A) (A) (A) (A)
                 (A) (A) (A) (A) (A) (A) (A) (A) (A) (A) (A) (A)
                 (A) (A) (A) (A) (A) (A) (A) (A) (A) (A) (A) (A)
                 (A) (A) (A) (A) (A) (A) (A) (A) (A) (A) (A) (A)
                 (A) (A) (A) (A) (A) (A) (A) (A) (A) (A) (A) (A)
                 (A) (A) (A) (A) (A) (A) (A) (A) (A) (A) (A) (A)
                 (A) (A) (A) (A) (A) (A) (A) (A) (A) (A) (A) (A)
                 (A) (A) (A) (A) (A) (A) (A) (A) (A) (A)
 Generating guess from densities on rwf.
 Convergence on wavefunction:    0.000001000000000
 Iteration     1 Dimension    12 NMult     0 NNew     12
 CISAX will form    12 AO SS matrices at one time.
 New state      1 was old state      3
 New state      3 was old state      1
 New state      4 was old state      5
 New state      5 was old state      4
 Iteration     2 Dimension    24 NMult    12 NNew     12
 New state      5 was old state      6
 New state      6 was old state      5
 Iteration     3 Dimension    36 NMult    24 NNew     12
