 Entering Gaussian System, Link 0=/cm/shared/apps/spack/cpu/opt/spack/linux-centos8-zen/gcc-8.3.1/gaussian-16.C.01-po5bqktfeugvmjyga3v7eigbecnokxng/g16/g16
 Initial command:
 /cm/shared/apps/spack/cpu/opt/spack/linux-centos8-zen/gcc-8.3.1/gaussian-16.C.01-po5bqktfeugvmjyga3v7eigbecnokxng/g16/l1.exe "/scratch/cwaldt/job_3576369/Gau-123263.inp" -scrdir="/scratch/cwaldt/job_3576369/"
 Entering Link 1 = /cm/shared/apps/spack/cpu/opt/spack/linux-centos8-zen/gcc-8.3.1/gaussian-16.C.01-po5bqktfeugvmjyga3v7eigbecnokxng/g16/l1.exe PID=    123264.
  
 Copyright (c) 1988-2019, Gaussian, Inc.  All Rights Reserved.
  
 This is part of the Gaussian(R) 16 program.  It is based on
 the Gaussian(R) 09 system (copyright 2009, Gaussian, Inc.),
 the Gaussian(R) 03 system (copyright 2003, Gaussian, Inc.),
 the Gaussian(R) 98 system (copyright 1998, Gaussian, Inc.),
 the Gaussian(R) 94 system (copyright 1995, Gaussian, Inc.),
 the Gaussian 92(TM) system (copyright 1992, Gaussian, Inc.),
 the Gaussian 90(TM) system (copyright 1990, Gaussian, Inc.),
 the Gaussian 88(TM) system (copyright 1988, Gaussian, Inc.),
 the Gaussian 86(TM) system (copyright 1986, Carnegie Mellon
 University), and the Gaussian 82(TM) system (copyright 1983,
 Carnegie Mellon University). Gaussian is a federally registered
 trademark of Gaussian, Inc.
  
 This software contains proprietary and confidential information,
 including trade secrets, belonging to Gaussian, Inc.
  
 This software is provided under written license and may be
 used, copied, transmitted, or stored only in accord with that
 written license.
  
 The following legend is applicable only to US Government
 contracts under FAR:
  
                    RESTRICTED RIGHTS LEGEND
  
 Use, reproduction and disclosure by the US Government is
 subject to restrictions as set forth in subparagraphs (a)
 and (c) of the Commercial Computer Software - Restricted
 Rights clause in FAR 52.227-19.
  
 Gaussian, Inc.
 340 Quinnipiac St., Bldg. 40, Wallingford CT 06492
  
  
 ---------------------------------------------------------------
 Warning -- This program may not be used in any manner that
 competes with the business of Gaussian, Inc. or will provide
 assistance to any competitor of Gaussian, Inc.  The licensee
 of this program is prohibited from giving any competitor of
 Gaussian, Inc. access to this program.  By using this program,
 the user acknowledges that Gaussian, Inc. is engaged in the
 business of creating and licensing software in the field of
 computational chemistry and represents and warrants to the
 licensee that it is not a competitor of Gaussian, Inc. and that
 it will not use this program in any manner prohibited above.
 ---------------------------------------------------------------
  

 Cite this work as:
 Gaussian 16, Revision C.01,
 M. J. Frisch, G. W. Trucks, H. B. Schlegel, G. E. Scuseria, 
 M. A. Robb, J. R. Cheeseman, G. Scalmani, V. Barone, 
 G. A. Petersson, H. Nakatsuji, X. Li, M. Caricato, A. V. Marenich, 
 J. Bloino, B. G. Janesko, R. Gomperts, B. Mennucci, H. P. Hratchian, 
 J. V. Ortiz, A. F. Izmaylov, J. L. Sonnenberg, D. Williams-Young, 
 F. Ding, F. Lipparini, F. Egidi, J. Goings, B. Peng, A. Petrone, 
 T. Henderson, D. Ranasinghe, V. G. Zakrzewski, J. Gao, N. Rega, 
 G. Zheng, W. Liang, M. Hada, M. Ehara, K. Toyota, R. Fukuda, 
 J. Hasegawa, M. Ishida, T. Nakajima, Y. Honda, O. Kitao, H. Nakai, 
 T. Vreven, K. Throssell, J. A. Montgomery, Jr., J. E. Peralta, 
 F. Ogliaro, M. J. Bearpark, J. J. Heyd, E. N. Brothers, K. N. Kudin, 
 V. N. Staroverov, T. A. Keith, R. Kobayashi, J. Normand, 
 K. Raghavachari, A. P. Rendell, J. C. Burant, S. S. Iyengar, 
 J. Tomasi, M. Cossi, J. M. Millam, M. Klene, C. Adamo, R. Cammi, 
 J. W. Ochterski, R. L. Martin, K. Morokuma, O. Farkas, 
 J. B. Foresman, and D. J. Fox, Gaussian, Inc., Wallingford CT, 2019.
 
 ******************************************
 Gaussian 16:  AS64L-G16RevC.01  3-Jul-2019
                23-Jun-2021 
 ******************************************
 %nprocshared=4
 Will use up to    4 processors via shared memory.
 %chk=FuncsMN15-V-1st.chk
 %Mem=3GB
 ----------------------------------------------------------
 # td= (nstates=6, root=1) MN15/6-31+G* Opt density=current
 ----------------------------------------------------------
 1/18=20,19=15,26=3,38=1/1,3;
 2/9=110,12=2,17=6,18=5,40=1/2;
 3/5=1,6=6,7=11,11=9,25=1,30=1,71=1,74=-73/1,2,3,8;
 4//1;
 5/5=2,38=5/2;
 8/6=1,10=2,107=1,108=6/1;
 9/8=1,15=2,41=6,42=1,70=2/14;
 10/5=4,28=1/2;
 6/7=2,8=2,9=2,10=2,22=-1/1;
 7/12=6,13=5,14=1/1,2,3,16;
 1/18=20,19=15,26=3/3(2);
 2/9=110/2;
 99//99;
 2/9=110/2;
 3/5=1,6=6,7=11,11=9,25=1,30=1,71=1,74=-73/1,2,3,8;
 4/5=5,16=3,69=1/1;
 5/5=2,38=5/2;
 8/6=1,10=2,107=1,108=6/1;
 9/8=1,15=2,41=6,42=1,49=4,70=2/14;
 10/5=4,28=1/2;
 7/12=6,13=5,14=1/1,2,3,16;
 1/18=20,19=15,26=3/3(-8);
 2/9=110/2;
 6/7=2,8=2,9=2,10=2,22=-1/1;
 99/9=10/99;
 ---------------
 FuncsMN15-V-1st
 ---------------
 Symbolic Z-matrix:
 Charge =  0 Multiplicity = 1
 C                    -2.15106   0.68921   0.00009 
 C                    -2.12793  -0.71582   0.00008 
 C                    -0.9323   -1.4131   -0.00001 
 C                     0.24691  -0.6702   -0.00004 
 C                     0.24819   0.7483    0. 
 C                    -0.97947   1.42353   0.00003 
 N                     1.56177  -1.07759  -0.00029 
 C                     1.62013   1.1629   -0.00016 
 C                     2.38201   0.03081   0.00025 
 H                     1.87632  -2.03001   0.00044 
 H                     1.99217   2.17301  -0.00035 
 H                     3.45255  -0.08243   0.00041 
 H                    -3.06159  -1.26202   0.00009 
 H                    -0.91725  -2.49534  -0.00007 
 H                    -3.1042    1.20079   0.00009 
 H                    -1.00935   2.50542  -0.00002 
 

 GradGradGradGradGradGradGradGradGradGradGradGradGradGradGradGradGradGrad
 Berny optimization.
 Initialization pass.
                           ----------------------------
                           !    Initial Parameters    !
                           ! (Angstroms and Degrees)  !
 --------------------------                            --------------------------
 ! Name  Definition              Value          Derivative Info.                !
 --------------------------------------------------------------------------------
 ! R1    R(1,2)                  1.4052         estimate D2E/DX2                !
 ! R2    R(1,6)                  1.3827         estimate D2E/DX2                !
 ! R3    R(1,15)                 1.0818         estimate D2E/DX2                !
 ! R4    R(2,3)                  1.3841         estimate D2E/DX2                !
 ! R5    R(2,13)                 1.0817         estimate D2E/DX2                !
 ! R6    R(3,4)                  1.3937         estimate D2E/DX2                !
 ! R7    R(3,14)                 1.0823         estimate D2E/DX2                !
 ! R8    R(4,5)                  1.4185         estimate D2E/DX2                !
 ! R9    R(4,7)                  1.3765         estimate D2E/DX2                !
 ! R10   R(5,6)                  1.4011         estimate D2E/DX2                !
 ! R11   R(5,8)                  1.4332         estimate D2E/DX2                !
 ! R12   R(6,16)                 1.0823         estimate D2E/DX2                !
 ! R13   R(7,9)                  1.3789         estimate D2E/DX2                !
 ! R14   R(7,10)                 1.003          estimate D2E/DX2                !
 ! R15   R(8,9)                  1.3646         estimate D2E/DX2                !
 ! R16   R(8,11)                 1.0764         estimate D2E/DX2                !
 ! R17   R(9,12)                 1.0765         estimate D2E/DX2                !
 ! A1    A(2,1,6)              121.1349         estimate D2E/DX2                !
 ! A2    A(2,1,15)             119.1671         estimate D2E/DX2                !
 ! A3    A(6,1,15)             119.698          estimate D2E/DX2                !
 ! A4    A(1,2,3)              121.1938         estimate D2E/DX2                !
 ! A5    A(1,2,13)             119.3846         estimate D2E/DX2                !
 ! A6    A(3,2,13)             119.4217         estimate D2E/DX2                !
 ! A7    A(2,3,4)              117.5387         estimate D2E/DX2                !
 ! A8    A(2,3,14)             121.0469         estimate D2E/DX2                !
 ! A9    A(4,3,14)             121.4144         estimate D2E/DX2                !
 ! A10   A(3,4,5)              122.2626         estimate D2E/DX2                !
 ! A11   A(3,4,7)              130.5743         estimate D2E/DX2                !
 ! A12   A(5,4,7)              107.163          estimate D2E/DX2                !
 ! A13   A(4,5,6)              118.7594         estimate D2E/DX2                !
 ! A14   A(4,5,8)              106.8666         estimate D2E/DX2                !
 ! A15   A(6,5,8)              134.374          estimate D2E/DX2                !
 ! A16   A(1,6,5)              119.1105         estimate D2E/DX2                !
 ! A17   A(1,6,16)             120.4966         estimate D2E/DX2                !
 ! A18   A(5,6,16)             120.3928         estimate D2E/DX2                !
 ! A19   A(4,7,9)              109.2874         estimate D2E/DX2                !
 ! A20   A(4,7,10)             125.4909         estimate D2E/DX2                !
 ! A21   A(9,7,10)             125.2217         estimate D2E/DX2                !
 ! A22   A(5,8,9)              107.125          estimate D2E/DX2                !
 ! A23   A(5,8,11)             127.0344         estimate D2E/DX2                !
 ! A24   A(9,8,11)             125.8405         estimate D2E/DX2                !
 ! A25   A(7,9,8)              109.5578         estimate D2E/DX2                !
 ! A26   A(7,9,12)             120.4645         estimate D2E/DX2                !
 ! A27   A(8,9,12)             129.9776         estimate D2E/DX2                !
 ! D1    D(6,1,2,3)             -0.0008         estimate D2E/DX2                !
 ! D2    D(6,1,2,13)          -179.9981         estimate D2E/DX2                !
 ! D3    D(15,1,2,3)           179.996          estimate D2E/DX2                !
 ! D4    D(15,1,2,13)           -0.0013         estimate D2E/DX2                !
 ! D5    D(2,1,6,5)             -0.0018         estimate D2E/DX2                !
 ! D6    D(2,1,6,16)           179.9965         estimate D2E/DX2                !
 ! D7    D(15,1,6,5)          -179.9986         estimate D2E/DX2                !
 ! D8    D(15,1,6,16)           -0.0003         estimate D2E/DX2                !
 ! D9    D(1,2,3,4)              0.002          estimate D2E/DX2                !
 ! D10   D(1,2,3,14)          -179.9968         estimate D2E/DX2                !
 ! D11   D(13,2,3,4)           179.9992         estimate D2E/DX2                !
 ! D12   D(13,2,3,14)            0.0005         estimate D2E/DX2                !
 ! D13   D(2,3,4,5)             -0.0005         estimate D2E/DX2                !
 ! D14   D(2,3,4,7)           -179.9911         estimate D2E/DX2                !
 ! D15   D(14,3,4,5)           179.9982         estimate D2E/DX2                !
 ! D16   D(14,3,4,7)             0.0076         estimate D2E/DX2                !
 ! D17   D(3,4,5,6)             -0.002          estimate D2E/DX2                !
 ! D18   D(3,4,5,8)           -179.9955         estimate D2E/DX2                !
 ! D19   D(7,4,5,6)            179.9905         estimate D2E/DX2                !
 ! D20   D(7,4,5,8)             -0.003          estimate D2E/DX2                !
 ! D21   D(3,4,7,9)           -179.98           estimate D2E/DX2                !
 ! D22   D(3,4,7,10)            -0.0649         estimate D2E/DX2                !
 ! D23   D(5,4,7,9)              0.0284         estimate D2E/DX2                !
 ! D24   D(5,4,7,10)           179.9434         estimate D2E/DX2                !
 ! D25   D(4,5,6,1)              0.0031         estimate D2E/DX2                !
 ! D26   D(4,5,6,16)          -179.9951         estimate D2E/DX2                !
 ! D27   D(8,5,6,1)            179.9944         estimate D2E/DX2                !
 ! D28   D(8,5,6,16)            -0.0038         estimate D2E/DX2                !
 ! D29   D(4,5,8,9)             -0.0234         estimate D2E/DX2                !
 ! D30   D(4,5,8,11)           179.9883         estimate D2E/DX2                !
 ! D31   D(6,5,8,9)            179.9846         estimate D2E/DX2                !
 ! D32   D(6,5,8,11)            -0.0037         estimate D2E/DX2                !
 ! D33   D(4,7,9,8)             -0.0444         estimate D2E/DX2                !
 ! D34   D(4,7,9,12)           179.9847         estimate D2E/DX2                !
 ! D35   D(10,7,9,8)          -179.9597         estimate D2E/DX2                !
 ! D36   D(10,7,9,12)            0.0693         estimate D2E/DX2                !
 ! D37   D(5,8,9,7)              0.0414         estimate D2E/DX2                !
 ! D38   D(5,8,9,12)          -179.9913         estimate D2E/DX2                !
 ! D39   D(11,8,9,7)          -179.9702         estimate D2E/DX2                !
 ! D40   D(11,8,9,12)           -0.0029         estimate D2E/DX2                !
 --------------------------------------------------------------------------------
 Trust Radius=3.00D-01 FncErr=1.00D-07 GrdErr=1.00D-06 EigMax=2.50D+02 EigMin=1.00D-04
 Number of steps in this run=     94 maximum allowed number of steps=    100.
 GradGradGradGradGradGradGradGradGradGradGradGradGradGradGradGradGradGrad

                          Input orientation:                          
 ---------------------------------------------------------------------
 Center     Atomic      Atomic             Coordinates (Angstroms)
 Number     Number       Type             X           Y           Z
 ---------------------------------------------------------------------
      1          6           0       -2.151063    0.689208    0.000088
      2          6           0       -2.127927   -0.715818    0.000075
      3          6           0       -0.932297   -1.413100   -0.000011
      4          6           0        0.246911   -0.670201   -0.000042
      5          6           0        0.248193    0.748299    0.000000
      6          6           0       -0.979474    1.423526    0.000032
      7          7           0        1.561774   -1.077592   -0.000285
      8          6           0        1.620133    1.162900   -0.000157
      9          6           0        2.382013    0.030806    0.000248
     10          1           0        1.876315   -2.030011    0.000438
     11          1           0        1.992173    2.173010   -0.000348
     12          1           0        3.452549   -0.082425    0.000408
     13          1           0       -3.061594   -1.262020    0.000088
     14          1           0       -0.917252   -2.495342   -0.000073
     15          1           0       -3.104203    1.200785    0.000090
     16          1           0       -1.009348    2.505421   -0.000015
 ---------------------------------------------------------------------
                    Distance matrix (angstroms):
                    1          2          3          4          5
     1  C    0.000000
     2  C    1.405216   0.000000
     3  C    2.430039   1.384100   0.000000
     4  C    2.756496   2.375276   1.393711   0.000000
     5  C    2.399984   2.790983   2.462763   1.418501   0.000000
     6  C    1.382694   2.428114   2.837018   2.426461   1.401106
     7  N    4.111781   3.707395   2.516536   1.376529   2.249305
     8  C    3.800829   4.192557   3.626386   2.290414   1.433218
     9  C    4.580641   4.571324   3.615178   2.247236   2.251218
    10  H    4.859416   4.214387   2.875566   2.122273   3.220216
    11  H    4.400917   5.031953   4.627387   3.336134   2.251948
    12  H    5.656491   5.616307   4.582311   3.259079   3.310287
    13  H    2.153220   1.081698   2.134650   3.361020   3.872476
    14  H    3.415208   2.152310   1.082347   2.164813   3.446661
    15  H    1.081752   2.150926   3.398466   3.838040   3.382795
    16  H    2.145261   3.409927   3.919278   3.415079   2.160761
                    6          7          8          9         10
     6  C    0.000000
     7  N    3.565604   0.000000
     8  C    2.612639   2.241252   0.000000
     9  C    3.638580   1.378890   1.364587   0.000000
    10  H    4.481345   1.003015   3.203172   2.121956   0.000000
    11  H    3.064704   3.278972   1.076446   2.177387   4.204618
    12  H    4.680888   2.136677   2.215532   1.076508   2.505515
    13  H    3.398144   4.627045   5.272457   5.595021   4.997275
    14  H    3.919362   2.855798   4.452085   4.155307   2.832058
    15  H    2.136372   5.192528   4.724488   5.609583   5.936632
    16  H    1.082307   4.410062   2.952378   4.198220   5.375611
                   11         12         13         14         15
    11  H    0.000000
    12  H    2.686947   0.000000
    13  H    6.110646   6.620083   0.000000
    14  H    5.500751   4.991726   2.473719   0.000000
    15  H    5.188282   6.681139   2.463174   4.294661   0.000000
    16  H    3.019872   5.158049   4.290143   5.001611   2.467892
                   16
    16  H    0.000000
 Stoichiometry    C8H7N
 Framework group  C1[X(C8H7N)]
 Deg. of freedom    42
 Full point group                 C1      NOp   1
 Largest Abelian subgroup         C1      NOp   1
 Largest concise Abelian subgroup C1      NOp   1
                         Standard orientation:                         
 ---------------------------------------------------------------------
 Center     Atomic      Atomic             Coordinates (Angstroms)
 Number     Number       Type             X           Y           Z
 ---------------------------------------------------------------------
      1          6           0       -2.151063    0.689208    0.000088
      2          6           0       -2.127927   -0.715818    0.000075
      3          6           0       -0.932297   -1.413100   -0.000011
      4          6           0        0.246911   -0.670201   -0.000042
      5          6           0        0.248193    0.748299    0.000000
      6          6           0       -0.979474    1.423526    0.000032
      7          7           0        1.561774   -1.077592   -0.000285
      8          6           0        1.620133    1.162900   -0.000157
      9          6           0        2.382013    0.030806    0.000248
     10          1           0        1.876315   -2.030011    0.000438
     11          1           0        1.992173    2.173010   -0.000348
     12          1           0        3.452549   -0.082425    0.000408
     13          1           0       -3.061594   -1.262020    0.000088
     14          1           0       -0.917252   -2.495342   -0.000073
     15          1           0       -3.104203    1.200785    0.000090
     16          1           0       -1.009348    2.505421   -0.000015
 ---------------------------------------------------------------------
 Rotational constants (GHZ):           3.9080822           1.6429452           1.1566805
 Standard basis: 6-31+G(d) (6D, 7F)
 There are   185 symmetry adapted cartesian basis functions of A   symmetry.
 There are   185 symmetry adapted basis functions of A   symmetry.
   185 basis functions,   316 primitive gaussians,   185 cartesian basis functions
    31 alpha electrons       31 beta electrons
       nuclear repulsion energy       401.3368668897 Hartrees.
 NAtoms=   16 NActive=   16 NUniq=   16 SFac= 1.00D+00 NAtFMM=   60 NAOKFM=F Big=F
 Integral buffers will be    131072 words long.
 Regular integral format.
 Two-electron integral symmetry is turned on.
 One-electron integrals computed using PRISM.
 NBasis=   185 RedAO= T EigKep=  1.26D-06  NBF=   185
 NBsUse=   185 1.00D-06 EigRej= -1.00D+00 NBFU=   185
 ExpMin= 4.38D-02 ExpMax= 4.17D+03 ExpMxC= 6.27D+02 IAcc=3 IRadAn=         5 AccDes= 0.00D+00
 Harris functional with IExCor= 1009 and IRadAn=       5 diagonalized for initial guess.
 HarFok:  IExCor= 1009 AccDes= 0.00D+00 IRadAn=         5 IDoV= 1 UseB2=F ITyADJ=14
 ICtDFT=  3500011 ScaDFX=  1.000000  1.000000  1.000000  1.000000
 FoFCou: FMM=F IPFlag=           0 FMFlag=      100000 FMFlg1=           0
         NFxFlg=           0 DoJE=T BraDBF=F KetDBF=T FulRan=T
         wScrn=  0.000000 ICntrl=       500 IOpCl=  0 I1Cent=   200000004 NGrid=           0
         NMat0=    1 NMatS0=      1 NMatT0=    0 NMatD0=    1 NMtDS0=    0 NMtDT0=    0
 Petite list used in FoFCou.
 Keep R1 ints in memory in canonical form, NReq=152074523.
 Requested convergence on RMS density matrix=1.00D-08 within 128 cycles.
 Requested convergence on MAX density matrix=1.00D-06.
 Requested convergence on             energy=1.00D-06.
 No special actions if energy rises.
 SCF Done:  E(RMN15) =  -363.386843859     A.U. after   15 cycles
            NFock= 15  Conv=0.68D-08     -V/T= 2.0149
 DoSCS=F DFT=T ScalE2(SS,OS)=  1.000000  1.000000
 ExpMin= 4.38D-02 ExpMax= 4.17D+03 ExpMxC= 6.27D+02 IAcc=3 IRadAn=         5 AccDes= 0.00D+00
 HarFok:  IExCor=  205 AccDes= 0.00D+00 IRadAn=         5 IDoV=-2 UseB2=F ITyADJ=14
 ICtDFT= 12500011 ScaDFX=  1.000000  1.000000  1.000000  1.000000
 Range of M.O.s used for correlation:    10   185
 NBasis=   185 NAE=    31 NBE=    31 NFC=     9 NFV=     0
 NROrb=    176 NOA=    22 NOB=    22 NVA=   154 NVB=   154

 **** Warning!!: The largest alpha MO coefficient is  0.19992151D+03

 Orbital symmetries:
       Occupied  (A) (A) (A) (A) (A) (A) (A) (A) (A) (A) (A) (A)
                 (A) (A) (A) (A) (A) (A) (A) (A) (A) (A) (A) (A)
                 (A) (A) (A) (A) (A) (A) (A)
       Virtual   (A) (A) (A) (A) (A) (A) (A) (A) (A) (A) (A) (A)
                 (A) (A) (A) (A) (A) (A) (A) (A) (A) (A) (A) (A)
                 (A) (A) (A) (A) (A) (A) (A) (A) (A) (A) (A) (A)
                 (A) (A) (A) (A) (A) (A) (A) (A) (A) (A) (A) (A)
                 (A) (A) (A) (A) (A) (A) (A) (A) (A) (A) (A) (A)
                 (A) (A) (A) (A) (A) (A) (A) (A) (A) (A) (A) (A)
                 (A) (A) (A) (A) (A) (A) (A) (A) (A) (A) (A) (A)
                 (A) (A) (A) (A) (A) (A) (A) (A) (A) (A) (A) (A)
                 (A) (A) (A) (A) (A) (A) (A) (A) (A) (A) (A) (A)
                 (A) (A) (A) (A) (A) (A) (A) (A) (A) (A) (A) (A)
                 (A) (A) (A) (A) (A) (A) (A) (A) (A) (A) (A) (A)
                 (A) (A) (A) (A) (A) (A) (A) (A) (A) (A) (A) (A)
                 (A) (A) (A) (A) (A) (A) (A) (A) (A) (A)
    24 initial guesses have been made.
 Convergence on wavefunction:    0.000001000000000
 Iteration     1 Dimension    24 NMult     0 NNew     24
 CISAX will form    24 AO SS matrices at one time.
 New state      1 was old state      2
 New state      2 was old state      1
 New state      4 was old state      5
 New state      5 was old state      6
 New state      6 was old state      8
 Iteration     2 Dimension    36 NMult    24 NNew     12
 New state      1 was old state      2
 New state      2 was old state      1
 Iteration     3 Dimension    48 NMult    36 NNew     12
 Iteration     4 Dimension    60 NMult    48 NNew     12
 No map to state      4
 New state      5 was old state      4
 New state      6 was old state      5
 Iteration     5 Dimension    72 NMult    60 NNew     12
 Iteration     6 Dimension    84 NMult    72 NNew     12
 Iteration     7 Dimension    96 NMult    84 NNew     12
 Iteration     8 Dimension   108 NMult    96 NNew     12
 Iteration     9 Dimension   120 NMult   108 NNew     12
 Iteration    10 Dimension   130 NMult   120 NNew     10
 Iteration    11 Dimension   136 NMult   130 NNew      6
 Iteration    12 Dimension   140 NMult   136 NNew      4
 Iteration    13 Dimension   142 NMult   140 NNew      2
 ***********************************************************************
 Excited states from <AA,BB:AA,BB> singles matrix:
 ***********************************************************************
 
 Ground to excited state transition densities written to RWF  633
 Ground to excited state transition electric dipole moments (Au):
       state          X           Y           Z        Dip. S.      Osc.
         1        -0.2982      0.6623     -0.0001      0.5276      0.0648
         2        -0.7964      0.1735     -0.0001      0.6643      0.0824
         3         0.0003     -0.0001     -0.1868      0.0349      0.0051
         4        -1.9051     -0.6643     -0.0003      4.0709      0.6228
         5         0.0010      0.0006     -0.1854      0.0344      0.0054
         6        -0.0014     -0.0010      0.0775      0.0060      0.0010
 Ground to excited state transition velocity dipole moments (Au):
       state          X           Y           Z        Dip. S.      Osc.
         1         0.0496     -0.1350      0.0000      0.0207      0.0749
         2         0.1425     -0.0367      0.0000      0.0217      0.0776
         3        -0.0001      0.0000      0.0312      0.0010      0.0030
         4         0.4402      0.1569      0.0001      0.2184      0.6346
         5        -0.0002     -0.0001      0.0452      0.0020      0.0058
         6         0.0003      0.0002     -0.0183      0.0003      0.0009
 Ground to excited state transition magnetic dipole moments (Au):
       state          X           Y           Z
         1         0.0003      0.0000      0.1520
         2         0.0000     -0.0002      0.0077
         3         0.1216     -0.1500     -0.0000
         4        -0.0000     -0.0007     -0.7584
         5         0.1787     -0.2966      0.0007
         6         0.4847     -0.0879     -0.0003
 Ground to excited state transition velocity quadrupole moments (Au):
       state          XX          YY          ZZ          XY          XZ          YZ
         1         0.1687     -0.0641     -0.0063      0.0118      0.0001      0.0001
         2         0.1554     -0.1709      0.0199     -0.0014      0.0001     -0.0000
         3        -0.0001      0.0000      0.0001     -0.0000      0.1225      0.0528
         4         0.1233     -0.1267     -0.0308     -0.5023      0.0005     -0.0000
         5        -0.0001      0.0001      0.0001      0.0006      0.2203      0.1059
         6        -0.0002     -0.0001      0.0000     -0.0003      0.1463      0.3829
 <0|del|b> * <b|rxdel|0> + <0|del|b> * <b|delr+rdel|0>
 Rotatory Strengths (R) in cgs (10**-40 erg-esu-cm/Gauss)
       state          XX          YY          ZZ    R(velocity)    E-M Angle
         1         0.0120      0.0343     -0.0040      0.0141       90.00
         2         0.0253      0.0124      0.0167      0.0181       90.00
         3        -0.0141     -0.0158     -0.0074     -0.0124       90.00
         4        -0.4503     -0.0862     -0.0678     -0.2014       90.03
         5         0.2063     -0.0883     -0.0083      0.0366       90.00
         6        -0.0686      0.4252      0.0708      0.1425       89.08
 1/2[<0|r|b>*<b|rxdel|0> + (<0|rxdel|b>*<b|r|0>)*]
 Rotatory Strengths (R) in cgs (10**-40 erg-esu-cm/Gauss)
       state          XX          YY          ZZ     R(length)
         1         0.0538     -0.0101      0.0078      0.0171
         2         0.0254      0.0257      0.0008      0.0173
         3        -0.0260     -0.0109     -0.0042     -0.0137
         4        -0.0550     -0.3484     -0.1762     -0.1932
         5        -0.1257      0.1262      0.0983      0.0329
         6         0.4661     -0.0609      0.0167      0.1407
  1/2[<0|del|b>*<b|r|0> + (<0|r|b>*<b|del|0>)*] (Au)
       state          X           Y           Z        Dip. S.   Osc.(frdel)
         1        -0.0148     -0.0894     -0.0000      0.1042      0.0695
         2        -0.1135     -0.0064     -0.0000      0.1199      0.0799
         3        -0.0000     -0.0000     -0.0058      0.0058      0.0039
         4        -0.8387     -0.1042     -0.0000      0.9430      0.6286
         5        -0.0000     -0.0000     -0.0084      0.0084      0.0056
         6        -0.0000     -0.0000     -0.0014      0.0014      0.0009

 Excitation energies and oscillator strengths:
 
 Excited State   1:      Singlet-A      5.0140 eV  247.28 nm  f=0.0648  <S**2>=0.000
      30 -> 32        -0.36914
      30 -> 34         0.14686
      31 -> 32         0.54418
      31 -> 34         0.18158
 This state for optimization and/or second-order correction.
 Total Energy, E(TD-HF/TD-DFT) =  -363.202583965    
 Copying the excited state density for this state as the 1-particle RhoCI density.
 
 Excited State   2:      Singlet-A      5.0640 eV  244.83 nm  f=0.0824  <S**2>=0.000
      30 -> 32         0.45726
      30 -> 34         0.10969
      31 -> 32         0.39632
      31 -> 34        -0.33427
 
 Excited State   3:      Singlet-A      5.9252 eV  209.25 nm  f=0.0051  <S**2>=0.000
      31 -> 33         0.68472
 
 Excited State   4:      Singlet-A      6.2445 eV  198.55 nm  f=0.6228  <S**2>=0.000
      30 -> 32         0.35192
      31 -> 34         0.57586
      31 -> 37         0.11677
 
 Excited State   5:      Singlet-A      6.3948 eV  193.88 nm  f=0.0054  <S**2>=0.000
      30 -> 33         0.63161
      31 -> 35         0.22246
      31 -> 36        -0.11432
 
 Excited State   6:      Singlet-A      6.5055 eV  190.58 nm  f=0.0010  <S**2>=0.000
      30 -> 33        -0.21478
      31 -> 35         0.63997
 SavETr:  write IOETrn=   770 NScale= 10 NData=  16 NLR=1 NState=    6 LETran=     118.
          IDoAtm=1111111111111111
          Differentiating once with respect to electric field.
                with respect to dipole field.
          Differentiating once with respect to nuclear coordinates.
 Keep R1 ints in memory in canonical form, NReq=152086915.
          There are     1 degrees of freedom in the 1st order CPHF.  IDoFFX=0 NUNeed=     1.
 LinEq1:  Iter=  0 NonCon=     1 RMS=6.51D-03 Max=1.68D-01 NDo=     1
 AX will form     1 AO Fock derivatives at one time.
 LinEq1:  Iter=  1 NonCon=     1 RMS=2.71D-03 Max=6.48D-02 NDo=     1
 LinEq1:  Iter=  2 NonCon=     1 RMS=1.71D-03 Max=4.38D-02 NDo=     1
 LinEq1:  Iter=  3 NonCon=     1 RMS=7.53D-04 Max=2.46D-02 NDo=     1
 LinEq1:  Iter=  4 NonCon=     1 RMS=3.70D-04 Max=1.26D-02 NDo=     1
 LinEq1:  Iter=  5 NonCon=     1 RMS=2.44D-04 Max=9.22D-03 NDo=     1
 LinEq1:  Iter=  6 NonCon=     1 RMS=1.13D-04 Max=2.50D-03 NDo=     1
 LinEq1:  Iter=  7 NonCon=     1 RMS=5.48D-05 Max=1.28D-03 NDo=     1
 LinEq1:  Iter=  8 NonCon=     1 RMS=3.31D-05 Max=6.57D-04 NDo=     1
 LinEq1:  Iter=  9 NonCon=     1 RMS=1.62D-05 Max=2.48D-04 NDo=     1
 LinEq1:  Iter= 10 NonCon=     1 RMS=6.98D-06 Max=1.27D-04 NDo=     1
 LinEq1:  Iter= 11 NonCon=     1 RMS=3.01D-06 Max=6.13D-05 NDo=     1
 LinEq1:  Iter= 12 NonCon=     1 RMS=7.92D-07 Max=1.15D-05 NDo=     1
 LinEq1:  Iter= 13 NonCon=     1 RMS=4.08D-07 Max=9.75D-06 NDo=     1
 LinEq1:  Iter= 14 NonCon=     1 RMS=1.49D-07 Max=2.13D-06 NDo=     1
 LinEq1:  Iter= 15 NonCon=     1 RMS=6.01D-08 Max=1.32D-06 NDo=     1
 LinEq1:  Iter= 16 NonCon=     1 RMS=2.63D-08 Max=5.02D-07 NDo=     1
 LinEq1:  Iter= 17 NonCon=     1 RMS=6.01D-09 Max=1.08D-07 NDo=     1
 LinEq1:  Iter= 18 NonCon=     1 RMS=1.73D-09 Max=2.58D-08 NDo=     1
 LinEq1:  Iter= 19 NonCon=     1 RMS=1.10D-09 Max=2.54D-08 NDo=     1
 LinEq1:  Iter= 20 NonCon=     1 RMS=3.49D-10 Max=6.52D-09 NDo=     1
 LinEq1:  Iter= 21 NonCon=     0 RMS=5.59D-11 Max=7.43D-10 NDo=     1
 Linear equations converged to 1.000D-10 1.000D-09 after    21 iterations.
 End of Minotr F.D. properties file   721 does not exist.
 End of Minotr F.D. properties file   722 does not exist.
 End of Minotr F.D. properties file   788 does not exist.

 **********************************************************************

            Population analysis using the CI Density.

 **********************************************************************

 Orbital symmetries:
       Occupied  (A) (A) (A) (A) (A) (A) (A) (A) (A) (A) (A) (A)
                 (A) (A) (A) (A) (A) (A) (A) (A) (A) (A) (A) (A)
                 (A) (A) (A) (A) (A) (A) (A)
       Virtual   (A) (A) (A) (A) (A) (A) (A) (A) (A) (A) (A) (A)
                 (A) (A) (A) (A) (A) (A) (A) (A) (A) (A) (A) (A)
                 (A) (A) (A) (A) (A) (A) (A) (A) (A) (A) (A) (A)
                 (A) (A) (A) (A) (A) (A) (A) (A) (A) (A) (A) (A)
                 (A) (A) (A) (A) (A) (A) (A) (A) (A) (A) (A) (A)
                 (A) (A) (A) (A) (A) (A) (A) (A) (A) (A) (A) (A)
                 (A) (A) (A) (A) (A) (A) (A) (A) (A) (A) (A) (A)
                 (A) (A) (A) (A) (A) (A) (A) (A) (A) (A) (A) (A)
                 (A) (A) (A) (A) (A) (A) (A) (A) (A) (A) (A) (A)
                 (A) (A) (A) (A) (A) (A) (A) (A) (A) (A) (A) (A)
                 (A) (A) (A) (A) (A) (A) (A) (A) (A) (A) (A) (A)
                 (A) (A) (A) (A) (A) (A) (A) (A) (A) (A) (A) (A)
                 (A) (A) (A) (A) (A) (A) (A) (A) (A) (A)
 The electronic state is 1-A.
 Alpha  occ. eigenvalues --  -14.17214 -10.10600 -10.10318 -10.07255 -10.06788
 Alpha  occ. eigenvalues --  -10.06747 -10.06718 -10.06211 -10.05912  -1.02768
 Alpha  occ. eigenvalues --   -0.88638  -0.82726  -0.77807  -0.75963  -0.66785
 Alpha  occ. eigenvalues --   -0.63651  -0.62407  -0.58418  -0.52279  -0.51305
 Alpha  occ. eigenvalues --   -0.47809  -0.47256  -0.46999  -0.45131  -0.43088
 Alpha  occ. eigenvalues --   -0.39308  -0.37947  -0.37241  -0.31838  -0.25624
 Alpha  occ. eigenvalues --   -0.23932
 Alpha virt. eigenvalues --    0.00948   0.04612   0.04690   0.06322   0.06992
 Alpha virt. eigenvalues --    0.08112   0.08496   0.08642   0.10009   0.10825
 Alpha virt. eigenvalues --    0.11375   0.11413   0.13359   0.13730   0.14964
 Alpha virt. eigenvalues --    0.15363   0.15653   0.17547   0.18317   0.18530
 Alpha virt. eigenvalues --    0.19908   0.20697   0.21063   0.21213   0.21496
 Alpha virt. eigenvalues --    0.22048   0.22934   0.23782   0.23827   0.24062
 Alpha virt. eigenvalues --    0.24470   0.25044   0.26261   0.26692   0.27417
 Alpha virt. eigenvalues --    0.28024   0.28172   0.28776   0.29682   0.30191
 Alpha virt. eigenvalues --    0.31237   0.31736   0.32163   0.34094   0.34734
 Alpha virt. eigenvalues --    0.35423   0.36042   0.37838   0.40028   0.40917
 Alpha virt. eigenvalues --    0.41865   0.44406   0.47325   0.49285   0.55331
 Alpha virt. eigenvalues --    0.61637   0.66238   0.69354   0.70659   0.72378
 Alpha virt. eigenvalues --    0.74561   0.74651   0.75348   0.76060   0.76795
 Alpha virt. eigenvalues --    0.77746   0.78351   0.80085   0.81847   0.82293
 Alpha virt. eigenvalues --    0.83732   0.88123   0.91925   0.93139   0.94189
 Alpha virt. eigenvalues --    0.96189   0.96779   0.97545   0.99417   1.00478
 Alpha virt. eigenvalues --    1.02871   1.05674   1.07326   1.09324   1.12019
 Alpha virt. eigenvalues --    1.13453   1.13677   1.19598   1.19923   1.22306
 Alpha virt. eigenvalues --    1.23740   1.24749   1.27082   1.32740   1.33297
 Alpha virt. eigenvalues --    1.34067   1.38171   1.41530   1.43076   1.45957
 Alpha virt. eigenvalues --    1.46016   1.46228   1.49053   1.49790   1.55483
 Alpha virt. eigenvalues --    1.59811   1.65179   1.78242   1.83036   1.86580
 Alpha virt. eigenvalues --    1.87680   1.90243   1.93244   1.96525   1.97325
 Alpha virt. eigenvalues --    1.98403   2.04424   2.07273   2.11503   2.14253
 Alpha virt. eigenvalues --    2.14484   2.16978   2.21955   2.22418   2.22814
 Alpha virt. eigenvalues --    2.25313   2.27818   2.33816   2.37047   2.40446
 Alpha virt. eigenvalues --    2.50997   2.51475   2.58564   2.60740   2.61243
 Alpha virt. eigenvalues --    2.63975   2.67762   2.75554   2.78738   2.79118
 Alpha virt. eigenvalues --    2.89594   2.91486   3.03937   3.15617   3.34936
 Alpha virt. eigenvalues --    4.10197   4.18882   4.21833   4.25195   4.28587
 Alpha virt. eigenvalues --    4.32046   4.39758   4.43373   4.69098
          Condensed to atoms (all electrons):
               1          2          3          4          5          6
     1  C    5.939902  -0.007700   0.600798  -0.887701   0.309593  -0.526886
     2  C   -0.007700   6.376430  -0.956190   0.975857  -0.763338   0.805396
     3  C    0.600798  -0.956190  14.326164  -4.948678  -2.241544  -2.549356
     4  C   -0.887701   0.975857  -4.948678  13.885351  -2.033629   0.280406
     5  C    0.309593  -0.763338  -2.241544  -2.033629  14.207423  -1.939803
     6  C   -0.526886   0.805396  -2.549356   0.280406  -1.939803  12.219707
     7  N   -0.003641   0.008784  -0.319002  -0.188396   0.462836   0.083547
     8  C    0.242255  -0.313964   3.262948  -0.228263  -5.315059  -2.525304
     9  C   -0.073724   0.055221  -1.304553  -0.109066   2.181353   0.678616
    10  H   -0.001905  -0.009223  -0.089769  -0.084800   0.139189   0.025971
    11  H    0.000222   0.000372   0.002489   0.066082  -0.084024  -0.037035
    12  H   -0.000253   0.000666  -0.009621  -0.008129   0.057985  -0.013432
    13  H   -0.115619   0.455827  -0.139072   0.081619  -0.030416   0.058306
    14  H    0.056023  -0.061182   0.428688  -0.130652   0.034956  -0.035187
    15  H    0.434431  -0.088010   0.050694  -0.036655   0.063258  -0.121733
    16  H   -0.090970   0.041138  -0.058195   0.072128  -0.041588   0.438795
               7          8          9         10         11         12
     1  C   -0.003641   0.242255  -0.073724  -0.001905   0.000222  -0.000253
     2  C    0.008784  -0.313964   0.055221  -0.009223   0.000372   0.000666
     3  C   -0.319002   3.262948  -1.304553  -0.089769   0.002489  -0.009621
     4  C   -0.188396  -0.228263  -0.109066  -0.084800   0.066082  -0.008129
     5  C    0.462836  -5.315059   2.181353   0.139189  -0.084024   0.057985
     6  C    0.083547  -2.525304   0.678616   0.025971  -0.037035  -0.013432
     7  N    7.194861  -0.381063   0.384051   0.278888   0.009232  -0.045337
     8  C   -0.381063  13.402753  -2.852150   0.013009   0.427870  -0.138833
     9  C    0.384051  -2.852150   7.165276  -0.038695  -0.088656   0.468826
    10  H    0.278888   0.013009  -0.038695   0.349612  -0.000080  -0.002790
    11  H    0.009232   0.427870  -0.088656  -0.000080   0.506641  -0.001437
    12  H   -0.045337  -0.138833   0.468826  -0.002790  -0.001437   0.495548
    13  H   -0.000314  -0.005708   0.002143  -0.000002   0.000000  -0.000000
    14  H   -0.003060  -0.019084   0.015782   0.001953   0.000002   0.000004
    15  H    0.000236   0.001471  -0.000503  -0.000000  -0.000001  -0.000000
    16  H   -0.001053  -0.077806   0.006202   0.000004   0.001509  -0.000001
              13         14         15         16
     1  C   -0.115619   0.056023   0.434431  -0.090970
     2  C    0.455827  -0.061182  -0.088010   0.041138
     3  C   -0.139072   0.428688   0.050694  -0.058195
     4  C    0.081619  -0.130652  -0.036655   0.072128
     5  C   -0.030416   0.034956   0.063258  -0.041588
     6  C    0.058306  -0.035187  -0.121733   0.438795
     7  N   -0.000314  -0.003060   0.000236  -0.001053
     8  C   -0.005708  -0.019084   0.001471  -0.077806
     9  C    0.002143   0.015782  -0.000503   0.006202
    10  H   -0.000002   0.001953  -0.000000   0.000004
    11  H    0.000000   0.000002  -0.000001   0.001509
    12  H   -0.000000   0.000004  -0.000000  -0.000001
    13  H    0.545660  -0.005188  -0.005417  -0.000150
    14  H   -0.005188   0.554803  -0.000151   0.000017
    15  H   -0.005417  -0.000151   0.540465  -0.005099
    16  H   -0.000150   0.000017  -0.005099   0.545806
 Mulliken charges:
               1
     1  C    0.125175
     2  C   -0.520083
     3  C   -0.055801
     4  C   -0.705473
     5  C    0.992807
     6  C   -0.842008
     7  N   -0.480569
     8  C    0.506928
     9  C   -0.490122
    10  H    0.418638
    11  H    0.196814
    12  H    0.196806
    13  H    0.158331
    14  H    0.162276
    15  H    0.167016
    16  H    0.169265
 Sum of Mulliken charges =  -0.00000
 Mulliken charges with hydrogens summed into heavy atoms:
               1
     1  C    0.292191
     2  C   -0.361752
     3  C    0.106475
     4  C   -0.705473
     5  C    0.992807
     6  C   -0.672743
     7  N   -0.061932
     8  C    0.703742
     9  C   -0.293316
 Electronic spatial extent (au):  <R**2>=           1007.7023
 Charge=             -0.0000 electrons
 Dipole moment (field-independent basis, Debye):
    X=              3.1018    Y=             -1.0437    Z=              0.0000  Tot=              3.2727
 Quadrupole moment (field-independent basis, Debye-Ang):
   XX=            -46.9443   YY=            -45.3890   ZZ=            -59.6731
   XY=             -3.8350   XZ=              0.0012   YZ=             -0.0019
 Traceless Quadrupole moment (field-independent basis, Debye-Ang):
   XX=              3.7245   YY=              5.2798   ZZ=             -9.0043
   XY=             -3.8350   XZ=              0.0012   YZ=             -0.0019
 Octapole moment (field-independent basis, Debye-Ang**2):
  XXX=             20.4163  YYY=             -9.0615  ZZZ=             -0.0063  XYY=             13.9272
  XXY=             -5.0789  XXZ=              0.0023  XZZ=              3.9929  YZZ=             -0.8833
  YYZ=             -0.0015  XYZ=             -0.0045
 Hexadecapole moment (field-independent basis, Debye-Ang**3):
 XXXX=           -856.1097 YYYY=           -384.6802 ZZZZ=            -80.9764 XXXY=            -27.4349
 XXXZ=              0.0092 YYYX=            -19.2736 YYYZ=             -0.0073 ZZZX=             -0.0013
 ZZZY=              0.0027 XXYY=           -194.7797 XXZZ=           -196.4760 YYZZ=            -98.4901
 XXYZ=             -0.0086 YYXZ=              0.0069 ZZXY=             -3.9233
 N-N= 4.013368668897D+02 E-N=-1.642439701871D+03  KE= 3.582124753466D+02
 Calling FoFJK, ICntrl=  10005127 FMM=F ISym2X=0 I1Cent= 0 IOpClX= 0 NMat=1 NMatS=1 NMatT=0.
 ***** Axes restored to original set *****
 -------------------------------------------------------------------
 Center     Atomic                   Forces (Hartrees/Bohr)
 Number     Number              X              Y              Z
 -------------------------------------------------------------------
      1        6          -0.026513424   -0.033178528   -0.000002015
      2        6          -0.045123317    0.029029118    0.000002801
      3        6           0.035665654   -0.027961028    0.000003871
      4        6          -0.005493034   -0.001873597   -0.000017506
      5        6           0.011600523   -0.002678319   -0.000033363
      6        6           0.020254414    0.030949829   -0.000000633
      7        7          -0.010776148    0.018141694    0.000054266
      8        6          -0.020724468    0.013218809    0.000026866
      9        6           0.038678436   -0.020342545   -0.000030910
     10        1           0.003102436   -0.010050490   -0.000003329
     11        1           0.001773165    0.004388262    0.000005205
     12        1           0.003517460   -0.000629090   -0.000007086
     13        1          -0.003490447   -0.001046208    0.000000629
     14        1           0.000774750   -0.004098495   -0.000002733
     15        1          -0.003565975    0.002053886    0.000000721
     16        1           0.000319978    0.004076703    0.000003215
 -------------------------------------------------------------------
 Cartesian Forces:  Max     0.045123317 RMS     0.015444439

 GradGradGradGradGradGradGradGradGradGradGradGradGradGradGradGradGradGrad
 Berny optimization.
 FormGI is forming the generalized inverse of G from B-inverse, IUseBI=4.
 Internal  Forces:  Max     0.049220068 RMS     0.008922888
 Search for a local minimum.
 Step number   1 out of a maximum of   94
 All quantities printed in internal units (Hartrees-Bohrs-Radians)
 Mixed Optimization -- RFO/linear search
 Second derivative matrix not updated -- first step.
 ITU=  0
     Eigenvalues ---    0.01853   0.01931   0.01986   0.02012   0.02070
     Eigenvalues ---    0.02113   0.02148   0.02153   0.02172   0.02209
     Eigenvalues ---    0.02233   0.02248   0.02338   0.16000   0.16000
     Eigenvalues ---    0.16000   0.16000   0.16000   0.16000   0.16000
     Eigenvalues ---    0.22000   0.22188   0.22662   0.24011   0.24651
     Eigenvalues ---    0.35712   0.35717   0.35783   0.35790   0.36420
     Eigenvalues ---    0.36427   0.37009   0.38432   0.42633   0.43465
     Eigenvalues ---    0.45769   0.46692   0.47162   0.47468   0.47567
     Eigenvalues ---    0.48125   0.50955
 RFO step:  Lambda=-1.49267309D-02 EMin= 1.85287394D-02
 Linear search not attempted -- first point.
 Iteration  1 RMS(Cart)=  0.03008256 RMS(Int)=  0.00026440
 Iteration  2 RMS(Cart)=  0.00033327 RMS(Int)=  0.00010018
 Iteration  3 RMS(Cart)=  0.00000006 RMS(Int)=  0.00010018
 Variable       Old X    -DE/DX   Delta X   Delta X   Delta X     New X
                                 (Linear)    (Quad)   (Total)
    R1        2.65547  -0.00563   0.00000  -0.01000  -0.00993   2.64554
    R2        2.61291   0.04306   0.00000   0.08691   0.08697   2.69988
    R3        2.04421   0.00411   0.00000   0.01103   0.01103   2.05525
    R4        2.61557   0.04922   0.00000   0.09984   0.09985   2.71542
    R5        2.04411   0.00354   0.00000   0.00950   0.00950   2.05361
    R6        2.63373   0.01144   0.00000   0.02275   0.02269   2.65642
    R7        2.04534   0.00411   0.00000   0.01105   0.01105   2.05638
    R8        2.68058   0.00704   0.00000   0.01020   0.00989   2.69047
    R9        2.60126   0.00729   0.00000   0.01213   0.01219   2.61345
   R10        2.64771   0.01701   0.00000   0.03512   0.03511   2.68281
   R11        2.70839   0.00636   0.00000   0.01554   0.01535   2.72374
   R12        2.04526   0.00407   0.00000   0.01093   0.01093   2.05619
   R13        2.60573   0.00701   0.00000   0.01547   0.01574   2.62147
   R14        1.89542   0.01052   0.00000   0.02161   0.02161   1.91704
   R15        2.57870   0.02863   0.00000   0.05655   0.05667   2.63536
   R16        2.03419   0.00473   0.00000   0.01248   0.01248   2.04667
   R17        2.03430   0.00356   0.00000   0.00940   0.00940   2.04370
    A1        2.11420   0.00297   0.00000   0.01764   0.01771   2.13191
    A2        2.07986  -0.00136   0.00000  -0.00811  -0.00815   2.07171
    A3        2.08912  -0.00161   0.00000  -0.00952  -0.00956   2.07957
    A4        2.11523  -0.00588   0.00000  -0.01971  -0.01968   2.09555
    A5        2.08365   0.00206   0.00000   0.00485   0.00484   2.08849
    A6        2.08430   0.00381   0.00000   0.01486   0.01485   2.09915
    A7        2.05144  -0.00119   0.00000  -0.00596  -0.00605   2.04538
    A8        2.11267   0.00133   0.00000   0.00719   0.00724   2.11990
    A9        2.11908  -0.00014   0.00000  -0.00123  -0.00118   2.11790
   A10        2.13389   0.00642   0.00000   0.02312   0.02305   2.15693
   A11        2.27895  -0.00354   0.00000  -0.00454  -0.00435   2.27461
   A12        1.87035  -0.00289   0.00000  -0.01858  -0.01870   1.85164
   A13        2.07274  -0.00011   0.00000  -0.00413  -0.00405   2.06870
   A14        1.86517   0.00111   0.00000   0.00108   0.00070   1.86588
   A15        2.34527  -0.00100   0.00000   0.00305   0.00334   2.34861
   A16        2.07887  -0.00222   0.00000  -0.01096  -0.01097   2.06790
   A17        2.10306   0.00155   0.00000   0.00800   0.00800   2.11106
   A18        2.10125   0.00067   0.00000   0.00297   0.00297   2.10422
   A19        1.90743   0.01233   0.00000   0.04950   0.04976   1.95719
   A20        2.19023  -0.00636   0.00000  -0.02586  -0.02598   2.16424
   A21        2.18553  -0.00597   0.00000  -0.02365  -0.02378   2.16175
   A22        1.86968   0.00446   0.00000   0.02427   0.02418   1.89386
   A23        2.21717  -0.00208   0.00000  -0.01130  -0.01125   2.20592
   A24        2.19633  -0.00238   0.00000  -0.01298  -0.01293   2.18340
   A25        1.91215  -0.01501   0.00000  -0.05628  -0.05594   1.85621
   A26        2.10250   0.00725   0.00000   0.02667   0.02650   2.12900
   A27        2.26854   0.00776   0.00000   0.02961   0.02944   2.29798
    D1       -0.00001   0.00000   0.00000   0.00001   0.00001  -0.00001
    D2       -3.14156  -0.00000   0.00000  -0.00003  -0.00003  -3.14159
    D3        3.14152   0.00000   0.00000   0.00006   0.00006   3.14158
    D4       -0.00002   0.00000   0.00000   0.00002   0.00002   0.00000
    D5       -0.00003   0.00000   0.00000   0.00006   0.00006   0.00003
    D6        3.14153   0.00000   0.00000   0.00008   0.00008  -3.14157
    D7       -3.14157   0.00000   0.00000   0.00001   0.00001  -3.14156
    D8       -0.00001   0.00000   0.00000   0.00003   0.00003   0.00003
    D9        0.00003  -0.00000   0.00000  -0.00004  -0.00004  -0.00001
   D10       -3.14154  -0.00000   0.00000  -0.00000  -0.00000  -3.14154
   D11        3.14158   0.00000   0.00000  -0.00001  -0.00001   3.14157
   D12        0.00001   0.00000   0.00000   0.00003   0.00003   0.00004
   D13       -0.00001  -0.00000   0.00000   0.00001   0.00002   0.00001
   D14       -3.14144  -0.00000   0.00000  -0.00003  -0.00003  -3.14147
   D15        3.14156  -0.00000   0.00000  -0.00002  -0.00002   3.14154
   D16        0.00013  -0.00000   0.00000  -0.00007  -0.00007   0.00006
   D17       -0.00004   0.00000   0.00000   0.00005   0.00005   0.00001
   D18       -3.14151  -0.00000   0.00000  -0.00007  -0.00008  -3.14159
   D19        3.14143   0.00000   0.00000   0.00008   0.00009   3.14151
   D20       -0.00005   0.00000   0.00000  -0.00003  -0.00004  -0.00009
   D21       -3.14124  -0.00001   0.00000  -0.00029  -0.00030  -3.14155
   D22       -0.00113   0.00001   0.00000   0.00027   0.00027  -0.00087
   D23        0.00049  -0.00001   0.00000  -0.00034  -0.00035   0.00015
   D24        3.14060   0.00001   0.00000   0.00023   0.00022   3.14083
   D25        0.00005  -0.00000   0.00000  -0.00008  -0.00008  -0.00003
   D26       -3.14151  -0.00000   0.00000  -0.00011  -0.00011   3.14157
   D27        3.14150   0.00000   0.00000   0.00008   0.00008   3.14158
   D28       -0.00007   0.00000   0.00000   0.00005   0.00006  -0.00001
   D29       -0.00041   0.00001   0.00000   0.00041   0.00041   0.00000
   D30        3.14139   0.00000   0.00000   0.00005   0.00006   3.14145
   D31        3.14132   0.00001   0.00000   0.00026   0.00026   3.14159
   D32       -0.00006  -0.00000   0.00000  -0.00009  -0.00009  -0.00016
   D33       -0.00077   0.00002   0.00000   0.00063   0.00063  -0.00014
   D34        3.14133   0.00001   0.00000   0.00033   0.00033  -3.14153
   D35       -3.14089   0.00001   0.00000   0.00007   0.00006  -3.14083
   D36        0.00121  -0.00001   0.00000  -0.00023  -0.00023   0.00098
   D37        0.00072  -0.00003   0.00000  -0.00065  -0.00064   0.00008
   D38       -3.14144  -0.00001   0.00000  -0.00031  -0.00031   3.14143
   D39       -3.14107  -0.00001   0.00000  -0.00030  -0.00029  -3.14137
   D40       -0.00005   0.00000   0.00000   0.00004   0.00004  -0.00001
         Item               Value     Threshold  Converged?
 Maximum Force            0.049220     0.000450     NO 
 RMS     Force            0.008923     0.000300     NO 
 Maximum Displacement     0.114982     0.001800     NO 
 RMS     Displacement     0.030047     0.001200     NO 
 Predicted change in Energy=-7.729225D-03
 GradGradGradGradGradGradGradGradGradGradGradGradGradGradGradGradGradGrad

                          Input orientation:                          
 ---------------------------------------------------------------------
 Center     Atomic      Atomic             Coordinates (Angstroms)
 Number     Number       Type             X           Y           Z
 ---------------------------------------------------------------------
      1          6           0       -2.188309    0.678480    0.000001
      2          6           0       -2.179300   -0.721451    0.000018
      3          6           0       -0.931095   -1.433339    0.000045
      4          6           0        0.246357   -0.665452    0.000044
      5          6           0        0.258098    0.758234    0.000025
      6          6           0       -0.983586    1.446511    0.000022
      7          7           0        1.571944   -1.059718   -0.000063
      8          6           0        1.640551    1.166013    0.000027
      9          6           0        2.439342    0.022872    0.000040
     10          1           0        1.875951   -2.027546    0.000568
     11          1           0        2.010188    2.184032   -0.000109
     12          1           0        3.513395   -0.103674   -0.000083
     13          1           0       -3.120143   -1.265312   -0.000004
     14          1           0       -0.897597   -2.521015    0.000010
     15          1           0       -3.145625    1.194619   -0.000032
     16          1           0       -1.013266    2.534195    0.000027
 ---------------------------------------------------------------------
                    Distance matrix (angstroms):
                    1          2          3          4          5
     1  C    0.000000
     2  C    1.399960   0.000000
     3  C    2.457715   1.436941   0.000000
     4  C    2.780963   2.426304   1.405719   0.000000
     5  C    2.447707   2.851382   2.493426   1.423734   0.000000
     6  C    1.428716   2.475842   2.880328   2.444002   1.419684
     7  N    4.142564   3.766465   2.530771   1.382977   2.243021
     8  C    3.859774   4.260725   3.656500   2.301747   1.441339
     9  C    4.673861   4.678234   3.671566   2.298472   2.301865
    10  H    4.882703   4.260392   2.869249   2.123882   3.221493
    11  H    4.460277   5.098397   4.662245   3.351218   2.258920
    12  H    5.755101   5.726118   4.639127   3.314985   3.367468
    13  H    2.155607   1.086725   2.195487   3.419526   3.937925
    14  H    3.450030   2.209342   1.088192   2.179850   3.476939
    15  H    1.087591   2.145952   3.436612   3.868515   3.431583
    16  H    2.196453   3.458160   3.968385   3.438662   2.184126
                    6          7          8          9         10
     6  C    0.000000
     7  N    3.579374   0.000000
     8  C    2.639085   2.226788   0.000000
     9  C    3.707180   1.387220   1.394575   0.000000
    10  H    4.499558   1.014451   3.202223   2.126411   0.000000
    11  H    3.083281   3.273221   1.083049   2.203358   4.213717
    12  H    4.756670   2.164082   2.262664   1.081482   2.526362
    13  H    3.452371   4.696590   5.345610   5.706776   5.053905
    14  H    3.968458   2.869499   4.476200   4.196013   2.817105
    15  H    2.176664   5.228527   4.786261   5.706562   5.966454
    16  H    1.088089   4.427135   2.985744   4.269338   5.399728
                   11         12         13         14         15
    11  H    0.000000
    12  H    2.737377   0.000000
    13  H    6.182093   6.734481   0.000000
    14  H    5.531066   5.029949   2.552744   0.000000
    15  H    5.249891   6.784402   2.460063   4.342760   0.000000
    16  H    3.043664   5.239181   4.344558   5.056534   2.518217
                   16
    16  H    0.000000
 Stoichiometry    C8H7N
 Framework group  C1[X(C8H7N)]
 Deg. of freedom    42
 Full point group                 C1      NOp   1
 Largest Abelian subgroup         C1      NOp   1
 Largest concise Abelian subgroup C1      NOp   1
                         Standard orientation:                         
 ---------------------------------------------------------------------
 Center     Atomic      Atomic             Coordinates (Angstroms)
 Number     Number       Type             X           Y           Z
 ---------------------------------------------------------------------
      1          6           0       -2.185954    0.686618   -0.000019
      2          6           0       -2.183067   -0.713339   -0.000003
      3          6           0       -0.937987   -1.430678    0.000024
      4          6           0        0.242812   -0.667947    0.000024
      5          6           0        0.260778    0.755674    0.000005
      6          6           0       -0.977884    1.449374    0.000001
      7          7           0        1.566662   -1.068006   -0.000083
      8          6           0        1.645001    1.157404    0.000006
      9          6           0        2.438786    0.010781    0.000019
     10          1           0        1.866434   -2.037154    0.000548
     11          1           0        2.019086    2.173797   -0.000130
     12          1           0        3.512275   -0.120460   -0.000103
     13          1           0       -3.126279   -1.253081   -0.000025
     14          1           0       -0.909245   -2.518490   -0.000011
     15          1           0       -3.141004    1.206938   -0.000052
     16          1           0       -1.002809    2.537178    0.000007
 ---------------------------------------------------------------------
 Rotational constants (GHZ):           3.8673269           1.5893052           1.1264023
 Standard basis: 6-31+G(d) (6D, 7F)
 There are   185 symmetry adapted cartesian basis functions of A   symmetry.
 There are   185 symmetry adapted basis functions of A   symmetry.
   185 basis functions,   316 primitive gaussians,   185 cartesian basis functions
    31 alpha electrons       31 beta electrons
       nuclear repulsion energy       396.6181047161 Hartrees.
 NAtoms=   16 NActive=   16 NUniq=   16 SFac= 1.00D+00 NAtFMM=   60 NAOKFM=F Big=F
 Integral buffers will be    131072 words long.
 Regular integral format.
 Two-electron integral symmetry is turned on.
 One-electron integrals computed using PRISM.
 NBasis=   185 RedAO= T EigKep=  1.38D-06  NBF=   185
 NBsUse=   185 1.00D-06 EigRej= -1.00D+00 NBFU=   185
 Initial guess from the checkpoint file:  "FuncsMN15-V-1st.chk"
 B after Tr=     0.000000   -0.000000   -0.000000
         Rot=    0.999998    0.000007    0.000007    0.001881 Ang=   0.22 deg.
 ExpMin= 4.38D-02 ExpMax= 4.17D+03 ExpMxC= 6.27D+02 IAcc=3 IRadAn=         5 AccDes= 0.00D+00
 Harris functional with IExCor= 1009 and IRadAn=       5 diagonalized for initial guess.
 HarFok:  IExCor= 1009 AccDes= 0.00D+00 IRadAn=         5 IDoV= 1 UseB2=F ITyADJ=14
 ICtDFT=  3500011 ScaDFX=  1.000000  1.000000  1.000000  1.000000
 FoFCou: FMM=F IPFlag=           0 FMFlag=      100000 FMFlg1=           0
         NFxFlg=           0 DoJE=T BraDBF=F KetDBF=T FulRan=T
         wScrn=  0.000000 ICntrl=       500 IOpCl=  0 I1Cent=   200000004 NGrid=           0
         NMat0=    1 NMatS0=      1 NMatT0=    0 NMatD0=    1 NMtDS0=    0 NMtDT0=    0
 Petite list used in FoFCou.
 Keep R1 ints in memory in canonical form, NReq=152074523.
 Requested convergence on RMS density matrix=1.00D-08 within 128 cycles.
 Requested convergence on MAX density matrix=1.00D-06.
 Requested convergence on             energy=1.00D-06.
 No special actions if energy rises.
 SCF Done:  E(RMN15) =  -363.381955046     A.U. after   13 cycles
            NFock= 13  Conv=0.89D-08     -V/T= 2.0163
 DoSCS=F DFT=T ScalE2(SS,OS)=  1.000000  1.000000
 ExpMin= 4.38D-02 ExpMax= 4.17D+03 ExpMxC= 6.27D+02 IAcc=3 IRadAn=         5 AccDes= 0.00D+00
 HarFok:  IExCor=  205 AccDes= 0.00D+00 IRadAn=         5 IDoV=-2 UseB2=F ITyADJ=14
 ICtDFT= 12500011 ScaDFX=  1.000000  1.000000  1.000000  1.000000
 Range of M.O.s used for correlation:    10   185
 NBasis=   185 NAE=    31 NBE=    31 NFC=     9 NFV=     0
 NROrb=    176 NOA=    22 NOB=    22 NVA=   154 NVB=   154

 **** Warning!!: The largest alpha MO coefficient is  0.17966670D+03

 Orbital symmetries:
       Occupied  (A) (A) (A) (A) (A) (A) (A) (A) (A) (A) (A) (A)
                 (A) (A) (A) (A) (A) (A) (A) (A) (A) (A) (A) (A)
                 (A) (A) (A) (A) (A) (A) (A)
       Virtual   (A) (A) (A) (A) (A) (A) (A) (A) (A) (A) (A) (A)
                 (A) (A) (A) (A) (A) (A) (A) (A) (A) (A) (A) (A)
                 (A) (A) (A) (A) (A) (A) (A) (A) (A) (A) (A) (A)
                 (A) (A) (A) (A) (A) (A) (A) (A) (A) (A) (A) (A)
                 (A) (A) (A) (A) (A) (A) (A) (A) (A) (A) (A) (A)
                 (A) (A) (A) (A) (A) (A) (A) (A) (A) (A) (A) (A)
                 (A) (A) (A) (A) (A) (A) (A) (A) (A) (A) (A) (A)
                 (A) (A) (A) (A) (A) (A) (A) (A) (A) (A) (A) (A)
                 (A) (A) (A) (A) (A) (A) (A) (A) (A) (A) (A) (A)
                 (A) (A) (A) (A) (A) (A) (A) (A) (A) (A) (A) (A)
                 (A) (A) (A) (A) (A) (A) (A) (A) (A) (A) (A) (A)
                 (A) (A) (A) (A) (A) (A) (A) (A) (A) (A) (A) (A)
                 (A) (A) (A) (A) (A) (A) (A) (A) (A) (A)
 Generating guess from densities on rwf.
 Convergence on wavefunction:    0.000001000000000
 Iteration     1 Dimension    12 NMult     0 NNew     12
 CISAX will form    12 AO SS matrices at one time.
 New state      5 was old state      6
 New state      6 was old state      5
 Iteration     2 Dimension    24 NMult    12 NNew     12
 Iteration     3 Dimension    36 NMult    24 NNew     12
 Iteration     4 Dimension    48 NMult    36 NNew     12
 Iteration     5 Dimension    60 NMult    48 NNew     12
 Iteration     6 Dimension    72 NMult    60 NNew     12
 Iteration     7 Dimension    84 NMult    72 NNew     12
 Iteration     8 Dimension    96 NMult    84 NNew     12
 Iteration     9 Dimension   108 NMult    96 NNew     12
 Iteration    10 Dimension   116 NMult   108 NNew      8
 Iteration    11 Dimension   122 NMult   116 NNew      6
 Iteration    12 Dimension   128 NMult   122 NNew      6
 Iteration    13 Dimension   130 NMult   128 NNew      2
 ***********************************************************************
 Excited states from <AA,BB:AA,BB> singles matrix:
 ***********************************************************************
 
 Ground to excited state transition densities written to RWF  633
 Ground to excited state transition electric dipole moments (Au):
       state          X           Y           Z        Dip. S.      Osc.
         1        -0.5126      0.7954     -0.0000      0.8953      0.1020
         2        -0.6538     -0.0160     -0.0000      0.4277      0.0510
         3         0.0003      0.0000     -0.1780      0.0317      0.0045
         4        -2.1351     -0.5099     -0.0001      4.8187      0.7185
         5        -0.0006     -0.0002     -0.0806      0.0065      0.0010
         6        -0.0005      0.0003     -0.2148      0.0461      0.0073
 Ground to excited state transition velocity dipole moments (Au):
       state          X           Y           Z        Dip. S.      Osc.
         1         0.0808     -0.1503      0.0000      0.0291      0.1136
         2         0.1127      0.0031      0.0000      0.0127      0.0474
         3        -0.0001     -0.0000      0.0281      0.0008      0.0025
         4         0.4795      0.1164      0.0000      0.2435      0.7258
         5         0.0001      0.0000      0.0196      0.0004      0.0011
         6         0.0001     -0.0001      0.0536      0.0029      0.0081
 Ground to excited state transition magnetic dipole moments (Au):
       state          X           Y           Z
         1         0.0001      0.0001      0.0899
         2        -0.0001     -0.0001     -0.0449
         3         0.1069     -0.1214      0.0002
         4         0.0000     -0.0003     -0.7272
         5         0.5160     -0.2178      0.0000
         6        -0.1868     -0.5484      0.0002
 Ground to excited state transition velocity quadrupole moments (Au):
       state          XX          YY          ZZ          XY          XZ          YZ
         1         0.1826     -0.1046     -0.0028      0.0369      0.0000     -0.0000
         2         0.1163     -0.1454      0.0259     -0.0086      0.0000     -0.0000
         3        -0.0001      0.0001      0.0001      0.0001      0.1087      0.0341
         4         0.0465     -0.1326     -0.0415     -0.4568      0.0002     -0.0000
         5         0.0000     -0.0001     -0.0000     -0.0000      0.2284      0.3800
         6        -0.0005      0.0001     -0.0001      0.0003      0.4143     -0.1094
 <0|del|b> * <b|rxdel|0> + <0|del|b> * <b|delr+rdel|0>
 Rotatory Strengths (R) in cgs (10**-40 erg-esu-cm/Gauss)
       state          XX          YY          ZZ    R(velocity)    E-M Angle
         1        -0.0143      0.0099     -0.0091     -0.0045       90.00
         2        -0.0013     -0.0163     -0.0092     -0.0089       90.00
         3         0.0200     -0.0118     -0.0083     -0.0001       90.00
         4        -0.1323     -0.0267      0.0082     -0.0503       90.00
         5        -0.0241      0.1897      0.0292      0.0649       90.00
         6         0.1731     -0.0630      0.0043      0.0381       90.00
 1/2[<0|r|b>*<b|rxdel|0> + (<0|rxdel|b>*<b|r|0>)*]
 Rotatory Strengths (R) in cgs (10**-40 erg-esu-cm/Gauss)
       state          XX          YY          ZZ     R(length)
         1         0.0251     -0.0337      0.0021     -0.0022
         2        -0.0258     -0.0006     -0.0013     -0.0092
         3        -0.0257      0.0019      0.0303      0.0022
         4         0.0093     -0.0947     -0.0629     -0.0494
         5         0.2131     -0.0245      0.0019      0.0635
         6        -0.0673      0.1320      0.0314      0.0321
  1/2[<0|del|b>*<b|r|0> + (<0|r|b>*<b|del|0>)*] (Au)
       state          X           Y           Z        Dip. S.   Osc.(frdel)
         1        -0.0414     -0.1196     -0.0000      0.1610      0.1073
         2        -0.0737     -0.0000     -0.0000      0.0738      0.0492
         3        -0.0000     -0.0000     -0.0050      0.0050      0.0033
         4        -1.0238     -0.0593     -0.0000      1.0832      0.7221
         5        -0.0000     -0.0000     -0.0016      0.0016      0.0011
         6        -0.0000     -0.0000     -0.0115      0.0115      0.0077

 Excitation energies and oscillator strengths:
 
 Excited State   1:      Singlet-A      4.6503 eV  266.61 nm  f=0.1020  <S**2>=0.000
      30 -> 32        -0.15594
      30 -> 33         0.13892
      31 -> 32         0.66476
 This state for optimization and/or second-order correction.
 Total Energy, E(TD-HF/TD-DFT) =  -363.211058389    
 Copying the excited state density for this state as the 1-particle RhoCI density.
 
 Excited State   2:      Singlet-A      4.8694 eV  254.62 nm  f=0.0510  <S**2>=0.000
      30 -> 32         0.56327
      31 -> 32         0.15779
      31 -> 33        -0.38126
 
 Excited State   3:      Singlet-A      5.7834 eV  214.38 nm  f=0.0045  <S**2>=0.000
      31 -> 34         0.68573
 
 Excited State   4:      Singlet-A      6.0858 eV  203.73 nm  f=0.7185  <S**2>=0.000
      30 -> 32         0.35935
      31 -> 33         0.57619
      31 -> 37        -0.12144
 
 Excited State   5:      Singlet-A      6.3395 eV  195.57 nm  f=0.0010  <S**2>=0.000
      30 -> 34         0.24522
      31 -> 35         0.63045
 
 Excited State   6:      Singlet-A      6.4310 eV  192.79 nm  f=0.0073  <S**2>=0.000
      30 -> 34         0.40398
      31 -> 35        -0.18332
      31 -> 36        -0.50854
 SavETr:  write IOETrn=   770 NScale= 10 NData=  16 NLR=1 NState=    6 LETran=     118.
          IDoAtm=1111111111111111
          Differentiating once with respect to electric field.
                with respect to dipole field.
          Differentiating once with respect to nuclear coordinates.
 Keep R1 ints in memory in canonical form, NReq=152086915.
          There are     1 degrees of freedom in the 1st order CPHF.  IDoFFX=0 NUNeed=     1.
 LinEq1:  Iter=  0 NonCon=     1 RMS=7.84D-03 Max=2.02D-01 NDo=     1
 AX will form     1 AO Fock derivatives at one time.
 LinEq1:  Iter=  1 NonCon=     1 RMS=3.32D-03 Max=7.49D-02 NDo=     1
 LinEq1:  Iter=  2 NonCon=     1 RMS=2.09D-03 Max=5.40D-02 NDo=     1
 LinEq1:  Iter=  3 NonCon=     1 RMS=9.23D-04 Max=2.60D-02 NDo=     1
 LinEq1:  Iter=  4 NonCon=     1 RMS=4.41D-04 Max=1.65D-02 NDo=     1
 LinEq1:  Iter=  5 NonCon=     1 RMS=2.97D-04 Max=1.09D-02 NDo=     1
 LinEq1:  Iter=  6 NonCon=     1 RMS=1.50D-04 Max=4.10D-03 NDo=     1
 LinEq1:  Iter=  7 NonCon=     1 RMS=7.64D-05 Max=1.96D-03 NDo=     1
 LinEq1:  Iter=  8 NonCon=     1 RMS=3.71D-05 Max=6.11D-04 NDo=     1
 LinEq1:  Iter=  9 NonCon=     1 RMS=2.08D-05 Max=3.94D-04 NDo=     1
 LinEq1:  Iter= 10 NonCon=     1 RMS=1.00D-05 Max=2.19D-04 NDo=     1
 LinEq1:  Iter= 11 NonCon=     1 RMS=4.10D-06 Max=5.36D-05 NDo=     1
 LinEq1:  Iter= 12 NonCon=     1 RMS=1.69D-06 Max=3.55D-05 NDo=     1
 LinEq1:  Iter= 13 NonCon=     1 RMS=8.11D-07 Max=1.32D-05 NDo=     1
 LinEq1:  Iter= 14 NonCon=     1 RMS=2.64D-07 Max=5.68D-06 NDo=     1
 LinEq1:  Iter= 15 NonCon=     1 RMS=1.62D-07 Max=5.38D-06 NDo=     1
 LinEq1:  Iter= 16 NonCon=     1 RMS=5.69D-08 Max=1.02D-06 NDo=     1
 LinEq1:  Iter= 17 NonCon=     1 RMS=1.23D-08 Max=1.50D-07 NDo=     1
 LinEq1:  Iter= 18 NonCon=     1 RMS=6.33D-09 Max=1.51D-07 NDo=     1
 LinEq1:  Iter= 19 NonCon=     1 RMS=2.61D-09 Max=4.65D-08 NDo=     1
 LinEq1:  Iter= 20 NonCon=     1 RMS=6.11D-10 Max=6.88D-09 NDo=     1
 LinEq1:  Iter= 21 NonCon=     1 RMS=9.38D-11 Max=1.44D-09 NDo=     1
 LinEq1:  Iter= 22 NonCon=     0 RMS=1.77D-11 Max=2.86D-10 NDo=     1
 Linear equations converged to 1.000D-10 1.000D-09 after    22 iterations.
 End of Minotr F.D. properties file   721 does not exist.
 End of Minotr F.D. properties file   722 does not exist.
 End of Minotr F.D. properties file   788 does not exist.
 Calling FoFJK, ICntrl=  10005127 FMM=F ISym2X=0 I1Cent= 0 IOpClX= 0 NMat=1 NMatS=1 NMatT=0.
 ***** Axes restored to original set *****
 -------------------------------------------------------------------
 Center     Atomic                   Forces (Hartrees/Bohr)
 Number     Number              X              Y              Z
 -------------------------------------------------------------------
      1        6          -0.002249570   -0.018594501   -0.000000866
      2        6          -0.007893715    0.023294580    0.000000767
      3        6           0.016709846   -0.007447965    0.000002035
      4        6          -0.010860018    0.010465100   -0.000006359
      5        6           0.007530973   -0.007635445   -0.000001757
      6        6           0.001390040    0.007873827   -0.000000032
      7        7           0.013485693    0.008185597    0.000028727
      8        6          -0.019711101    0.008487783   -0.000010933
      9        6           0.002077783   -0.023405132   -0.000004983
     10        1           0.000267300   -0.001092758   -0.000013652
     11        1           0.000063910    0.000303360    0.000003860
     12        1          -0.001310756   -0.000540174    0.000002281
     13        1           0.001026774   -0.000700703    0.000000447
     14        1          -0.000201096    0.000529772   -0.000001374
     15        1           0.000523495    0.001051518    0.000000109
     16        1          -0.000849559   -0.000774860    0.000001731
 -------------------------------------------------------------------
 Cartesian Forces:  Max     0.023405132 RMS     0.007861238

 GradGradGradGradGradGradGradGradGradGradGradGradGradGradGradGradGradGrad
 Berny optimization.
 Using GEDIIS/GDIIS optimizer.
 FormGI is forming the generalized inverse of G from B-inverse, IUseBI=4.
 Internal  Forces:  Max     0.015523008 RMS     0.003692973
 Search for a local minimum.
 Step number   2 out of a maximum of   94
 All quantities printed in internal units (Hartrees-Bohrs-Radians)
 Mixed Optimization -- RFO/linear search
 Update second derivatives using D2CorX and points    1    2
 DE= -8.47D-03 DEPred=-7.73D-03 R= 1.10D+00
 TightC=F SS=  1.41D+00  RLast= 1.90D-01 DXNew= 5.0454D-01 5.6996D-01
 Trust test= 1.10D+00 RLast= 1.90D-01 DXMaxT set to 5.05D-01
 ITU=  1  0
 Use linear search instead of GDIIS.
     Eigenvalues ---    0.01851   0.01931   0.01986   0.02012   0.02070
     Eigenvalues ---    0.02113   0.02144   0.02150   0.02172   0.02209
     Eigenvalues ---    0.02234   0.02248   0.02340   0.15936   0.16000
     Eigenvalues ---    0.16000   0.16000   0.16000   0.16000   0.16022
     Eigenvalues ---    0.20222   0.22041   0.23187   0.24558   0.24694
     Eigenvalues ---    0.32191   0.35715   0.35746   0.35789   0.35919
     Eigenvalues ---    0.36432   0.36544   0.38080   0.38685   0.42819
     Eigenvalues ---    0.44134   0.46135   0.46877   0.47182   0.47677
     Eigenvalues ---    0.49588   0.64639
 RFO step:  Lambda=-3.06675576D-03 EMin= 1.85114870D-02
 Quartic linear search produced a step of  0.13913.
 Iteration  1 RMS(Cart)=  0.01280370 RMS(Int)=  0.00006564
 Iteration  2 RMS(Cart)=  0.00008132 RMS(Int)=  0.00003470
 Iteration  3 RMS(Cart)=  0.00000000 RMS(Int)=  0.00003470
 Variable       Old X    -DE/DX   Delta X   Delta X   Delta X     New X
                                 (Linear)    (Quad)   (Total)
    R1        2.64554  -0.01452  -0.00138  -0.03708  -0.03848   2.60707
    R2        2.69988   0.00230   0.01210   0.01075   0.02285   2.72273
    R3        2.05525   0.00004   0.00154   0.00074   0.00228   2.05753
    R4        2.71542   0.01076   0.01389   0.03104   0.04493   2.76035
    R5        2.05361  -0.00054   0.00132  -0.00116   0.00016   2.05378
    R6        2.65642  -0.00793   0.00316  -0.01807  -0.01491   2.64151
    R7        2.05638  -0.00053   0.00154  -0.00106   0.00047   2.05686
    R8        2.69047  -0.00663   0.00138  -0.01825  -0.01691   2.67356
    R9        2.61345   0.00563   0.00170   0.01272   0.01448   2.62793
   R10        2.68281   0.00221   0.00488   0.00764   0.01254   2.69535
   R11        2.72374  -0.00999   0.00214  -0.02663  -0.02458   2.69915
   R12        2.05619  -0.00075   0.00152  -0.00176  -0.00024   2.05595
   R13        2.62147  -0.01529   0.00219  -0.03370  -0.03142   2.59005
   R14        1.91704   0.00112   0.00301   0.00397   0.00698   1.92401
   R15        2.63536   0.01552   0.00788   0.03820   0.04608   2.68145
   R16        2.04667   0.00031   0.00174   0.00166   0.00340   2.05007
   R17        2.04370  -0.00124   0.00131  -0.00330  -0.00199   2.04171
    A1        2.13191   0.00042   0.00246   0.00373   0.00616   2.13807
    A2        2.07171   0.00099  -0.00113   0.00656   0.00545   2.07715
    A3        2.07957  -0.00141  -0.00133  -0.01029  -0.01160   2.06796
    A4        2.09555   0.00218  -0.00274   0.01023   0.00745   2.10300
    A5        2.08849   0.00007   0.00067   0.00272   0.00341   2.09190
    A6        2.09915  -0.00224   0.00207  -0.01295  -0.01086   2.08829
    A7        2.04538  -0.00287  -0.00084  -0.01560  -0.01646   2.02892
    A8        2.11990   0.00125   0.00101   0.00667   0.00769   2.12759
    A9        2.11790   0.00162  -0.00016   0.00893   0.00877   2.12667
   A10        2.15693   0.00109   0.00321   0.00696   0.01018   2.16711
   A11        2.27461  -0.00454  -0.00060  -0.01868  -0.01929   2.25531
   A12        1.85164   0.00345  -0.00260   0.01172   0.00912   1.86076
   A13        2.06870   0.00237  -0.00056   0.01086   0.01038   2.07908
   A14        1.86588  -0.00118   0.00010  -0.00639  -0.00643   1.85945
   A15        2.34861  -0.00119   0.00047  -0.00447  -0.00395   2.34466
   A16        2.06790  -0.00318  -0.00153  -0.01618  -0.01771   2.05019
   A17        2.11106   0.00069   0.00111   0.00194   0.00305   2.11412
   A18        2.10422   0.00249   0.00041   0.01424   0.01465   2.11888
   A19        1.95719  -0.00088   0.00692  -0.00273   0.00433   1.96151
   A20        2.16424   0.00037  -0.00362   0.00085  -0.00283   2.16141
   A21        2.16175   0.00051  -0.00331   0.00188  -0.00149   2.16026
   A22        1.89386   0.00042   0.00336   0.00624   0.00952   1.90338
   A23        2.20592  -0.00026  -0.00156  -0.00341  -0.00493   2.20099
   A24        2.18340  -0.00016  -0.00180  -0.00283  -0.00459   2.17881
   A25        1.85621  -0.00182  -0.00778  -0.00884  -0.01654   1.83967
   A26        2.12900   0.00021   0.00369  -0.00054   0.00310   2.13211
   A27        2.29798   0.00161   0.00410   0.00938   0.01343   2.31141
    D1       -0.00001   0.00000   0.00000   0.00001   0.00001  -0.00000
    D2       -3.14159  -0.00000  -0.00000  -0.00000  -0.00001   3.14159
    D3        3.14158   0.00000   0.00001   0.00001   0.00002  -3.14159
    D4        0.00000   0.00000   0.00000   0.00000   0.00001   0.00001
    D5        0.00003   0.00000   0.00001   0.00000   0.00001   0.00004
    D6       -3.14157   0.00000   0.00001   0.00002   0.00003  -3.14154
    D7       -3.14156  -0.00000   0.00000  -0.00000  -0.00000  -3.14156
    D8        0.00003   0.00000   0.00000   0.00001   0.00002   0.00004
    D9       -0.00001   0.00000  -0.00001   0.00002   0.00001   0.00000
   D10       -3.14154  -0.00000  -0.00000  -0.00000  -0.00000  -3.14154
   D11        3.14157   0.00000  -0.00000   0.00003   0.00002  -3.14159
   D12        0.00004   0.00000   0.00000   0.00001   0.00001   0.00005
   D13        0.00001  -0.00000   0.00000  -0.00005  -0.00005  -0.00004
   D14       -3.14147  -0.00000  -0.00000  -0.00009  -0.00010  -3.14157
   D15        3.14154  -0.00000  -0.00000  -0.00003  -0.00003   3.14151
   D16        0.00006  -0.00000  -0.00001  -0.00007  -0.00008  -0.00002
   D17        0.00001   0.00000   0.00001   0.00006   0.00006   0.00008
   D18       -3.14159   0.00000  -0.00001   0.00006   0.00005  -3.14154
   D19        3.14151   0.00000   0.00001   0.00009   0.00010  -3.14157
   D20       -0.00009   0.00000  -0.00001   0.00009   0.00008  -0.00001
   D21       -3.14155  -0.00000  -0.00004  -0.00001  -0.00006   3.14158
   D22       -0.00087   0.00001   0.00004   0.00026   0.00029  -0.00057
   D23        0.00015  -0.00000  -0.00005  -0.00005  -0.00010   0.00005
   D24        3.14083   0.00001   0.00003   0.00022   0.00025   3.14108
   D25       -0.00003  -0.00000  -0.00001  -0.00003  -0.00004  -0.00007
   D26        3.14157  -0.00000  -0.00001  -0.00005  -0.00006   3.14151
   D27        3.14158  -0.00000   0.00001  -0.00003  -0.00002   3.14156
   D28       -0.00001  -0.00000   0.00001  -0.00005  -0.00004  -0.00005
   D29        0.00000  -0.00000   0.00006  -0.00010  -0.00004  -0.00004
   D30        3.14145   0.00000   0.00001   0.00005   0.00006   3.14151
   D31        3.14159  -0.00000   0.00004  -0.00010  -0.00006   3.14152
   D32       -0.00016   0.00000  -0.00001   0.00005   0.00004  -0.00011
   D33       -0.00014   0.00000   0.00009  -0.00001   0.00007  -0.00007
   D34       -3.14153   0.00000   0.00005  -0.00000   0.00004  -3.14148
   D35       -3.14083  -0.00001   0.00001  -0.00028  -0.00028  -3.14110
   D36        0.00098  -0.00001  -0.00003  -0.00027  -0.00031   0.00067
   D37        0.00008   0.00000  -0.00009   0.00007  -0.00001   0.00007
   D38        3.14143   0.00000  -0.00004   0.00006   0.00002   3.14145
   D39       -3.14137  -0.00000  -0.00004  -0.00008  -0.00012  -3.14148
   D40       -0.00001  -0.00000   0.00001  -0.00009  -0.00009  -0.00010
         Item               Value     Threshold  Converged?
 Maximum Force            0.015523     0.000450     NO 
 RMS     Force            0.003693     0.000300     NO 
 Maximum Displacement     0.049962     0.001800     NO 
 RMS     Displacement     0.012828     0.001200     NO 
 Predicted change in Energy=-1.694418D-03
 GradGradGradGradGradGradGradGradGradGradGradGradGradGradGradGradGradGrad

                          Input orientation:                          
 ---------------------------------------------------------------------
 Center     Atomic      Atomic             Coordinates (Angstroms)
 Number     Number       Type             X           Y           Z
 ---------------------------------------------------------------------
      1          6           0       -2.194724    0.673065    0.000001
      2          6           0       -2.179246   -0.706448    0.000010
      3          6           0       -0.912325   -1.433497    0.000032
      4          6           0        0.247876   -0.653845    0.000050
      5          6           0        0.254427    0.760927   -0.000001
      6          6           0       -0.988354    1.460844    0.000018
      7          7           0        1.578606   -1.057622    0.000044
      8          6           0        1.625533    1.161172   -0.000030
[...]
 ! D9    D(1,2,3,4)             -0.0005         -DE/DX =    0.0                 !
 ! D10   D(1,2,3,14)          -179.998          -DE/DX =    0.0                 !
 ! D11   D(13,2,3,4)          -180.0002         -DE/DX =    0.0                 !
 ! D12   D(13,2,3,14)            0.0023         -DE/DX =    0.0                 !
 ! D13   D(2,3,4,5)              0.001          -DE/DX =    0.0                 !
 ! D14   D(2,3,4,7)           -179.9987         -DE/DX =    0.0                 !
 ! D15   D(14,3,4,5)           179.9985         -DE/DX =    0.0                 !
 ! D16   D(14,3,4,7)            -0.0012         -DE/DX =    0.0                 !
 ! D17   D(3,4,5,6)             -0.0005         -DE/DX =    0.0                 !
 ! D18   D(3,4,5,8)           -180.0014         -DE/DX =    0.0                 !
 ! D19   D(7,4,5,6)            179.9992         -DE/DX =    0.0                 !
 ! D20   D(7,4,5,8)             -0.0017         -DE/DX =    0.0                 !
 ! D21   D(3,4,7,9)           -180.0035         -DE/DX =    0.0                 !
 ! D22   D(3,4,7,10)            -0.0039         -DE/DX =    0.0                 !
 ! D23   D(5,4,7,9)             -0.0032         -DE/DX =    0.0                 !
 ! D24   D(5,4,7,10)           179.9964         -DE/DX =    0.0                 !
 ! D25   D(4,5,6,1)             -0.0004         -DE/DX =    0.0                 !
 ! D26   D(4,5,6,16)           179.9977         -DE/DX =    0.0                 !
 ! D27   D(8,5,6,1)            180.0007         -DE/DX =    0.0                 !
 ! D28   D(8,5,6,16)            -0.0012         -DE/DX =    0.0                 !
 ! D29   D(4,5,8,9)              0.0056         -DE/DX =    0.0                 !
 ! D30   D(4,5,8,11)           179.999          -DE/DX =    0.0                 !
 ! D31   D(6,5,8,9)            180.0047         -DE/DX =    0.0                 !
 ! D32   D(6,5,8,11)            -0.002          -DE/DX =    0.0                 !
 ! D33   D(4,7,9,8)              0.0066         -DE/DX =    0.0                 !
 ! D34   D(4,7,9,12)           180.0045         -DE/DX =    0.0                 !
 ! D35   D(10,7,9,8)          -179.993          -DE/DX =    0.0                 !
 ! D36   D(10,7,9,12)            0.0048         -DE/DX =    0.0                 !
 ! D37   D(5,8,9,7)             -0.0076         -DE/DX =    0.0                 !
 ! D38   D(5,8,9,12)          -180.0051         -DE/DX =    0.0                 !
 ! D39   D(11,8,9,7)          -180.0012         -DE/DX =    0.0                 !
 ! D40   D(11,8,9,12)            0.0013         -DE/DX =    0.0                 !
 --------------------------------------------------------------------------------
 GradGradGradGradGradGradGradGradGradGradGradGradGradGradGradGradGradGrad

                          Input orientation:                          
 ---------------------------------------------------------------------
 Center     Atomic      Atomic             Coordinates (Angstroms)
 Number     Number       Type             X           Y           Z
 ---------------------------------------------------------------------
      1          6           0       -2.185342    0.686846   -0.000043
      2          6           0       -2.155512   -0.696331    0.000028
      3          6           0       -0.909154   -1.444270    0.000102
      4          6           0        0.245300   -0.658156    0.000085
      5          6           0        0.245955    0.750979    0.000023
      6          6           0       -0.993091    1.470070   -0.000038
      7          7           0        1.593696   -1.065799    0.000116
      8          6           0        1.601466    1.160817    0.000058
      9          6           0        2.428682   -0.009128    0.000007
     10          1           0        1.889619   -2.036744    0.000214
     11          1           0        1.977476    2.176927    0.000013
     12          1           0        3.504293   -0.114650   -0.000060
     13          1           0       -3.090237   -1.252545    0.000035
     14          1           0       -0.890725   -2.529645    0.000126
     15          1           0       -3.147928    1.193452   -0.000081
     16          1           0       -1.017595    2.555622   -0.000049
 ---------------------------------------------------------------------
                    Distance matrix (angstroms):
                    1          2          3          4          5
     1  C    0.000000
     2  C    1.383499   0.000000
     3  C    2.484011   1.453554   0.000000
     4  C    2.777958   2.401116   1.396689   0.000000
     5  C    2.432143   2.803882   2.480604   1.409135   0.000000
     6  C    1.426500   2.458560   2.915548   2.462307   1.432594
     7  N    4.165680   3.767369   2.531304   1.408667   2.262098
     8  C    3.816355   4.190929   3.617968   2.268887   1.416113
     9  C    4.666218   4.635416   3.633288   2.277804   2.311289
    10  H    4.901352   4.261431   2.860797   2.145761   3.236206
    11  H    4.421470   5.033608   4.630951   3.322368   2.243099
    12  H    5.745811   5.689618   4.609383   3.304003   3.371362
    13  H    2.140111   1.087697   2.189493   3.388084   3.891567
    14  H    3.467253   2.227268   1.085531   2.189297   3.471964
    15  H    1.087760   2.134519   3.459724   3.865547   3.422605
    16  H    2.203623   3.445295   4.001362   3.453009   2.203020
                    6          7          8          9         10
     6  C    0.000000
     7  N    3.622443   0.000000
     8  C    2.612922   2.226629   0.000000
     9  C    3.727808   1.346757   1.432849   0.000000
    10  H    4.539577   1.015040   3.210518   2.098050   0.000000
    11  H    3.053508   3.265357   1.083450   2.232134   4.214587
    12  H    4.768417   2.134260   2.290756   1.080775   2.510303
    13  H    3.436663   4.687654   5.276021   5.657257   5.041224
    14  H    4.001024   2.883607   4.453147   4.167909   2.823697
    15  H    2.172520   5.252353   4.749506   5.704803   5.984233
    16  H    1.085829   4.464698   2.967316   4.295901   5.435229
                   11         12         13         14         15
    11  H    0.000000
    12  H    2.753633   0.000000
    13  H    6.119068   6.691983   0.000000
    14  H    5.511660   5.014817   2.543391   0.000000
    15  H    5.218907   6.779615   2.446678   4.353897   0.000000
    16  H    3.018917   5.251460   4.335664   5.086849   2.528601
                   16
    16  H    0.000000
 Stoichiometry    C8H7N
 Framework group  C1[X(C8H7N)]
 Deg. of freedom    42
 Full point group                 C1      NOp   1
 Largest Abelian subgroup         C1      NOp   1
 Largest concise Abelian subgroup C1      NOp   1
                         Standard orientation:                         
 ---------------------------------------------------------------------
 Center     Atomic      Atomic             Coordinates (Angstroms)
 Number     Number       Type             X           Y           Z
 ---------------------------------------------------------------------
      1          6           0       -2.198106    0.645935   -0.000080
      2          6           0       -2.143454   -0.736485   -0.000010
      3          6           0       -0.883872   -1.461932    0.000064
      4          6           0        0.256286   -0.655222    0.000047
      5          6           0        0.231648    0.753698   -0.000015
      6          6           0       -1.020105    1.450432   -0.000076
      7          7           0        1.611782   -1.038596    0.000078
      8          6           0        1.579584    1.187800    0.000020
      9          6           0        2.427666    0.032891   -0.000030
     10          1           0        1.925085   -2.004074    0.000176
     11          1           0        1.937295    2.210495   -0.000025
     12          1           0        3.504999   -0.053307   -0.000098
     13          1           0       -3.068045   -1.309386   -0.000003
     14          1           0       -0.845964   -2.546800    0.000088
     15          1           0       -3.169631    1.135181   -0.000119
     16          1           0       -1.064091    2.535370   -0.000087
 ---------------------------------------------------------------------
 Rotational constants (GHZ):           3.8448977           1.6053144           1.1324825

 **********************************************************************

            Population analysis using the CI Density.

 **********************************************************************

 Orbital symmetries:
       Occupied  (A) (A) (A) (A) (A) (A) (A) (A) (A) (A) (A) (A)
                 (A) (A) (A) (A) (A) (A) (A) (A) (A) (A) (A) (A)
                 (A) (A) (A) (A) (A) (A) (A)
       Virtual   (A) (A) (A) (A) (A) (A) (A) (A) (A) (A) (A) (A)
                 (A) (A) (A) (A) (A) (A) (A) (A) (A) (A) (A) (A)
                 (A) (A) (A) (A) (A) (A) (A) (A) (A) (A) (A) (A)
                 (A) (A) (A) (A) (A) (A) (A) (A) (A) (A) (A) (A)
                 (A) (A) (A) (A) (A) (A) (A) (A) (A) (A) (A) (A)
                 (A) (A) (A) (A) (A) (A) (A) (A) (A) (A) (A) (A)
                 (A) (A) (A) (A) (A) (A) (A) (A) (A) (A) (A) (A)
                 (A) (A) (A) (A) (A) (A) (A) (A) (A) (A) (A) (A)
                 (A) (A) (A) (A) (A) (A) (A) (A) (A) (A) (A) (A)
                 (A) (A) (A) (A) (A) (A) (A) (A) (A) (A) (A) (A)
                 (A) (A) (A) (A) (A) (A) (A) (A) (A) (A) (A) (A)
                 (A) (A) (A) (A) (A) (A) (A) (A) (A) (A) (A) (A)
                 (A) (A) (A) (A) (A) (A) (A) (A) (A) (A)
 The electronic state is 1-A.
 Alpha  occ. eigenvalues --  -14.17657 -10.11398 -10.10783 -10.08370 -10.07728
 Alpha  occ. eigenvalues --  -10.07432 -10.07240 -10.06956 -10.06130  -1.02750
 Alpha  occ. eigenvalues --   -0.88084  -0.81883  -0.78137  -0.74783  -0.66974
 Alpha  occ. eigenvalues --   -0.63673  -0.61739  -0.58235  -0.52268  -0.51295
 Alpha  occ. eigenvalues --   -0.47796  -0.47152  -0.47089  -0.44171  -0.43092
 Alpha  occ. eigenvalues --   -0.38591  -0.38261  -0.37699  -0.31113  -0.26575
 Alpha  occ. eigenvalues --   -0.22569
 Alpha virt. eigenvalues --   -0.00389   0.04458   0.04631   0.06256   0.07003
 Alpha virt. eigenvalues --    0.07582   0.08361   0.08599   0.09959   0.10826
 Alpha virt. eigenvalues --    0.11225   0.11270   0.13272   0.13563   0.14803
 Alpha virt. eigenvalues --    0.15283   0.15437   0.17524   0.18086   0.18307
 Alpha virt. eigenvalues --    0.19643   0.20482   0.20887   0.21136   0.21261
 Alpha virt. eigenvalues --    0.21640   0.22654   0.23483   0.23825   0.23860
 Alpha virt. eigenvalues --    0.24010   0.24917   0.25975   0.26240   0.27280
 Alpha virt. eigenvalues --    0.27777   0.27936   0.28203   0.29251   0.30207
 Alpha virt. eigenvalues --    0.31108   0.31266   0.32122   0.33163   0.34130
 Alpha virt. eigenvalues --    0.34865   0.35828   0.37579   0.39257   0.39764
 Alpha virt. eigenvalues --    0.40371   0.43590   0.45638   0.48999   0.54403
 Alpha virt. eigenvalues --    0.60439   0.63690   0.69329   0.69713   0.72238
 Alpha virt. eigenvalues --    0.74217   0.74781   0.75282   0.75729   0.75909
 Alpha virt. eigenvalues --    0.77914   0.78362   0.79696   0.80732   0.81667
 Alpha virt. eigenvalues --    0.82830   0.87794   0.91106   0.92226   0.93188
 Alpha virt. eigenvalues --    0.96336   0.96894   0.97584   0.99138   1.00366
 Alpha virt. eigenvalues --    1.02089   1.05271   1.07016   1.08465   1.11358
 Alpha virt. eigenvalues --    1.12857   1.14226   1.18996   1.19533   1.22371
 Alpha virt. eigenvalues --    1.23798   1.24194   1.26097   1.32411   1.32922
 Alpha virt. eigenvalues --    1.34317   1.37087   1.40175   1.41182   1.44515
 Alpha virt. eigenvalues --    1.46176   1.47024   1.48115   1.48857   1.55509
 Alpha virt. eigenvalues --    1.58531   1.62873   1.77323   1.79698   1.85269
 Alpha virt. eigenvalues --    1.87751   1.89385   1.90230   1.95444   1.96695
 Alpha virt. eigenvalues --    1.97631   1.99991   2.03218   2.08684   2.11860
 Alpha virt. eigenvalues --    2.12314   2.15797   2.17379   2.19833   2.23327
 Alpha virt. eigenvalues --    2.23788   2.26389   2.31512   2.35137   2.40439
 Alpha virt. eigenvalues --    2.47562   2.49627   2.55231   2.57438   2.59395
 Alpha virt. eigenvalues --    2.59879   2.66053   2.73039   2.75645   2.77403
 Alpha virt. eigenvalues --    2.87486   2.90250   2.99422   3.13270   3.28860
 Alpha virt. eigenvalues --    4.09458   4.16619   4.20428   4.23702   4.27663
 Alpha virt. eigenvalues --    4.31944   4.38710   4.42645   4.66916
          Condensed to atoms (all electrons):
               1          2          3          4          5          6
     1  C    5.831167   0.060891   0.585654  -0.674582   0.230940  -0.475971
     2  C    0.060891   6.047973  -0.883903   0.833875  -0.570011   0.743284
     3  C    0.585654  -0.883903  13.603871  -3.670597  -2.715430  -2.330111
     4  C   -0.674582   0.833875  -3.670597  13.184510  -2.705930  -0.434162
     5  C    0.230940  -0.570011  -2.715430  -2.705930  14.357355  -0.992545
     6  C   -0.475971   0.743284  -2.330111  -0.434162  -0.992545  11.729310
     7  N    0.000669   0.003976  -0.304864  -0.143887   0.479528   0.047260
     8  C    0.192984  -0.260574   2.837745   0.782956  -5.188067  -2.542253
     9  C   -0.056215   0.029821  -0.993359  -0.449567   1.949287   0.630438
    10  H   -0.003549  -0.003703  -0.103437  -0.084224   0.156640   0.023270
    11  H    0.000531   0.000497   0.003772   0.057249  -0.101345  -0.018597
    12  H    0.000157   0.000211  -0.003046  -0.001319   0.040276  -0.009982
    13  H   -0.090173   0.424616  -0.116069   0.057955  -0.019273   0.049944
    14  H    0.052224  -0.071911   0.467982  -0.155092   0.035258  -0.029607
    15  H    0.433029  -0.088250   0.038317  -0.025273   0.056770  -0.108906
    16  H   -0.104110   0.044224  -0.057509   0.076985  -0.056298   0.476886
               7          8          9         10         11         12
     1  C    0.000669   0.192984  -0.056215  -0.003549   0.000531   0.000157
     2  C    0.003976  -0.260574   0.029821  -0.003703   0.000497   0.000211
     3  C   -0.304864   2.837745  -0.993359  -0.103437   0.003772  -0.003046
     4  C   -0.143887   0.782956  -0.449567  -0.084224   0.057249  -0.001319
     5  C    0.479528  -5.188067   1.949287   0.156640  -0.101345   0.040276
     6  C    0.047260  -2.542253   0.630438   0.023270  -0.018597  -0.009982
     7  N    7.103582  -0.407583   0.447084   0.278466   0.009839  -0.042297
     8  C   -0.407583  12.309800  -2.289613  -0.004227   0.440609  -0.109264
     9  C    0.447084  -2.289613   6.745996  -0.026357  -0.093043   0.439958
    10  H    0.278466  -0.004227  -0.026357   0.345702  -0.000077  -0.002673
    11  H    0.009839   0.440609  -0.093043  -0.000077   0.495319  -0.001006
    12  H   -0.042297  -0.109264   0.439958  -0.002673  -0.001006   0.475499
    13  H   -0.000281  -0.004716   0.001828  -0.000002   0.000000  -0.000000
    14  H   -0.000260  -0.018172   0.013841   0.001888   0.000002   0.000003
    15  H    0.000201  -0.002113  -0.000120  -0.000000  -0.000001  -0.000000
    16  H   -0.000899  -0.090521   0.005528   0.000003   0.001497  -0.000001
              13         14         15         16
     1  C   -0.090173   0.052224   0.433029  -0.104110
     2  C    0.424616  -0.071911  -0.088250   0.044224
     3  C   -0.116069   0.467982   0.038317  -0.057509
     4  C    0.057955  -0.155092  -0.025273   0.076985
     5  C   -0.019273   0.035258   0.056770  -0.056298
     6  C    0.049944  -0.029607  -0.108906   0.476886
     7  N   -0.000281  -0.000260   0.000201  -0.000899
     8  C   -0.004716  -0.018172  -0.002113  -0.090521
     9  C    0.001828   0.013841  -0.000120   0.005528
    10  H   -0.000002   0.001888  -0.000000   0.000003
    11  H    0.000000   0.000002  -0.000001   0.001497
    12  H   -0.000000   0.000003  -0.000000  -0.000001
    13  H    0.544998  -0.003867  -0.005853  -0.000131
    14  H   -0.003867   0.543849  -0.000121   0.000012
    15  H   -0.005853  -0.000121   0.547705  -0.004053
    16  H   -0.000131   0.000012  -0.004053   0.541543
 Mulliken charges:
               1
     1  C    0.016355
     2  C   -0.311015
     3  C   -0.359015
     4  C   -0.648897
     5  C    1.042844
     6  C   -0.758258
     7  N   -0.470535
     8  C    0.353008
     9  C   -0.355507
    10  H    0.422279
    11  H    0.204754
    12  H    0.213484
    13  H    0.161021
    14  H    0.163971
    15  H    0.158669
    16  H    0.166843
 Sum of Mulliken charges =  -0.00000
 Mulliken charges with hydrogens summed into heavy atoms:
               1
     1  C    0.175024
     2  C   -0.149994
     3  C   -0.195044
     4  C   -0.648897
     5  C    1.042844
     6  C   -0.591416
     7  N   -0.048256
     8  C    0.557761
     9  C   -0.142023
 Electronic spatial extent (au):  <R**2>=           1026.1565
 Charge=             -0.0000 electrons
 Dipole moment (field-independent basis, Debye):
    X=              4.4019    Y=             -1.3712    Z=              0.0002  Tot=              4.6106
 Quadrupole moment (field-independent basis, Debye-Ang):
   XX=            -44.5428   YY=            -46.6667   ZZ=            -60.3214
   XY=             -2.4155   XZ=              0.0002   YZ=             -0.0005
 Traceless Quadrupole moment (field-independent basis, Debye-Ang):
   XX=              5.9675   YY=              3.8436   ZZ=             -9.8111
   XY=             -2.4155   XZ=              0.0002   YZ=             -0.0005
 Octapole moment (field-independent basis, Debye-Ang**2):
  XXX=             29.7204  YYY=             -9.7192  ZZZ=              0.0009  XYY=             15.7071
  XXY=             -7.2963  XXZ=             -0.0006  XZZ=              5.4740  YZZ=             -1.6770
  YYZ=              0.0015  XYZ=             -0.0011
 Hexadecapole moment (field-independent basis, Debye-Ang**3):
 XXXX=           -845.4243 YYYY=           -400.4306 ZZZZ=            -83.4101 XXXY=            -18.9324
 XXXZ=             -0.0070 YYYX=            -16.2816 YYYZ=              0.0042 ZZZX=             -0.0060
 ZZZY=              0.0096 XXYY=           -200.0070 XXZZ=           -199.2157 YYZZ=           -103.3747
 XXYZ=             -0.0007 YYXZ=              0.0005 ZZXY=             -2.2161
 N-N= 3.972986293592D+02 E-N=-1.633954215112D+03  KE= 3.577310697254D+02
 Unable to Open any file for archive entry.
 1\1\GINC-EXP-3-55\FOpt\RMN15 TD-FC\6-31+G(d)\C8H7N1\CWALDT\23-Jun-2021
 \0\\# td= (nstates=6, root=1) MN15/6-31+G* Opt density=current\\FuncsM
 N15-V-1st\\0,1\C,-2.1853419485,0.6868461999,-0.0000425634\C,-2.1555121
 334,-0.6963314794,0.0000281966\C,-0.9091543191,-1.4442702114,0.0001020
 86\C,0.2453004003,-0.6581559219,0.0000849828\C,0.2459552547,0.75097924
 46,0.0000232779\C,-0.993090604,1.4700696158,-0.0000383625\N,1.59369587
 38,-1.0657985597,0.0001160597\C,1.6014663423,1.1608167494,0.0000579492
 \C,2.4286816712,-0.0091278662,0.0000074367\H,1.8896189247,-2.036743882
 8,0.0002140356\H,1.97747589,2.1769270719,0.0000131193\H,3.5042933177,-
 0.114649572,-0.0000601429\H,-3.0902372829,-1.2525449984,0.0000347957\H
 ,-0.8907249467,-2.5296446151,0.0001255868\H,-3.1479279633,1.1934522869
 ,-0.0000814215\H,-1.0175954766,2.5556219386,-0.0000490362\\Version=AS6
 4L-G16RevC.01\State=1-A\HF=-363.3758801\RMSD=5.095e-09\RMSF=2.051e-05\
 Dipole=1.731858,-0.5394808,0.0000664\Quadrupole=4.4366893,2.85763,-7.2
 943193,-1.7958454,0.0001343,-0.0004033\PG=C01 [X(C8H7N1)]\\@
 The archive entry for this job was punched.


 THE THINKER DIES, BUT HIS THOUGHTS ARE BEYOND THE 
 REACH OF DESTRUCTION.  MEN ARE MORTAL; BUT IDEAS 
 ARE IMMORTAL.
                              -- WALTER LIPPMANN
 Job cpu time:       0 days  7 hours 45 minutes  4.4 seconds.
 Elapsed time:       0 days  2 hours  4 minutes 36.0 seconds.
 File lengths (MBytes):  RWF=    238 Int=      0 D2E=      0 Chk=     11 Scr=      1
 Normal termination of Gaussian 16 at Wed Jun 23 10:12:18 2021.
