 Entering Gaussian System, Link 0=/cm/shared/apps/spack/cpu/opt/spack/linux-centos8-zen/gcc-8.3.1/gaussian-16.C.01-po5bqktfeugvmjyga3v7eigbecnokxng/g16/g16
 Initial command:
 /cm/shared/apps/spack/cpu/opt/spack/linux-centos8-zen/gcc-8.3.1/gaussian-16.C.01-po5bqktfeugvmjyga3v7eigbecnokxng/g16/l1.exe "/scratch/cwaldt/job_3576880/Gau-76768.inp" -scrdir="/scratch/cwaldt/job_3576880/"
 Entering Link 1 = /cm/shared/apps/spack/cpu/opt/spack/linux-centos8-zen/gcc-8.3.1/gaussian-16.C.01-po5bqktfeugvmjyga3v7eigbecnokxng/g16/l1.exe PID=     76769.
  
 Copyright (c) 1988-2019, Gaussian, Inc.  All Rights Reserved.
  
 This is part of the Gaussian(R) 16 program.  It is based on
 the Gaussian(R) 09 system (copyright 2009, Gaussian, Inc.),
 the Gaussian(R) 03 system (copyright 2003, Gaussian, Inc.),
 the Gaussian(R) 98 system (copyright 1998, Gaussian, Inc.),
 the Gaussian(R) 94 system (copyright 1995, Gaussian, Inc.),
 the Gaussian 92(TM) system (copyright 1992, Gaussian, Inc.),
 the Gaussian 90(TM) system (copyright 1990, Gaussian, Inc.),
 the Gaussian 88(TM) system (copyright 1988, Gaussian, Inc.),
 the Gaussian 86(TM) system (copyright 1986, Carnegie Mellon
 University), and the Gaussian 82(TM) system (copyright 1983,
 Carnegie Mellon University). Gaussian is a federally registered
 trademark of Gaussian, Inc.
  
 This software contains proprietary and confidential information,
 including trade secrets, belonging to Gaussian, Inc.
  
 This software is provided under written license and may be
 used, copied, transmitted, or stored only in accord with that
 written license.
  
 The following legend is applicable only to US Government
 contracts under FAR:
  
                    RESTRICTED RIGHTS LEGEND
  
 Use, reproduction and disclosure by the US Government is
 subject to restrictions as set forth in subparagraphs (a)
 and (c) of the Commercial Computer Software - Restricted
 Rights clause in FAR 52.227-19.
  
 Gaussian, Inc.
 340 Quinnipiac St., Bldg. 40, Wallingford CT 06492
  
  
 ---------------------------------------------------------------
 Warning -- This program may not be used in any manner that
 competes with the business of Gaussian, Inc. or will provide
 assistance to any competitor of Gaussian, Inc.  The licensee
 of this program is prohibited from giving any competitor of
 Gaussian, Inc. access to this program.  By using this program,
 the user acknowledges that Gaussian, Inc. is engaged in the
 business of creating and licensing software in the field of
 computational chemistry and represents and warrants to the
 licensee that it is not a competitor of Gaussian, Inc. and that
 it will not use this program in any manner prohibited above.
 ---------------------------------------------------------------
  

 Cite this work as:
 Gaussian 16, Revision C.01,
 M. J. Frisch, G. W. Trucks, H. B. Schlegel, G. E. Scuseria, 
 M. A. Robb, J. R. Cheeseman, G. Scalmani, V. Barone, 
 G. A. Petersson, H. Nakatsuji, X. Li, M. Caricato, A. V. Marenich, 
 J. Bloino, B. G. Janesko, R. Gomperts, B. Mennucci, H. P. Hratchian, 
 J. V. Ortiz, A. F. Izmaylov, J. L. Sonnenberg, D. Williams-Young, 
 F. Ding, F. Lipparini, F. Egidi, J. Goings, B. Peng, A. Petrone, 
 T. Henderson, D. Ranasinghe, V. G. Zakrzewski, J. Gao, N. Rega, 
 G. Zheng, W. Liang, M. Hada, M. Ehara, K. Toyota, R. Fukuda, 
 J. Hasegawa, M. Ishida, T. Nakajima, Y. Honda, O. Kitao, H. Nakai, 
 T. Vreven, K. Throssell, J. A. Montgomery, Jr., J. E. Peralta, 
 F. Ogliaro, M. J. Bearpark, J. J. Heyd, E. N. Brothers, K. N. Kudin, 
 V. N. Staroverov, T. A. Keith, R. Kobayashi, J. Normand, 
 K. Raghavachari, A. P. Rendell, J. C. Burant, S. S. Iyengar, 
 J. Tomasi, M. Cossi, J. M. Millam, M. Klene, C. Adamo, R. Cammi, 
 J. W. Ochterski, R. L. Martin, K. Morokuma, O. Farkas, 
 J. B. Foresman, and D. J. Fox, Gaussian, Inc., Wallingford CT, 2019.
 
 ******************************************
 Gaussian 16:  AS64L-G16RevC.01  3-Jul-2019
                23-Jun-2021 
 ******************************************
 %nprocshared=4
 Will use up to    4 processors via shared memory.
 %chk=FuncsCAM-B3LYP-V-3rd.chk
 %Mem=3GB
 ---------------------------------------------------------------
 # td= (nstates=6, root=3) CAM-B3LYP/6-31+G* Opt density=current
 ---------------------------------------------------------------
 1/18=20,19=15,26=3,38=1/1,3;
 2/9=110,12=2,17=6,18=5,40=1/2;
 3/5=1,6=6,7=11,11=9,25=1,30=1,71=1,74=-40/1,2,3,8;
 4//1;
 5/5=2,38=5/2;
 8/6=1,10=2,107=3,108=6/1;
 9/8=3,15=2,41=6,42=1,70=2/14;
 10/5=4,28=3/2;
 6/7=2,8=2,9=2,10=2,22=-1/1;
 7/12=6,13=5,14=3/1,2,3,16;
 1/18=20,19=15,26=3/3(2);
 2/9=110/2;
 99//99;
 2/9=110/2;
 3/5=1,6=6,7=11,11=9,25=1,30=1,71=1,74=-40/1,2,3,8;
 4/5=5,16=3,69=1/1;
 5/5=2,38=5/2;
 8/6=1,10=2,107=3,108=6/1;
 9/8=3,15=2,41=6,42=1,49=4,70=2/14;
 10/5=4,28=3/2;
 7/12=6,13=5,14=3/1,2,3,16;
 1/18=20,19=15,26=3/3(-8);
 2/9=110/2;
 6/7=2,8=2,9=2,10=2,22=-1/1;
 99/9=10/99;
 --------------------
 FuncsCAM-B3LYP-V-3rd
 --------------------
 Symbolic Z-matrix:
 Charge =  0 Multiplicity = 1
 C                    -2.15106   0.68921   0.00009 
 C                    -2.12793  -0.71582   0.00008 
 C                    -0.9323   -1.4131   -0.00001 
 C                     0.24691  -0.6702   -0.00004 
 C                     0.24819   0.7483    0. 
 C                    -0.97947   1.42353   0.00003 
 N                     1.56177  -1.07759  -0.00029 
 C                     1.62013   1.1629   -0.00016 
 C                     2.38201   0.03081   0.00025 
 H                     1.87632  -2.03001   0.00044 
 H                     1.99217   2.17301  -0.00035 
 H                     3.45255  -0.08243   0.00041 
 H                    -3.06159  -1.26202   0.00009 
 H                    -0.91725  -2.49534  -0.00007 
 H                    -3.1042    1.20079   0.00009 
 H                    -1.00935   2.50542  -0.00002 
 

 GradGradGradGradGradGradGradGradGradGradGradGradGradGradGradGradGradGrad
 Berny optimization.
 Initialization pass.
                           ----------------------------
                           !    Initial Parameters    !
                           ! (Angstroms and Degrees)  !
 --------------------------                            --------------------------
 ! Name  Definition              Value          Derivative Info.                !
 --------------------------------------------------------------------------------
 ! R1    R(1,2)                  1.4052         estimate D2E/DX2                !
 ! R2    R(1,6)                  1.3827         estimate D2E/DX2                !
 ! R3    R(1,15)                 1.0818         estimate D2E/DX2                !
 ! R4    R(2,3)                  1.3841         estimate D2E/DX2                !
 ! R5    R(2,13)                 1.0817         estimate D2E/DX2                !
 ! R6    R(3,4)                  1.3937         estimate D2E/DX2                !
 ! R7    R(3,14)                 1.0823         estimate D2E/DX2                !
 ! R8    R(4,5)                  1.4185         estimate D2E/DX2                !
 ! R9    R(4,7)                  1.3765         estimate D2E/DX2                !
 ! R10   R(5,6)                  1.4011         estimate D2E/DX2                !
 ! R11   R(5,8)                  1.4332         estimate D2E/DX2                !
 ! R12   R(6,16)                 1.0823         estimate D2E/DX2                !
 ! R13   R(7,9)                  1.3789         estimate D2E/DX2                !
 ! R14   R(7,10)                 1.003          estimate D2E/DX2                !
 ! R15   R(8,9)                  1.3646         estimate D2E/DX2                !
 ! R16   R(8,11)                 1.0764         estimate D2E/DX2                !
 ! R17   R(9,12)                 1.0765         estimate D2E/DX2                !
 ! A1    A(2,1,6)              121.1349         estimate D2E/DX2                !
 ! A2    A(2,1,15)             119.1671         estimate D2E/DX2                !
 ! A3    A(6,1,15)             119.698          estimate D2E/DX2                !
 ! A4    A(1,2,3)              121.1938         estimate D2E/DX2                !
 ! A5    A(1,2,13)             119.3846         estimate D2E/DX2                !
 ! A6    A(3,2,13)             119.4217         estimate D2E/DX2                !
 ! A7    A(2,3,4)              117.5387         estimate D2E/DX2                !
 ! A8    A(2,3,14)             121.0469         estimate D2E/DX2                !
 ! A9    A(4,3,14)             121.4144         estimate D2E/DX2                !
 ! A10   A(3,4,5)              122.2626         estimate D2E/DX2                !
 ! A11   A(3,4,7)              130.5743         estimate D2E/DX2                !
 ! A12   A(5,4,7)              107.163          estimate D2E/DX2                !
 ! A13   A(4,5,6)              118.7594         estimate D2E/DX2                !
 ! A14   A(4,5,8)              106.8666         estimate D2E/DX2                !
 ! A15   A(6,5,8)              134.374          estimate D2E/DX2                !
 ! A16   A(1,6,5)              119.1105         estimate D2E/DX2                !
 ! A17   A(1,6,16)             120.4966         estimate D2E/DX2                !
 ! A18   A(5,6,16)             120.3928         estimate D2E/DX2                !
 ! A19   A(4,7,9)              109.2874         estimate D2E/DX2                !
 ! A20   A(4,7,10)             125.4909         estimate D2E/DX2                !
 ! A21   A(9,7,10)             125.2217         estimate D2E/DX2                !
 ! A22   A(5,8,9)              107.125          estimate D2E/DX2                !
 ! A23   A(5,8,11)             127.0344         estimate D2E/DX2                !
 ! A24   A(9,8,11)             125.8405         estimate D2E/DX2                !
 ! A25   A(7,9,8)              109.5578         estimate D2E/DX2                !
 ! A26   A(7,9,12)             120.4645         estimate D2E/DX2                !
 ! A27   A(8,9,12)             129.9776         estimate D2E/DX2                !
 ! D1    D(6,1,2,3)             -0.0008         estimate D2E/DX2                !
 ! D2    D(6,1,2,13)          -179.9981         estimate D2E/DX2                !
 ! D3    D(15,1,2,3)           179.996          estimate D2E/DX2                !
 ! D4    D(15,1,2,13)           -0.0013         estimate D2E/DX2                !
 ! D5    D(2,1,6,5)             -0.0018         estimate D2E/DX2                !
 ! D6    D(2,1,6,16)           179.9965         estimate D2E/DX2                !
 ! D7    D(15,1,6,5)          -179.9986         estimate D2E/DX2                !
 ! D8    D(15,1,6,16)           -0.0003         estimate D2E/DX2                !
 ! D9    D(1,2,3,4)              0.002          estimate D2E/DX2                !
 ! D10   D(1,2,3,14)          -179.9968         estimate D2E/DX2                !
 ! D11   D(13,2,3,4)           179.9992         estimate D2E/DX2                !
 ! D12   D(13,2,3,14)            0.0005         estimate D2E/DX2                !
 ! D13   D(2,3,4,5)             -0.0005         estimate D2E/DX2                !
 ! D14   D(2,3,4,7)           -179.9911         estimate D2E/DX2                !
 ! D15   D(14,3,4,5)           179.9982         estimate D2E/DX2                !
 ! D16   D(14,3,4,7)             0.0076         estimate D2E/DX2                !
 ! D17   D(3,4,5,6)             -0.002          estimate D2E/DX2                !
 ! D18   D(3,4,5,8)           -179.9955         estimate D2E/DX2                !
 ! D19   D(7,4,5,6)            179.9905         estimate D2E/DX2                !
 ! D20   D(7,4,5,8)             -0.003          estimate D2E/DX2                !
 ! D21   D(3,4,7,9)           -179.98           estimate D2E/DX2                !
 ! D22   D(3,4,7,10)            -0.0649         estimate D2E/DX2                !
 ! D23   D(5,4,7,9)              0.0284         estimate D2E/DX2                !
 ! D24   D(5,4,7,10)           179.9434         estimate D2E/DX2                !
 ! D25   D(4,5,6,1)              0.0031         estimate D2E/DX2                !
 ! D26   D(4,5,6,16)          -179.9951         estimate D2E/DX2                !
 ! D27   D(8,5,6,1)            179.9944         estimate D2E/DX2                !
 ! D28   D(8,5,6,16)            -0.0038         estimate D2E/DX2                !
 ! D29   D(4,5,8,9)             -0.0234         estimate D2E/DX2                !
 ! D30   D(4,5,8,11)           179.9883         estimate D2E/DX2                !
 ! D31   D(6,5,8,9)            179.9846         estimate D2E/DX2                !
 ! D32   D(6,5,8,11)            -0.0037         estimate D2E/DX2                !
 ! D33   D(4,7,9,8)             -0.0444         estimate D2E/DX2                !
 ! D34   D(4,7,9,12)           179.9847         estimate D2E/DX2                !
 ! D35   D(10,7,9,8)          -179.9597         estimate D2E/DX2                !
 ! D36   D(10,7,9,12)            0.0693         estimate D2E/DX2                !
 ! D37   D(5,8,9,7)              0.0414         estimate D2E/DX2                !
 ! D38   D(5,8,9,12)          -179.9913         estimate D2E/DX2                !
 ! D39   D(11,8,9,7)          -179.9702         estimate D2E/DX2                !
 ! D40   D(11,8,9,12)           -0.0029         estimate D2E/DX2                !
 --------------------------------------------------------------------------------
 Trust Radius=3.00D-01 FncErr=1.00D-07 GrdErr=1.00D-06 EigMax=2.50D+02 EigMin=1.00D-04
 Number of steps in this run=     94 maximum allowed number of steps=    100.
 GradGradGradGradGradGradGradGradGradGradGradGradGradGradGradGradGradGrad

                          Input orientation:                          
 ---------------------------------------------------------------------
 Center     Atomic      Atomic             Coordinates (Angstroms)
 Number     Number       Type             X           Y           Z
 ---------------------------------------------------------------------
      1          6           0       -2.151063    0.689208    0.000088
      2          6           0       -2.127927   -0.715818    0.000075
      3          6           0       -0.932297   -1.413100   -0.000011
      4          6           0        0.246911   -0.670201   -0.000042
      5          6           0        0.248193    0.748299    0.000000
      6          6           0       -0.979474    1.423526    0.000032
      7          7           0        1.561774   -1.077592   -0.000285
      8          6           0        1.620133    1.162900   -0.000157
      9          6           0        2.382013    0.030806    0.000248
     10          1           0        1.876315   -2.030011    0.000438
     11          1           0        1.992173    2.173010   -0.000348
     12          1           0        3.452549   -0.082425    0.000408
     13          1           0       -3.061594   -1.262020    0.000088
     14          1           0       -0.917252   -2.495342   -0.000073
     15          1           0       -3.104203    1.200785    0.000090
     16          1           0       -1.009348    2.505421   -0.000015
 ---------------------------------------------------------------------
                    Distance matrix (angstroms):
                    1          2          3          4          5
     1  C    0.000000
     2  C    1.405216   0.000000
     3  C    2.430039   1.384100   0.000000
     4  C    2.756496   2.375276   1.393711   0.000000
     5  C    2.399984   2.790983   2.462763   1.418501   0.000000
     6  C    1.382694   2.428114   2.837018   2.426461   1.401106
     7  N    4.111781   3.707395   2.516536   1.376529   2.249305
     8  C    3.800829   4.192557   3.626386   2.290414   1.433218
     9  C    4.580641   4.571324   3.615178   2.247236   2.251218
    10  H    4.859416   4.214387   2.875566   2.122273   3.220216
    11  H    4.400917   5.031953   4.627387   3.336134   2.251948
    12  H    5.656491   5.616307   4.582311   3.259079   3.310287
    13  H    2.153220   1.081698   2.134650   3.361020   3.872476
    14  H    3.415208   2.152310   1.082347   2.164813   3.446661
    15  H    1.081752   2.150926   3.398466   3.838040   3.382795
    16  H    2.145261   3.409927   3.919278   3.415079   2.160761
                    6          7          8          9         10
     6  C    0.000000
     7  N    3.565604   0.000000
     8  C    2.612639   2.241252   0.000000
     9  C    3.638580   1.378890   1.364587   0.000000
    10  H    4.481345   1.003015   3.203172   2.121956   0.000000
    11  H    3.064704   3.278972   1.076446   2.177387   4.204618
    12  H    4.680888   2.136677   2.215532   1.076508   2.505515
    13  H    3.398144   4.627045   5.272457   5.595021   4.997275
    14  H    3.919362   2.855798   4.452085   4.155307   2.832058
    15  H    2.136372   5.192528   4.724488   5.609583   5.936632
    16  H    1.082307   4.410062   2.952378   4.198220   5.375611
                   11         12         13         14         15
    11  H    0.000000
    12  H    2.686947   0.000000
    13  H    6.110646   6.620083   0.000000
    14  H    5.500751   4.991726   2.473719   0.000000
    15  H    5.188282   6.681139   2.463174   4.294661   0.000000
    16  H    3.019872   5.158049   4.290143   5.001611   2.467892
                   16
    16  H    0.000000
 Stoichiometry    C8H7N
 Framework group  C1[X(C8H7N)]
 Deg. of freedom    42
 Full point group                 C1      NOp   1
 Largest Abelian subgroup         C1      NOp   1
 Largest concise Abelian subgroup C1      NOp   1
                         Standard orientation:                         
 ---------------------------------------------------------------------
 Center     Atomic      Atomic             Coordinates (Angstroms)
 Number     Number       Type             X           Y           Z
 ---------------------------------------------------------------------
      1          6           0       -2.151063    0.689208    0.000088
      2          6           0       -2.127927   -0.715818    0.000075
      3          6           0       -0.932297   -1.413100   -0.000011
      4          6           0        0.246911   -0.670201   -0.000042
      5          6           0        0.248193    0.748299    0.000000
      6          6           0       -0.979474    1.423526    0.000032
      7          7           0        1.561774   -1.077592   -0.000285
      8          6           0        1.620133    1.162900   -0.000157
      9          6           0        2.382013    0.030806    0.000248
     10          1           0        1.876315   -2.030011    0.000438
     11          1           0        1.992173    2.173010   -0.000348
     12          1           0        3.452549   -0.082425    0.000408
     13          1           0       -3.061594   -1.262020    0.000088
     14          1           0       -0.917252   -2.495342   -0.000073
     15          1           0       -3.104203    1.200785    0.000090
     16          1           0       -1.009348    2.505421   -0.000015
 ---------------------------------------------------------------------
 Rotational constants (GHZ):           3.9080822           1.6429452           1.1566805
 Standard basis: 6-31+G(d) (6D, 7F)
 There are   185 symmetry adapted cartesian basis functions of A   symmetry.
 There are   185 symmetry adapted basis functions of A   symmetry.
   185 basis functions,   316 primitive gaussians,   185 cartesian basis functions
    31 alpha electrons       31 beta electrons
       nuclear repulsion energy       401.3368668897 Hartrees.
 NAtoms=   16 NActive=   16 NUniq=   16 SFac= 1.00D+00 NAtFMM=   60 NAOKFM=F Big=F
 Integral buffers will be    131072 words long.
 Raffenetti 1 integral format.
 Two-electron integral symmetry is turned on.
 One-electron integrals computed using PRISM.
 NBasis=   185 RedAO= T EigKep=  1.26D-06  NBF=   185
 NBsUse=   185 1.00D-06 EigRej= -1.00D+00 NBFU=   185
 ExpMin= 4.38D-02 ExpMax= 4.17D+03 ExpMxC= 6.27D+02 IAcc=3 IRadAn=         5 AccDes= 0.00D+00
 Harris functional with IExCor=20419 and IRadAn=       5 diagonalized for initial guess.
 HarFok:  IExCor=20419 AccDes= 0.00D+00 IRadAn=         5 IDoV= 1 UseB2=F ITyADJ=14
 ICtDFT=  3500011 ScaDFX=  1.000000  1.000000  1.000000  1.000000
 FoFCou: FMM=F IPFlag=           0 FMFlag=      100000 FMFlg1=           0
         NFxFlg=           0 DoJE=T BraDBF=F KetDBF=T FulRan=T
         wScrn=  0.000000 ICntrl=       500 IOpCl=  0 I1Cent=   200000004 NGrid=           0
         NMat0=    1 NMatS0=      1 NMatT0=    0 NMatD0=    1 NMtDS0=    0 NMtDT0=    0
 Petite list used in FoFCou.
 Keep R1 ints in memory in canonical form, NReq=303303409.
 Requested convergence on RMS density matrix=1.00D-08 within 128 cycles.
 Requested convergence on MAX density matrix=1.00D-06.
 Requested convergence on             energy=1.00D-06.
 No special actions if energy rises.
 SCF Done:  E(RCAM-B3LYP) =  -363.624676885     A.U. after   15 cycles
            NFock= 15  Conv=0.75D-08     -V/T= 2.0091
 DoSCS=F DFT=T ScalE2(SS,OS)=  1.000000  1.000000
 ExpMin= 4.38D-02 ExpMax= 4.17D+03 ExpMxC= 6.27D+02 IAcc=3 IRadAn=         5 AccDes= 0.00D+00
 HarFok:  IExCor=  205 AccDes= 0.00D+00 IRadAn=         5 IDoV=-2 UseB2=F ITyADJ=14
 ICtDFT= 12500011 ScaDFX=  1.000000  1.000000  1.000000  1.000000
 Range of M.O.s used for correlation:    10   185
 NBasis=   185 NAE=    31 NBE=    31 NFC=     9 NFV=     0
 NROrb=    176 NOA=    22 NOB=    22 NVA=   154 NVB=   154

 **** Warning!!: The largest alpha MO coefficient is  0.20756582D+03

 Orbital symmetries:
       Occupied  (A) (A) (A) (A) (A) (A) (A) (A) (A) (A) (A) (A)
                 (A) (A) (A) (A) (A) (A) (A) (A) (A) (A) (A) (A)
                 (A) (A) (A) (A) (A) (A) (A)
       Virtual   (A) (A) (A) (A) (A) (A) (A) (A) (A) (A) (A) (A)
                 (A) (A) (A) (A) (A) (A) (A) (A) (A) (A) (A) (A)
                 (A) (A) (A) (A) (A) (A) (A) (A) (A) (A) (A) (A)
                 (A) (A) (A) (A) (A) (A) (A) (A) (A) (A) (A) (A)
                 (A) (A) (A) (A) (A) (A) (A) (A) (A) (A) (A) (A)
                 (A) (A) (A) (A) (A) (A) (A) (A) (A) (A) (A) (A)
                 (A) (A) (A) (A) (A) (A) (A) (A) (A) (A) (A) (A)
                 (A) (A) (A) (A) (A) (A) (A) (A) (A) (A) (A) (A)
                 (A) (A) (A) (A) (A) (A) (A) (A) (A) (A) (A) (A)
                 (A) (A) (A) (A) (A) (A) (A) (A) (A) (A) (A) (A)
                 (A) (A) (A) (A) (A) (A) (A) (A) (A) (A) (A) (A)
                 (A) (A) (A) (A) (A) (A) (A) (A) (A) (A) (A) (A)
                 (A) (A) (A) (A) (A) (A) (A) (A) (A) (A)
    24 initial guesses have been made.
 Convergence on wavefunction:    0.000001000000000
 Iteration     1 Dimension    24 NMult     0 NNew     24
 CISAX will form    24 AO SS matrices at one time.
 New state      2 was old state      4
 New state      3 was old state      2
 New state      4 was old state      3
 Iteration     2 Dimension    36 NMult    24 NNew     12
 New state      1 was old state      2
 New state      2 was old state      3
 New state      3 was old state      1
 Iteration     3 Dimension    48 NMult    36 NNew     12
 Iteration     4 Dimension    60 NMult    48 NNew     12
 Iteration     5 Dimension    72 NMult    60 NNew     12
 Iteration     6 Dimension    84 NMult    72 NNew     12
 Iteration     7 Dimension    96 NMult    84 NNew     12
 Iteration     8 Dimension   108 NMult    96 NNew     12
 Iteration     9 Dimension   120 NMult   108 NNew     12
 Iteration    10 Dimension   126 NMult   120 NNew      6
 Iteration    11 Dimension   130 NMult   126 NNew      4
 ***********************************************************************
 Excited states from <AA,BB:AA,BB> singles matrix:
 ***********************************************************************
 
 Ground to excited state transition densities written to RWF  633
 Ground to excited state transition electric dipole moments (Au):
       state          X           Y           Z        Dip. S.      Osc.
         1        -0.0609      0.6010     -0.0001      0.3649      0.0452
         2         0.8731     -0.3508      0.0003      0.8854      0.1107
         3         0.0011     -0.0008     -0.1552      0.0241      0.0031
         4        -0.0005     -0.0000     -0.1658      0.0275      0.0039
         5         0.0005     -0.0000     -0.0108      0.0001      0.0000
         6         0.0010      0.0003      0.1219      0.0149      0.0022
 Ground to excited state transition velocity dipole moments (Au):
       state          X           Y           Z        Dip. S.      Osc.
         1         0.0077     -0.1193      0.0000      0.0143      0.0512
         2        -0.1524      0.0711     -0.0000      0.0283      0.1005
         3        -0.0002      0.0002      0.0202      0.0004      0.0014
         4         0.0001      0.0000      0.0368      0.0014      0.0042
         5        -0.0001     -0.0000      0.0027      0.0000      0.0000
         6        -0.0002     -0.0001     -0.0267      0.0007      0.0022
 Ground to excited state transition magnetic dipole moments (Au):
       state          X           Y           Z
         1         0.0003      0.0001      0.1759
         2        -0.0002      0.0003     -0.0518
         3         0.1421     -0.0938     -0.0001
         4         0.0898     -0.3078     -0.0001
         5         0.2953     -0.2529      0.0002
         6         0.2520      0.3539      0.0008
 Ground to excited state transition velocity quadrupole moments (Au):
       state          XX          YY          ZZ          XY          XZ          YZ
         1         0.1280     -0.0197     -0.0051      0.0270      0.0000      0.0001
         2        -0.2097      0.1810     -0.0299     -0.0041     -0.0002     -0.0001
         3        -0.0004      0.0002      0.0001     -0.0000      0.0804      0.0670
         4         0.0000      0.0000      0.0000     -0.0000      0.2233      0.0318
         5        -0.0003      0.0000      0.0000      0.0002      0.2982      0.2951
         6        -0.0000     -0.0001      0.0001      0.0005     -0.2877      0.1299
 <0|del|b> * <b|rxdel|0> + <0|del|b> * <b|delr+rdel|0>
 Rotatory Strengths (R) in cgs (10**-40 erg-esu-cm/Gauss)
       state          XX          YY          ZZ    R(velocity)    E-M Angle
         1        -0.0001      0.0086     -0.0181     -0.0032       90.00
         2         0.0743      0.0969      0.0599      0.0770       90.00
         3        -0.0566     -0.0762     -0.0308     -0.0545       90.00
         4        -0.0076      0.0170      0.0100      0.0065       90.00
         5         0.0048     -0.1094     -0.0003     -0.0350       90.00
         6        -0.1091     -0.1434     -0.0468     -0.0998       90.00
 1/2[<0|r|b>*<b|rxdel|0> + (<0|rxdel|b>*<b|r|0>)*]
 Rotatory Strengths (R) in cgs (10**-40 erg-esu-cm/Gauss)
       state          XX          YY          ZZ     R(length)
         1         0.0130     -0.0231      0.0118      0.0006
         2         0.1537      0.0735      0.0111      0.0794
         3        -0.1134     -0.0537     -0.0076     -0.0582
         4         0.0304     -0.0045     -0.0107      0.0051
         5        -0.1125     -0.0008      0.0014     -0.0373
         6        -0.1802     -0.0754     -0.0698     -0.1085
  1/2[<0|del|b>*<b|r|0> + (<0|r|b>*<b|del|0>)*] (Au)
       state          X           Y           Z        Dip. S.   Osc.(frdel)
         1        -0.0005     -0.0717     -0.0000      0.0721      0.0481
         2        -0.1331     -0.0249     -0.0000      0.1580      0.1054
         3        -0.0000     -0.0000     -0.0031      0.0031      0.0021
         4        -0.0000     -0.0000     -0.0061      0.0061      0.0041
         5        -0.0000      0.0000     -0.0000      0.0000      0.0000
         6        -0.0000     -0.0000     -0.0033      0.0033      0.0022

 Excitation energies and oscillator strengths:
 
 Excited State   1:      Singlet-A      5.0595 eV  245.05 nm  f=0.0452  <S**2>=0.000
      30 -> 33         0.47238
      30 -> 37         0.12346
      31 -> 33        -0.42030
      31 -> 37         0.25318
 
 Excited State   2:      Singlet-A      5.1055 eV  242.85 nm  f=0.1107  <S**2>=0.000
      30 -> 33         0.34978
      30 -> 37        -0.14764
      31 -> 33         0.52274
      31 -> 37         0.26063
 
 Excited State   3:      Singlet-A      5.2852 eV  234.59 nm  f=0.0031  <S**2>=0.000
      31 -> 32         0.68599
 This state for optimization and/or second-order correction.
 Total Energy, E(TD-HF/TD-DFT) =  -363.430447648    
 Copying the excited state density for this state as the 1-particle RhoCI density.
 
 Excited State   4:      Singlet-A      5.7774 eV  214.60 nm  f=0.0039  <S**2>=0.000
      30 -> 32         0.64403
      31 -> 34         0.19448
 
 Excited State   5:      Singlet-A      5.9441 eV  208.59 nm  f=0.0000  <S**2>=0.000
      30 -> 32        -0.21098
      31 -> 34         0.62203
      31 -> 35        -0.17443
 
 Excited State   6:      Singlet-A      5.9906 eV  206.96 nm  f=0.0022  <S**2>=0.000
      31 -> 34         0.18522
      31 -> 35         0.63880
      31 -> 36         0.11632
 SavETr:  write IOETrn=   770 NScale= 10 NData=  16 NLR=1 NState=    6 LETran=     118.
          IDoAtm=1111111111111111
          Differentiating once with respect to electric field.
                with respect to dipole field.
          Differentiating once with respect to nuclear coordinates.
 Keep R1 ints in memory in canonical form, NReq=303315801.
          There are     1 degrees of freedom in the 1st order CPHF.  IDoFFX=0 NUNeed=     1.
 LinEq1:  Iter=  0 NonCon=     1 RMS=9.44D-03 Max=1.35D-01 NDo=     1
 AX will form     1 AO Fock derivatives at one time.
 LinEq1:  Iter=  1 NonCon=     1 RMS=3.41D-03 Max=8.35D-02 NDo=     1
 LinEq1:  Iter=  2 NonCon=     1 RMS=2.11D-03 Max=7.59D-02 NDo=     1
 LinEq1:  Iter=  3 NonCon=     1 RMS=8.26D-04 Max=1.67D-02 NDo=     1
 LinEq1:  Iter=  4 NonCon=     1 RMS=4.28D-04 Max=8.80D-03 NDo=     1
 LinEq1:  Iter=  5 NonCon=     1 RMS=1.88D-04 Max=4.00D-03 NDo=     1
 LinEq1:  Iter=  6 NonCon=     1 RMS=1.02D-04 Max=3.16D-03 NDo=     1
 LinEq1:  Iter=  7 NonCon=     1 RMS=5.35D-05 Max=1.60D-03 NDo=     1
 LinEq1:  Iter=  8 NonCon=     1 RMS=1.21D-05 Max=2.06D-04 NDo=     1
 LinEq1:  Iter=  9 NonCon=     1 RMS=5.77D-06 Max=1.27D-04 NDo=     1
 LinEq1:  Iter= 10 NonCon=     1 RMS=2.26D-06 Max=2.68D-05 NDo=     1
 LinEq1:  Iter= 11 NonCon=     1 RMS=9.34D-07 Max=1.85D-05 NDo=     1
 LinEq1:  Iter= 12 NonCon=     1 RMS=4.43D-07 Max=1.02D-05 NDo=     1
 LinEq1:  Iter= 13 NonCon=     1 RMS=1.29D-07 Max=2.76D-06 NDo=     1
 LinEq1:  Iter= 14 NonCon=     1 RMS=6.81D-08 Max=9.55D-07 NDo=     1
 LinEq1:  Iter= 15 NonCon=     1 RMS=1.99D-08 Max=4.00D-07 NDo=     1
 LinEq1:  Iter= 16 NonCon=     1 RMS=4.80D-09 Max=1.12D-07 NDo=     1
 LinEq1:  Iter= 17 NonCon=     1 RMS=2.27D-09 Max=3.72D-08 NDo=     1
 LinEq1:  Iter= 18 NonCon=     1 RMS=9.29D-10 Max=1.85D-08 NDo=     1
 LinEq1:  Iter= 19 NonCon=     1 RMS=2.16D-10 Max=2.38D-09 NDo=     1
 LinEq1:  Iter= 20 NonCon=     1 RMS=6.10D-11 Max=1.24D-09 NDo=     1
 LinEq1:  Iter= 21 NonCon=     0 RMS=3.22D-11 Max=3.07D-10 NDo=     1
 Linear equations converged to 1.000D-10 1.000D-09 after    21 iterations.
 End of Minotr F.D. properties file   721 does not exist.
 End of Minotr F.D. properties file   722 does not exist.
 End of Minotr F.D. properties file   788 does not exist.

 **********************************************************************

            Population analysis using the CI Density.

 **********************************************************************

 Orbital symmetries:
       Occupied  (A) (A) (A) (A) (A) (A) (A) (A) (A) (A) (A) (A)
                 (A) (A) (A) (A) (A) (A) (A) (A) (A) (A) (A) (A)
                 (A) (A) (A) (A) (A) (A) (A)
       Virtual   (A) (A) (A) (A) (A) (A) (A) (A) (A) (A) (A) (A)
                 (A) (A) (A) (A) (A) (A) (A) (A) (A) (A) (A) (A)
                 (A) (A) (A) (A) (A) (A) (A) (A) (A) (A) (A) (A)
                 (A) (A) (A) (A) (A) (A) (A) (A) (A) (A) (A) (A)
                 (A) (A) (A) (A) (A) (A) (A) (A) (A) (A) (A) (A)
                 (A) (A) (A) (A) (A) (A) (A) (A) (A) (A) (A) (A)
                 (A) (A) (A) (A) (A) (A) (A) (A) (A) (A) (A) (A)
                 (A) (A) (A) (A) (A) (A) (A) (A) (A) (A) (A) (A)
                 (A) (A) (A) (A) (A) (A) (A) (A) (A) (A) (A) (A)
                 (A) (A) (A) (A) (A) (A) (A) (A) (A) (A) (A) (A)
                 (A) (A) (A) (A) (A) (A) (A) (A) (A) (A) (A) (A)
                 (A) (A) (A) (A) (A) (A) (A) (A) (A) (A) (A) (A)
                 (A) (A) (A) (A) (A) (A) (A) (A) (A) (A)
 The electronic state is 1-A.
 Alpha  occ. eigenvalues --  -14.45747 -10.29795 -10.29500 -10.26497 -10.26010
 Alpha  occ. eigenvalues --  -10.25982 -10.25948 -10.25429 -10.25125  -1.06883
 Alpha  occ. eigenvalues --   -0.92649  -0.86751  -0.81881  -0.80023  -0.70325
 Alpha  occ. eigenvalues --   -0.67227  -0.65912  -0.61567  -0.55519  -0.54408
 Alpha  occ. eigenvalues --   -0.50768  -0.50010  -0.49701  -0.48101  -0.46004
 Alpha  occ. eigenvalues --   -0.42191  -0.40410  -0.40048  -0.34219  -0.27753
 Alpha  occ. eigenvalues --   -0.26016
 Alpha virt. eigenvalues --    0.02448   0.02472   0.04292   0.04765   0.06221
 Alpha virt. eigenvalues --    0.06311   0.06376   0.08060   0.08584   0.09076
 Alpha virt. eigenvalues --    0.09139   0.09387   0.11270   0.12002   0.13052
 Alpha virt. eigenvalues --    0.13185   0.14067   0.15441   0.16725   0.16816
 Alpha virt. eigenvalues --    0.18252   0.18592   0.19464   0.19885   0.20320
 Alpha virt. eigenvalues --    0.21691   0.21861   0.21871   0.22883   0.23596
 Alpha virt. eigenvalues --    0.24008   0.24955   0.25083   0.26083   0.26491
 Alpha virt. eigenvalues --    0.27031   0.27371   0.27979   0.29141   0.29603
 Alpha virt. eigenvalues --    0.30774   0.30969   0.32381   0.33831   0.35122
 Alpha virt. eigenvalues --    0.36019   0.36085   0.37699   0.39825   0.41976
 Alpha virt. eigenvalues --    0.43001   0.45417   0.49787   0.50632   0.57180
 Alpha virt. eigenvalues --    0.64350   0.68785   0.72881   0.73176   0.75498
 Alpha virt. eigenvalues --    0.77290   0.77656   0.79018   0.79269   0.80120
 Alpha virt. eigenvalues --    0.80958   0.81623   0.83464   0.84943   0.85850
 Alpha virt. eigenvalues --    0.87469   0.91142   0.95134   0.95816   0.96994
 Alpha virt. eigenvalues --    0.99369   1.00068   1.01105   1.02026   1.04228
 Alpha virt. eigenvalues --    1.06239   1.08863   1.10595   1.12323   1.15493
 Alpha virt. eigenvalues --    1.17459   1.18062   1.23161   1.24350   1.26944
 Alpha virt. eigenvalues --    1.28503   1.31034   1.31703   1.38232   1.39728
 Alpha virt. eigenvalues --    1.41693   1.43226   1.48234   1.49152   1.51587
 Alpha virt. eigenvalues --    1.53772   1.54323   1.57499   1.58118   1.60268
 Alpha virt. eigenvalues --    1.65599   1.71959   1.86243   1.91877   1.95872
 Alpha virt. eigenvalues --    1.97013   1.99461   2.01318   2.07034   2.07338
 Alpha virt. eigenvalues --    2.08490   2.13973   2.17604   2.21818   2.24897
 Alpha virt. eigenvalues --    2.25464   2.27427   2.33029   2.34162   2.34664
 Alpha virt. eigenvalues --    2.36207   2.39032   2.46281   2.49098   2.52268
 Alpha virt. eigenvalues --    2.62517   2.64230   2.71387   2.73525   2.75334
 Alpha virt. eigenvalues --    2.77720   2.81308   2.88750   2.92381   2.93595
 Alpha virt. eigenvalues --    3.03352   3.05673   3.19453   3.32160   3.52935
 Alpha virt. eigenvalues --    4.22050   4.32663   4.35646   4.39182   4.42791
 Alpha virt. eigenvalues --    4.46500   4.54802   4.58767   4.85958
          Condensed to atoms (all electrons):
               1          2          3          4          5          6
     1  C   21.319542   6.344629  -0.677160 -16.063637  -6.769252 -12.362609
     2  C    6.344629  21.616974   6.281908 -23.343814   9.537286 -22.833966
     3  C   -0.677160   6.281908  23.522742 -16.245475   4.946807 -14.742061
     4  C  -16.063637 -23.343814 -16.245475  89.595198 -24.502542  33.676913
     5  C   -6.769252   9.537286   4.946807 -24.502542  73.791574 -25.067369
     6  C  -12.362609 -22.833966 -14.742061  33.676913 -25.067369  56.330361
     7  N   -0.561894  -0.713329  -0.451859   5.693831  -3.971407   1.217823
     8  C   23.426985  15.566658   5.314767 -78.363938 -40.263075 -13.482043
     9  C   -8.786997  -6.012491  -1.822661  35.605258  16.817856   3.113749
    10  H    0.003287  -0.030907  -0.303462  -0.073340   0.744509   0.026697
    11  H   -0.000973  -0.000624   0.007703   0.051819  -0.012074  -0.043446
    12  H    0.004375   0.000441   0.028209   0.080073  -0.144825  -0.006565
    13  H    0.029347   0.223304  -0.086797   0.127944  -0.087401   0.108603
    14  H    0.014938  -0.010261   0.186606   0.087751   0.024526  -0.000030
    15  H    0.336663   0.052772   0.026962  -0.054681   0.048446  -0.110528
    16  H   -0.072691  -0.030225  -0.046456   0.111875   0.115949   0.344853
               7          8          9         10         11         12
     1  C   -0.561894  23.426985  -8.786997   0.003287  -0.000973   0.004375
     2  C   -0.713329  15.566658  -6.012491  -0.030907  -0.000624   0.000441
     3  C   -0.451859   5.314767  -1.822661  -0.303462   0.007703   0.028209
     4  C    5.693831 -78.363938  35.605258  -0.073340   0.051819   0.080073
     5  C   -3.971407 -40.263075  16.817856   0.744509  -0.012074  -0.144825
     6  C    1.217823 -13.482043   3.113749   0.026697  -0.043446  -0.006565
     7  N   13.399648 -20.739642  13.092641  -0.616460   0.005360  -0.061755
     8  C  -20.739642 232.617934-115.328000   1.509977   0.312836   0.311639
     9  C   13.092641-115.328000  67.522648  -1.048923  -0.015460   0.115351
    10  H   -0.616460   1.509977  -1.048923   0.394504  -0.000052   0.000276
    11  H    0.005360   0.312836  -0.015460  -0.000052   0.444979  -0.000724
    12  H   -0.061755   0.311639   0.115351   0.000276  -0.000724   0.393623
    13  H    0.002532  -0.022330   0.010056  -0.000016   0.000000  -0.000000
    14  H    0.002595  -0.020174   0.017921   0.000381   0.000001   0.000002
    15  H   -0.000259   0.015643  -0.003981   0.000000  -0.000001  -0.000000
    16  H    0.001084  -0.180443   0.046225  -0.000001   0.001231  -0.000002
              13         14         15         16
     1  C    0.029347   0.014938   0.336663  -0.072691
     2  C    0.223304  -0.010261   0.052772  -0.030225
     3  C   -0.086797   0.186606   0.026962  -0.046456
     4  C    0.127944   0.087751  -0.054681   0.111875
     5  C   -0.087401   0.024526   0.048446   0.115949
     6  C    0.108603  -0.000030  -0.110528   0.344853
     7  N    0.002532   0.002595  -0.000259   0.001084
     8  C   -0.022330  -0.020174   0.015643  -0.180443
     9  C    0.010056   0.017921  -0.003981   0.046225
    10  H   -0.000016   0.000381   0.000000  -0.000001
    11  H    0.000000   0.000001  -0.000001   0.001231
    12  H   -0.000000   0.000002  -0.000000  -0.000002
    13  H    0.480953  -0.003161  -0.003977  -0.000118
    14  H   -0.003161   0.439176  -0.000115   0.000014
    15  H   -0.003977  -0.000115   0.489264  -0.003812
    16  H   -0.000118   0.000014  -0.003812   0.489648
 Mulliken charges:
               1
     1  C   -0.184551
     2  C   -0.648355
     3  C    0.060228
     4  C   -0.383237
     5  C    0.790992
     6  C   -0.170382
     7  N    0.701092
     8  C   -4.676793
     9  C    2.676807
    10  H    0.393530
    11  H    0.249425
    12  H    0.279882
    13  H    0.221059
    14  H    0.259831
    15  H    0.207604
    16  H    0.222869
 Sum of Mulliken charges =  -0.00000
 Mulliken charges with hydrogens summed into heavy atoms:
               1
     1  C    0.023053
     2  C   -0.427296
     3  C    0.320059
     4  C   -0.383237
     5  C    0.790992
     6  C    0.052487
     7  N    1.094622
     8  C   -4.427368
     9  C    2.956689
 Electronic spatial extent (au):  <R**2>=           1038.8969
 Charge=             -0.0000 electrons
 Dipole moment (field-independent basis, Debye):
    X=             -5.6306    Y=              6.0506    Z=              0.0019  Tot=              8.2652
 Quadrupole moment (field-independent basis, Debye-Ang):
   XX=            -63.0112   YY=            -64.5724   ZZ=            -66.3806
   XY=             14.4465   XZ=              0.0019   YZ=             -0.0018
 Traceless Quadrupole moment (field-independent basis, Debye-Ang):
   XX=              1.6435   YY=              0.0824   ZZ=             -1.7259
   XY=             14.4465   XZ=              0.0019   YZ=             -0.0018
 Octapole moment (field-independent basis, Debye-Ang**2):
  XXX=           -107.1888  YYY=             73.2521  ZZZ=              0.0085  XYY=            -44.0106
  XXY=             45.7859  XXZ=              0.0034  XZZ=            -19.0388  YZZ=             18.3149
  YYZ=              0.0111  XYZ=              0.0021
 Hexadecapole moment (field-independent basis, Debye-Ang**3):
 XXXX=          -1309.3660 YYYY=           -700.2595 ZZZZ=           -145.2130 XXXY=            184.4039
 XXXZ=              0.0229 YYYX=            126.9202 YYYZ=             -0.0164 ZZZX=              0.0094
 ZZZY=             -0.0039 XXYY=           -344.4359 XXZZ=           -251.1494 YYZZ=           -152.5108
 XXYZ=              0.0108 YYXZ=             -0.0132 ZZXY=             34.6833
 N-N= 4.013368668897D+02 E-N=-1.641354061229D+03  KE= 3.602739247663D+02
 Calling FoFJK, ICntrl=  10005127 FMM=F ISym2X=0 I1Cent= 0 IOpClX= 0 NMat=1 NMatS=1 NMatT=0.
 ***** Axes restored to original set *****
 -------------------------------------------------------------------
 Center     Atomic                   Forces (Hartrees/Bohr)
 Number     Number              X              Y              Z
 -------------------------------------------------------------------
      1        6          -0.010196039   -0.013921093    0.000002121
      2        6          -0.012893647    0.024589729    0.000002633
      3        6           0.029826041   -0.006043587   -0.000019968
      4        6          -0.017385459    0.003688090    0.000000559
      5        6           0.001024985   -0.004126262   -0.000031749
      6        6           0.008538634    0.006274500   -0.000018570
      7        7           0.026625660    0.061015354    0.000097917
      8        6          -0.035464397    0.019725972    0.000048244
      9        6          -0.006120666   -0.067662401   -0.000103183
     10        1           0.012508445   -0.027228440   -0.000004828
     11        1           0.001943788    0.004285584    0.000004661
     12        1           0.003972839   -0.002823703    0.000006329
     13        1          -0.001845312   -0.001056269    0.000001138
     14        1           0.001631170   -0.000059703    0.000005188
     15        1          -0.001811256    0.001178650    0.000003473
     16        1          -0.000354786    0.002163578    0.000006036
 -------------------------------------------------------------------
 Cartesian Forces:  Max     0.067662401 RMS     0.017136536

 GradGradGradGradGradGradGradGradGradGradGradGradGradGradGradGradGradGrad
 Berny optimization.
 FormGI is forming the generalized inverse of G from B-inverse, IUseBI=4.
 Internal  Forces:  Max     0.047605314 RMS     0.008629778
 Search for a local minimum.
 Step number   1 out of a maximum of   94
 All quantities printed in internal units (Hartrees-Bohrs-Radians)
 Mixed Optimization -- RFO/linear search
 Second derivative matrix not updated -- first step.
 ITU=  0
     Eigenvalues ---    0.01853   0.01931   0.01986   0.02012   0.02070
     Eigenvalues ---    0.02113   0.02148   0.02153   0.02172   0.02209
     Eigenvalues ---    0.02233   0.02248   0.02338   0.16000   0.16000
     Eigenvalues ---    0.16000   0.16000   0.16000   0.16000   0.16000
     Eigenvalues ---    0.22000   0.22188   0.22662   0.24011   0.24651
     Eigenvalues ---    0.35712   0.35717   0.35783   0.35790   0.36420
     Eigenvalues ---    0.36427   0.37009   0.38432   0.42633   0.43465
     Eigenvalues ---    0.45769   0.46692   0.47162   0.47468   0.47567
     Eigenvalues ---    0.48125   0.50955
 RFO step:  Lambda=-1.30056180D-02 EMin= 1.85287394D-02
 Linear search not attempted -- first point.
 Iteration  1 RMS(Cart)=  0.02518520 RMS(Int)=  0.00012237
 Iteration  2 RMS(Cart)=  0.00015442 RMS(Int)=  0.00003202
 Iteration  3 RMS(Cart)=  0.00000002 RMS(Int)=  0.00003202
 Variable       Old X    -DE/DX   Delta X   Delta X   Delta X     New X
                                 (Linear)    (Quad)   (Total)
    R1        2.65547  -0.00947   0.00000  -0.01924  -0.01925   2.63622
    R2        2.61291   0.00826   0.00000   0.01759   0.01758   2.63050
    R3        2.04421   0.00215   0.00000   0.00581   0.00581   2.05002
    R4        2.61557   0.02346   0.00000   0.04747   0.04746   2.66303
    R5        2.04411   0.00213   0.00000   0.00573   0.00573   2.04985
    R6        2.63373  -0.01474   0.00000  -0.03181  -0.03180   2.60193
    R7        2.04534   0.00008   0.00000   0.00022   0.00022   2.04556
    R8        2.68058  -0.00499   0.00000  -0.01274  -0.01268   2.66790
    R9        2.60126   0.01501   0.00000   0.02684   0.02693   2.62819
   R10        2.64771   0.00214   0.00000   0.00438   0.00439   2.65209
   R11        2.70839  -0.01153   0.00000  -0.02444  -0.02450   2.68389
   R12        2.04526   0.00217   0.00000   0.00587   0.00587   2.05113
   R13        2.60573  -0.04761   0.00000  -0.09568  -0.09567   2.51006
   R14        1.89542   0.02978   0.00000   0.06144   0.06144   1.95687
   R15        2.57870   0.03799   0.00000   0.07268   0.07260   2.65129
   R16        2.03419   0.00469   0.00000   0.01244   0.01244   2.04663
   R17        2.03430   0.00425   0.00000   0.01126   0.01126   2.04557
    A1        2.11420  -0.00503   0.00000  -0.01661  -0.01662   2.09758
    A2        2.07986   0.00270   0.00000   0.00938   0.00939   2.08925
    A3        2.08912   0.00233   0.00000   0.00723   0.00723   2.09636
    A4        2.11523   0.00265   0.00000   0.01455   0.01454   2.12977
    A5        2.08365  -0.00135   0.00000  -0.00740  -0.00739   2.07626
    A6        2.08430  -0.00130   0.00000  -0.00716  -0.00715   2.07715
    A7        2.05144  -0.00064   0.00000  -0.00437  -0.00436   2.04708
    A8        2.11267   0.00199   0.00000   0.01182   0.01181   2.12448
    A9        2.11908  -0.00135   0.00000  -0.00745  -0.00745   2.11163
   A10        2.13389  -0.00236   0.00000  -0.01030  -0.01034   2.12355
   A11        2.27895  -0.00298   0.00000  -0.00652  -0.00660   2.27235
   A12        1.87035   0.00533   0.00000   0.01682   0.01694   1.88728
   A13        2.07274   0.00805   0.00000   0.02615   0.02619   2.09893
   A14        1.86517  -0.00769   0.00000  -0.02414  -0.02416   1.84102
   A15        2.34527  -0.00036   0.00000  -0.00202  -0.00203   2.34324
   A16        2.07887  -0.00267   0.00000  -0.00942  -0.00941   2.06946
   A17        2.10306   0.00103   0.00000   0.00297   0.00296   2.10603
   A18        2.10125   0.00163   0.00000   0.00645   0.00645   2.10770
   A19        1.90743   0.00374   0.00000   0.00686   0.00694   1.91437
   A20        2.19023   0.00129   0.00000   0.01486   0.01482   2.20504
   A21        2.18553  -0.00504   0.00000  -0.02171  -0.02176   2.16377
   A22        1.86968   0.00055   0.00000   0.00978   0.00966   1.87934
   A23        2.21717   0.00007   0.00000  -0.00287  -0.00281   2.21436
   A24        2.19633  -0.00063   0.00000  -0.00691  -0.00685   2.18948
   A25        1.91215  -0.00195   0.00000  -0.00932  -0.00938   1.90276
   A26        2.10250  -0.00146   0.00000  -0.00939  -0.00936   2.09314
   A27        2.26854   0.00340   0.00000   0.01872   0.01875   2.28728
    D1       -0.00001   0.00000   0.00000   0.00004   0.00003   0.00002
    D2       -3.14156  -0.00000   0.00000  -0.00002  -0.00002  -3.14158
    D3        3.14152   0.00000   0.00000   0.00008   0.00008  -3.14158
    D4       -0.00002   0.00000   0.00000   0.00003   0.00003   0.00001
    D5       -0.00003  -0.00000   0.00000  -0.00007  -0.00007  -0.00010
    D6        3.14153   0.00000   0.00000   0.00010   0.00011  -3.14155
    D7       -3.14157  -0.00000   0.00000  -0.00012  -0.00012   3.14150
    D8       -0.00001   0.00000   0.00000   0.00005   0.00006   0.00005
    D9        0.00003   0.00000   0.00000   0.00006   0.00006   0.00009
   D10       -3.14154  -0.00000   0.00000  -0.00009  -0.00009   3.14156
   D11        3.14158   0.00000   0.00000   0.00011   0.00011  -3.14150
   D12        0.00001  -0.00000   0.00000  -0.00004  -0.00004  -0.00003
   D13       -0.00001  -0.00001   0.00000  -0.00012  -0.00012  -0.00013
   D14       -3.14144  -0.00000   0.00000  -0.00006  -0.00005  -3.14149
   D15        3.14156   0.00000   0.00000   0.00003   0.00003   3.14159
   D16        0.00013   0.00000   0.00000   0.00010   0.00010   0.00023
   D17       -0.00004   0.00001   0.00000   0.00009   0.00009   0.00005
   D18       -3.14151   0.00000   0.00000  -0.00004  -0.00005  -3.14156
   D19        3.14143   0.00000   0.00000   0.00004   0.00003   3.14146
   D20       -0.00005  -0.00000   0.00000  -0.00010  -0.00010  -0.00015
   D21       -3.14124  -0.00001   0.00000  -0.00054  -0.00056   3.14138
   D22       -0.00113   0.00001   0.00000   0.00033   0.00033  -0.00080
   D23        0.00049  -0.00001   0.00000  -0.00048  -0.00050  -0.00000
   D24        3.14060   0.00001   0.00000   0.00039   0.00039   3.14100
   D25        0.00005  -0.00000   0.00000   0.00001   0.00001   0.00006
   D26       -3.14151  -0.00001   0.00000  -0.00016  -0.00016   3.14151
   D27        3.14150   0.00000   0.00000   0.00018   0.00019  -3.14150
   D28       -0.00007  -0.00000   0.00000   0.00001   0.00002  -0.00005
   D29       -0.00041   0.00003   0.00000   0.00067   0.00066   0.00025
   D30        3.14139   0.00001   0.00000   0.00012   0.00012   3.14150
   D31        3.14132   0.00002   0.00000   0.00050   0.00049  -3.14137
   D32       -0.00006   0.00000   0.00000  -0.00004  -0.00005  -0.00011
   D33       -0.00077   0.00004   0.00000   0.00095   0.00094   0.00016
   D34        3.14133   0.00001   0.00000   0.00031   0.00030  -3.14156
   D35       -3.14089   0.00000   0.00000   0.00004   0.00004  -3.14085
   D36        0.00121  -0.00002   0.00000  -0.00060  -0.00060   0.00061
   D37        0.00072  -0.00003   0.00000  -0.00097  -0.00098  -0.00026
   D38       -3.14144  -0.00001   0.00000  -0.00027  -0.00026   3.14148
   D39       -3.14107  -0.00001   0.00000  -0.00044  -0.00045  -3.14152
   D40       -0.00005   0.00001   0.00000   0.00027   0.00027   0.00022
         Item               Value     Threshold  Converged?
 Maximum Force            0.047605     0.000450     NO 
 RMS     Force            0.008630     0.000300     NO 
 Maximum Displacement     0.103553     0.001800     NO 
 RMS     Displacement     0.025209     0.001200     NO 
 Predicted change in Energy=-6.687674D-03
 GradGradGradGradGradGradGradGradGradGradGradGradGradGradGradGradGradGrad

                          Input orientation:                          
 ---------------------------------------------------------------------
 Center     Atomic      Atomic             Coordinates (Angstroms)
 Number     Number       Type             X           Y           Z
 ---------------------------------------------------------------------
      1          6           0       -2.173048    0.698591   -0.000024
      2          6           0       -2.125475   -0.695625    0.000001
      3          6           0       -0.905952   -1.401778    0.000007
      4          6           0        0.253505   -0.659175    0.000104
      5          6           0        0.229653    0.752416    0.000039
      6          6           0       -0.994330    1.439054   -0.000066
      7          7           0        1.582336   -1.069635    0.000025
      8          6           0        1.591768    1.154618    0.000130
      9          6           0        2.378936   -0.006755   -0.000086
     10          1           0        1.922451   -2.047716    0.000545
     11          1           0        1.969683    2.169572    0.000037
     12          1           0        3.453512   -0.137223   -0.000193
     13          1           0       -3.056095   -1.252929    0.000018
     14          1           0       -0.874761   -2.483792    0.000058
     15          1           0       -3.133098    1.203713   -0.000015
     16          1           0       -1.022181    2.524110   -0.000044
 ---------------------------------------------------------------------
                    Distance matrix (angstroms):
                    1          2          3          4          5
     1  C    0.000000
     2  C    1.395027   0.000000
     3  C    2.452974   1.409215   0.000000
     4  C    2.780592   2.379259   1.376881   0.000000
     5  C    2.403304   2.764679   2.435190   1.411793   0.000000
     6  C    1.392000   2.415853   2.842206   2.441241   1.403426
     7  N    4.150847   3.726626   2.510358   1.390780   2.269278
     8  C    3.792334   4.152263   3.574040   2.254061   1.420255
     9  C    4.606308   4.556782   3.568835   2.223310   2.279421
    10  H    4.931056   4.267769   2.901224   2.171043   3.272050
    11  H    4.396135   4.997966   4.585173   3.308636   2.244111
    12  H    5.688300   5.606862   4.539166   3.242295   3.344357
    13  H    2.142009   1.084731   2.155289   3.362439   3.849357
    14  H    3.437021   2.182161   1.082464   2.145277   3.419470
    15  H    1.084825   2.150068   3.427647   3.865157   3.392899
    16  H    2.158012   3.403521   3.927608   3.429385   2.169329
                    6          7          8          9         10
     6  C    0.000000
     7  N    3.596210   0.000000
     8  C    2.601693   2.224273   0.000000
     9  C    3.670053   1.328265   1.403004   0.000000
    10  H    4.545897   1.035530   3.219362   2.091388   0.000000
    11  H    3.052708   3.262284   1.083029   2.214472   4.217552
    12  H    4.718893   2.090620   2.266041   1.082467   2.448292
    13  H    3.390819   4.642051   5.234397   5.576066   5.041588
    14  H    3.924668   2.834989   4.395656   4.089286   2.830999
    15  H    2.151677   5.234828   4.725121   5.643381   6.010854
    16  H    1.085413   4.438301   2.950973   4.239443   5.438057
                   11         12         13         14         15
    11  H    0.000000
    12  H    2.742818   0.000000
    13  H    6.080457   6.604527   0.000000
    14  H    5.453866   4.923447   2.504644   0.000000
    15  H    5.193385   6.721721   2.457849   4.324093   0.000000
    16  H    3.012797   5.207161   4.289852   5.010072   2.489863
                   16
    16  H    0.000000
 Stoichiometry    C8H7N
 Framework group  C1[X(C8H7N)]
 Deg. of freedom    42
 Full point group                 C1      NOp   1
 Largest Abelian subgroup         C1      NOp   1
 Largest concise Abelian subgroup C1      NOp   1
                         Standard orientation:                         
 ---------------------------------------------------------------------
 Center     Atomic      Atomic             Coordinates (Angstroms)
 Number     Number       Type             X           Y           Z
 ---------------------------------------------------------------------
      1          6           0       -2.188451    0.638364   -0.000043
      2          6           0       -2.104196   -0.754116   -0.000019
      3          6           0       -0.866510   -1.427925   -0.000012
      4          6           0        0.273000   -0.655061    0.000085
      5          6           0        0.212001    0.755413    0.000019
      6          6           0       -1.029631    1.409597   -0.000085
      7          7           0        1.612174   -1.030402    0.000006
      8          6           0        1.563057    1.193328    0.000110
      9          6           0        2.380522    0.053077   -0.000106
     10          1           0        1.977916   -1.999192    0.000525
     11          1           0        1.914126    2.217878    0.000018
     12          1           0        3.458159   -0.049061   -0.000213
     13          1           0       -3.019825   -1.335723   -0.000002
     14          1           0       -0.806849   -2.508743    0.000039
     15          1           0       -3.161464    1.118042   -0.000035
     16          1           0       -1.086033    2.493544   -0.000064
 ---------------------------------------------------------------------
 Rotational constants (GHZ):           3.9277888           1.6393683           1.1566213
 Standard basis: 6-31+G(d) (6D, 7F)
 There are   185 symmetry adapted cartesian basis functions of A   symmetry.
 There are   185 symmetry adapted basis functions of A   symmetry.
   185 basis functions,   316 primitive gaussians,   185 cartesian basis functions
    31 alpha electrons       31 beta electrons
       nuclear repulsion energy       401.3624277056 Hartrees.
 NAtoms=   16 NActive=   16 NUniq=   16 SFac= 1.00D+00 NAtFMM=   60 NAOKFM=F Big=F
 Integral buffers will be    131072 words long.
 Raffenetti 1 integral format.
 Two-electron integral symmetry is turned on.
 One-electron integrals computed using PRISM.
 NBasis=   185 RedAO= T EigKep=  1.17D-06  NBF=   185
 NBsUse=   185 1.00D-06 EigRej= -1.00D+00 NBFU=   185
 Initial guess from the checkpoint file:  "FuncsCAM-B3LYP-V-3rd.chk"
 B after Tr=    -0.000000    0.000000    0.000000
         Rot=    0.999916    0.000010    0.000011   -0.012963 Ang=   1.49 deg.
 ExpMin= 4.38D-02 ExpMax= 4.17D+03 ExpMxC= 6.27D+02 IAcc=3 IRadAn=         5 AccDes= 0.00D+00
 Harris functional with IExCor=20419 and IRadAn=       5 diagonalized for initial guess.
 HarFok:  IExCor=20419 AccDes= 0.00D+00 IRadAn=         5 IDoV= 1 UseB2=F ITyADJ=14
 ICtDFT=  3500011 ScaDFX=  1.000000  1.000000  1.000000  1.000000
 FoFCou: FMM=F IPFlag=           0 FMFlag=      100000 FMFlg1=           0
         NFxFlg=           0 DoJE=T BraDBF=F KetDBF=T FulRan=T
         wScrn=  0.000000 ICntrl=       500 IOpCl=  0 I1Cent=   200000004 NGrid=           0
         NMat0=    1 NMatS0=      1 NMatT0=    0 NMatD0=    1 NMtDS0=    0 NMtDT0=    0
 Petite list used in FoFCou.
 Keep R1 ints in memory in canonical form, NReq=303303409.
 Requested convergence on RMS density matrix=1.00D-08 within 128 cycles.
 Requested convergence on MAX density matrix=1.00D-06.
 Requested convergence on             energy=1.00D-06.
 No special actions if energy rises.
 SCF Done:  E(RCAM-B3LYP) =  -363.618967195     A.U. after   14 cycles
            NFock= 14  Conv=0.37D-08     -V/T= 2.0093
 DoSCS=F DFT=T ScalE2(SS,OS)=  1.000000  1.000000
 ExpMin= 4.38D-02 ExpMax= 4.17D+03 ExpMxC= 6.27D+02 IAcc=3 IRadAn=         5 AccDes= 0.00D+00
 HarFok:  IExCor=  205 AccDes= 0.00D+00 IRadAn=         5 IDoV=-2 UseB2=F ITyADJ=14
 ICtDFT= 12500011 ScaDFX=  1.000000  1.000000  1.000000  1.000000
 Range of M.O.s used for correlation:    10   185
 NBasis=   185 NAE=    31 NBE=    31 NFC=     9 NFV=     0
 NROrb=    176 NOA=    22 NOB=    22 NVA=   154 NVB=   154

 **** Warning!!: The largest alpha MO coefficient is  0.19589272D+03

 Orbital symmetries:
       Occupied  (A) (A) (A) (A) (A) (A) (A) (A) (A) (A) (A) (A)
                 (A) (A) (A) (A) (A) (A) (A) (A) (A) (A) (A) (A)
                 (A) (A) (A) (A) (A) (A) (A)
       Virtual   (A) (A) (A) (A) (A) (A) (A) (A) (A) (A) (A) (A)
                 (A) (A) (A) (A) (A) (A) (A) (A) (A) (A) (A) (A)
                 (A) (A) (A) (A) (A) (A) (A) (A) (A) (A) (A) (A)
                 (A) (A) (A) (A) (A) (A) (A) (A) (A) (A) (A) (A)
                 (A) (A) (A) (A) (A) (A) (A) (A) (A) (A) (A) (A)
                 (A) (A) (A) (A) (A) (A) (A) (A) (A) (A) (A) (A)
                 (A) (A) (A) (A) (A) (A) (A) (A) (A) (A) (A) (A)
                 (A) (A) (A) (A) (A) (A) (A) (A) (A) (A) (A) (A)
                 (A) (A) (A) (A) (A) (A) (A) (A) (A) (A) (A) (A)
                 (A) (A) (A) (A) (A) (A) (A) (A) (A) (A) (A) (A)
                 (A) (A) (A) (A) (A) (A) (A) (A) (A) (A) (A) (A)
                 (A) (A) (A) (A) (A) (A) (A) (A) (A) (A) (A) (A)
                 (A) (A) (A) (A) (A) (A) (A) (A) (A) (A)
 Generating guess from densities on rwf.
 Convergence on wavefunction:    0.000001000000000
 Iteration     1 Dimension    12 NMult     0 NNew     12
 CISAX will form    12 AO SS matrices at one time.
 New state      1 was old state      2
 New state      2 was old state      1
 New state      4 was old state      5
 New state      5 was old state      6
 New state      6 was old state      4
 Iteration     2 Dimension    24 NMult    12 NNew     12
 New state      2 was old state      3
 New state      3 was old state      2
 Iteration     3 Dimension    36 NMult    24 NNew     12
 Iteration     4 Dimension    48 NMult    36 NNew     12
 Iteration     5 Dimension    60 NMult    48 NNew     12
 Iteration     6 Dimension    72 NMult    60 NNew     12
 Iteration     7 Dimension    84 NMult    72 NNew     12
 Iteration     8 Dimension    96 NMult    84 NNew     12
 Iteration     9 Dimension   108 NMult    96 NNew     12
 Iteration    10 Dimension   120 NMult   108 NNew     12
 Iteration    11 Dimension   128 NMult   120 NNew      8
 Iteration    12 Dimension   134 NMult   128 NNew      6
 ***********************************************************************
 Excited states from <AA,BB:AA,BB> singles matrix:
 ***********************************************************************
 
 Ground to excited state transition densities written to RWF  633
 Ground to excited state transition electric dipole moments (Au):
       state          X           Y           Z        Dip. S.      Osc.
         1         0.9264     -0.6471     -0.0001      1.2771      0.1496
         2         0.0671      0.2149     -0.0000      0.0507      0.0063
         3        -0.0000     -0.0000     -0.1531      0.0234      0.0028
         4         0.0001      0.0001     -0.0815      0.0066      0.0009
         5         0.0002     -0.0000      0.2033      0.0413      0.0058
         6         0.0000     -0.0000     -0.1053      0.0111      0.0016
 Ground to excited state transition velocity dipole moments (Au):
       state          X           Y           Z        Dip. S.      Osc.
         1        -0.1505      0.1236      0.0000      0.0379      0.1439
         2        -0.0116     -0.0429      0.0000      0.0020      0.0070
         3         0.0000      0.0000      0.0188      0.0004      0.0013
         4        -0.0000     -0.0000      0.0185      0.0003      0.0011
         5        -0.0000      0.0000     -0.0397      0.0016      0.0050
         6         0.0000      0.0000      0.0262      0.0007      0.0021
 Ground to excited state transition magnetic dipole moments (Au):
       state          X           Y           Z
         1         0.0000     -0.0001     -0.1456
         2         0.0001      0.0000     -0.0717
         3         0.1750     -0.1102      0.0001
         4         0.2714     -0.3470      0.0001
         5         0.1968      0.3252      0.0000
         6        -0.0372     -0.1243     -0.0001
 Ground to excited state transition velocity quadrupole moments (Au):
       state          XX          YY          ZZ          XY          XZ          YZ
         1        -0.2196      0.1646     -0.0226     -0.0400      0.0001     -0.0000
         2         0.0401      0.0527     -0.0198     -0.0251     -0.0000     -0.0000
         3         0.0000      0.0000      0.0000      0.0001      0.0807      0.0783
         4         0.0001     -0.0000     -0.0000      0.0000      0.3555      0.2463
         5         0.0000      0.0000     -0.0000      0.0000     -0.2596      0.0788
         6         0.0001     -0.0001     -0.0000     -0.0000      0.0421     -0.0876
 <0|del|b> * <b|rxdel|0> + <0|del|b> * <b|delr+rdel|0>
 Rotatory Strengths (R) in cgs (10**-40 erg-esu-cm/Gauss)
       state          XX          YY          ZZ    R(velocity)    E-M Angle
         1        -0.0513     -0.0049     -0.0233     -0.0265       90.00
         2        -0.0059     -0.0014     -0.0034     -0.0036       90.00
         3         0.0045      0.0018      0.0005      0.0023       90.00
         4         0.0273     -0.0238     -0.0016      0.0007       90.00
         5        -0.0025     -0.0155     -0.0060     -0.0080       90.00
         6        -0.0087     -0.0012     -0.0020     -0.0039       90.00
 1/2[<0|r|b>*<b|rxdel|0> + (<0|rxdel|b>*<b|r|0>)*]
 Rotatory Strengths (R) in cgs (10**-40 erg-esu-cm/Gauss)
       state          XX          YY          ZZ     R(length)
         1        -0.0064     -0.0624     -0.0061     -0.0250
         2        -0.0030     -0.0072     -0.0005     -0.0036
         3         0.0014     -0.0027      0.0087      0.0025
         4        -0.0259      0.0209      0.0057      0.0002
         5        -0.0220      0.0027     -0.0051     -0.0081
         6         0.0001     -0.0042     -0.0051     -0.0031
  1/2[<0|del|b>*<b|r|0> + (<0|r|b>*<b|del|0>)*] (Au)
       state          X           Y           Z        Dip. S.   Osc.(frdel)
         1        -0.1395     -0.0800     -0.0000      0.2194      0.1463
         2        -0.0008     -0.0092     -0.0000      0.0100      0.0067
         3        -0.0000     -0.0000     -0.0029      0.0029      0.0019
         4        -0.0000     -0.0000     -0.0015      0.0015      0.0010
         5        -0.0000     -0.0000     -0.0081      0.0081      0.0054
         6         0.0000     -0.0000     -0.0028      0.0028      0.0018

 Excitation energies and oscillator strengths:
 
 Excited State   1:      Singlet-A      4.7828 eV  259.23 nm  f=0.1496  <S**2>=0.000
      30 -> 37        -0.14444
      31 -> 33        -0.68093
 
 Excited State   2:      Singlet-A      5.0907 eV  243.55 nm  f=0.0063  <S**2>=0.000
      30 -> 33        -0.53337
      31 -> 37         0.43102
 
 Excited State   3:      Singlet-A      4.9156 eV  252.22 nm  f=0.0028  <S**2>=0.000
      31 -> 32         0.69048
 This state for optimization and/or second-order correction.
 Total Energy, E(TD-HF/TD-DFT) =  -363.438321129    
 Copying the excited state density for this state as the 1-particle RhoCI density.
 
 Excited State   4:      Singlet-A      5.6642 eV  218.89 nm  f=0.0009  <S**2>=0.000
      31 -> 34         0.63421
      31 -> 35        -0.23200
 
 Excited State   5:      Singlet-A      5.7218 eV  216.69 nm  f=0.0058  <S**2>=0.000
      31 -> 34         0.22124
      31 -> 35         0.61834
      31 -> 36         0.16978
 
 Excited State   6:      Singlet-A      5.9264 eV  209.21 nm  f=0.0016  <S**2>=0.000
      30 -> 32         0.67044
      30 -> 34        -0.10283
 SavETr:  write IOETrn=   770 NScale= 10 NData=  16 NLR=1 NState=    6 LETran=     118.
          IDoAtm=1111111111111111
          Differentiating once with respect to electric field.
                with respect to dipole field.
          Differentiating once with respect to nuclear coordinates.
 Keep R1 ints in memory in canonical form, NReq=303315801.
          There are     1 degrees of freedom in the 1st order CPHF.  IDoFFX=0 NUNeed=     1.
 LinEq1:  Iter=  0 NonCon=     1 RMS=1.04D-02 Max=1.61D-01 NDo=     1
 AX will form     1 AO Fock derivatives at one time.
 LinEq1:  Iter=  1 NonCon=     1 RMS=3.99D-03 Max=8.17D-02 NDo=     1
 LinEq1:  Iter=  2 NonCon=     1 RMS=2.42D-03 Max=7.78D-02 NDo=     1
 LinEq1:  Iter=  3 NonCon=     1 RMS=9.78D-04 Max=2.37D-02 NDo=     1
 LinEq1:  Iter=  4 NonCon=     1 RMS=5.17D-04 Max=9.42D-03 NDo=     1
 LinEq1:  Iter=  5 NonCon=     1 RMS=2.00D-04 Max=3.72D-03 NDo=     1
 LinEq1:  Iter=  6 NonCon=     1 RMS=1.15D-04 Max=2.69D-03 NDo=     1
 LinEq1:  Iter=  7 NonCon=     1 RMS=4.04D-05 Max=7.02D-04 NDo=     1
 LinEq1:  Iter=  8 NonCon=     1 RMS=1.20D-05 Max=3.16D-04 NDo=     1
 LinEq1:  Iter=  9 NonCon=     1 RMS=7.38D-06 Max=1.57D-04 NDo=     1
 LinEq1:  Iter= 10 NonCon=     1 RMS=2.54D-06 Max=4.88D-05 NDo=     1
 LinEq1:  Iter= 11 NonCon=     1 RMS=1.29D-06 Max=2.80D-05 NDo=     1
 LinEq1:  Iter= 12 NonCon=     1 RMS=5.41D-07 Max=9.58D-06 NDo=     1
 LinEq1:  Iter= 13 NonCon=     1 RMS=1.98D-07 Max=5.38D-06 NDo=     1
 LinEq1:  Iter= 14 NonCon=     1 RMS=1.04D-07 Max=1.25D-06 NDo=     1
 LinEq1:  Iter= 15 NonCon=     1 RMS=2.38D-08 Max=3.04D-07 NDo=     1
 LinEq1:  Iter= 16 NonCon=     1 RMS=1.03D-08 Max=1.85D-07 NDo=     1
 LinEq1:  Iter= 17 NonCon=     1 RMS=5.40D-09 Max=1.35D-07 NDo=     1
 LinEq1:  Iter= 18 NonCon=     1 RMS=1.28D-09 Max=2.59D-08 NDo=     1
 LinEq1:  Iter= 19 NonCon=     1 RMS=2.71D-10 Max=3.21D-09 NDo=     1
 LinEq1:  Iter= 20 NonCon=     1 RMS=1.03D-10 Max=1.92D-09 NDo=     1
 LinEq1:  Iter= 21 NonCon=     0 RMS=4.35D-11 Max=6.83D-10 NDo=     1
 Linear equations converged to 1.000D-10 1.000D-09 after    21 iterations.
 End of Minotr F.D. properties file   721 does not exist.
 End of Minotr F.D. properties file   722 does not exist.
 End of Minotr F.D. properties file   788 does not exist.
 Calling FoFJK, ICntrl=  10005127 FMM=F ISym2X=0 I1Cent= 0 IOpClX= 0 NMat=1 NMatS=1 NMatT=0.
 ***** Axes restored to original set *****
 -------------------------------------------------------------------
 Center     Atomic                   Forces (Hartrees/Bohr)
 Number     Number              X              Y              Z
 -------------------------------------------------------------------
      1        6           0.002562486    0.000995157   -0.000007280
      2        6           0.000345941    0.000006272    0.000000379
      3        6           0.003552334   -0.001225690    0.000013044
      4        6          -0.012431023   -0.005970159   -0.000012167
      5        6           0.010731514    0.001521212    0.000009331
      6        6          -0.002481648    0.001933419    0.000018912
      7        7           0.007461452    0.019783086    0.000006656
      8        6          -0.011685875    0.014875406   -0.000043089
      9        6          -0.004690392   -0.021994065    0.000025448
     10        1           0.003950872   -0.009150407   -0.000013563
     11        1           0.000901593   -0.000229836    0.000005042
     12        1           0.001762051    0.000562653    0.000005395
     13        1           0.000366155   -0.000927799   -0.000000275
     14        1          -0.001114508    0.000023912   -0.000003268
     15        1           0.000403247    0.000115839   -0.000001555
     16        1           0.000365801   -0.000319001   -0.000003011
 -------------------------------------------------------------------
 Cartesian Forces:  Max     0.021994065 RMS     0.006048840

 GradGradGradGradGradGradGradGradGradGradGradGradGradGradGradGradGradGrad
 Berny optimization.
 Using GEDIIS/GDIIS optimizer.
 FormGI is forming the generalized inverse of G from B-inverse, IUseBI=4.
 Internal  Forces:  Max     0.012011327 RMS     0.002607960
 Search for a local minimum.
 Step number   2 out of a maximum of   94
 All quantities printed in internal units (Hartrees-Bohrs-Radians)
 Mixed Optimization -- RFO/linear search
 Update second derivatives using D2CorX and points    1    2
 DE= -7.87D-03 DEPred=-6.69D-03 R= 1.18D+00
 TightC=F SS=  1.41D+00  RLast= 1.68D-01 DXNew= 5.0454D-01 5.0422D-01
 Trust test= 1.18D+00 RLast= 1.68D-01 DXMaxT set to 5.04D-01
 ITU=  1  0
 Use linear search instead of GDIIS.
     Eigenvalues ---    0.01855   0.01932   0.01987   0.02011   0.02069
     Eigenvalues ---    0.02113   0.02148   0.02157   0.02172   0.02210
     Eigenvalues ---    0.02233   0.02248   0.02343   0.15838   0.16000
     Eigenvalues ---    0.16000   0.16000   0.16000   0.16000   0.16185
     Eigenvalues ---    0.21872   0.22185   0.22477   0.24390   0.24977
     Eigenvalues ---    0.34277   0.35712   0.35729   0.35794   0.35812
     Eigenvalues ---    0.36451   0.36674   0.37390   0.39940   0.42663
     Eigenvalues ---    0.44109   0.45861   0.46814   0.47537   0.47755
     Eigenvalues ---    0.49192   0.51501
 RFO step:  Lambda=-1.37545383D-03 EMin= 1.85453387D-02
 Quartic linear search produced a step of  0.22428.
 Iteration  1 RMS(Cart)=  0.00885485 RMS(Int)=  0.00005057
 Iteration  2 RMS(Cart)=  0.00005686 RMS(Int)=  0.00002064
 Iteration  3 RMS(Cart)=  0.00000000 RMS(Int)=  0.00002064
 Variable       Old X    -DE/DX   Delta X   Delta X   Delta X     New X
                                 (Linear)    (Quad)   (Total)
    R1        2.63622   0.00188  -0.00432   0.00731   0.00298   2.63920
    R2        2.63050  -0.00153   0.00394  -0.00629  -0.00235   2.62815
    R3        2.05002  -0.00030   0.00130  -0.00185  -0.00055   2.04947
    R4        2.66303  -0.00070   0.01064  -0.00849   0.00214   2.66517
    R5        2.04985   0.00016   0.00129  -0.00026   0.00103   2.05087
    R6        2.60193  -0.00309  -0.00713  -0.00368  -0.01081   2.59112
    R7        2.04556  -0.00006   0.00005  -0.00022  -0.00017   2.04539
    R8        2.66790   0.00496  -0.00284   0.01704   0.01426   2.68217
    R9        2.62819   0.00417   0.00604   0.00583   0.01188   2.64007
   R10        2.65209   0.00024   0.00098   0.00040   0.00139   2.65349
   R11        2.68389  -0.00598  -0.00549  -0.01321  -0.01869   2.66521
   R12        2.05113  -0.00033   0.00132  -0.00195  -0.00063   2.05050
   R13        2.51006  -0.01159  -0.02146  -0.01689  -0.03840   2.47166
   R14        1.95687   0.00994   0.01378   0.01741   0.03119   1.98806
   R15        2.65129   0.01201   0.01628   0.01857   0.03481   2.68610
   R16        2.04663   0.00010   0.00279  -0.00142   0.00137   2.04800
   R17        2.04557   0.00168   0.00253   0.00404   0.00657   2.05213
    A1        2.09758   0.00155  -0.00373   0.01055   0.00681   2.10439
    A2        2.08925  -0.00048   0.00211  -0.00320  -0.00109   2.08816
    A3        2.09636  -0.00107   0.00162  -0.00735  -0.00572   2.09063
    A4        2.12977   0.00074   0.00326   0.00068   0.00392   2.13369
    A5        2.07626   0.00064  -0.00166   0.00733   0.00568   2.08194
    A6        2.07715  -0.00138  -0.00160  -0.00801  -0.00960   2.06755
    A7        2.04708  -0.00208  -0.00098  -0.01088  -0.01186   2.03522
    A8        2.12448  -0.00010   0.00265  -0.00486  -0.00221   2.12227
    A9        2.11163   0.00218  -0.00167   0.01574   0.01407   2.12570
   A10        2.12355   0.00251  -0.00232   0.01519   0.01287   2.13642
   A11        2.27235   0.00095  -0.00148   0.00499   0.00346   2.27581
   A12        1.88728  -0.00346   0.00380  -0.02018  -0.01633   1.87095
   A13        2.09893  -0.00138   0.00587  -0.01064  -0.00477   2.09417
   A14        1.84102   0.00327  -0.00542   0.02220   0.01685   1.85787
   A15        2.34324  -0.00188  -0.00046  -0.01156  -0.01208   2.33115
   A16        2.06946  -0.00134  -0.00211  -0.00490  -0.00698   2.06248
   A17        2.10603   0.00104   0.00066   0.00553   0.00619   2.11221
   A18        2.10770   0.00030   0.00145  -0.00064   0.00080   2.10850
   A19        1.91437   0.00192   0.00156   0.00612   0.00765   1.92202
   A20        2.20504  -0.00025   0.00332  -0.00083   0.00251   2.20756
   A21        2.16377  -0.00167  -0.00488  -0.00530  -0.01016   2.15361
   A22        1.87934  -0.00410   0.00217  -0.02117  -0.01901   1.86033
   A23        2.21436   0.00300  -0.00063   0.01742   0.01680   2.23115
   A24        2.18948   0.00110  -0.00154   0.00375   0.00222   2.19170
   A25        1.90276   0.00237  -0.00210   0.01303   0.01085   1.91361
   A26        2.09314  -0.00040  -0.00210   0.00189  -0.00018   2.09296
   A27        2.28728  -0.00197   0.00420  -0.01491  -0.01067   2.27661
    D1        0.00002  -0.00000   0.00001  -0.00007  -0.00006  -0.00004
    D2       -3.14158  -0.00000  -0.00000  -0.00003  -0.00004   3.14157
    D3       -3.14158  -0.00000   0.00002  -0.00008  -0.00006   3.14155
    D4        0.00001  -0.00000   0.00001  -0.00004  -0.00004  -0.00003
    D5       -0.00010   0.00000  -0.00002   0.00025   0.00023   0.00013
    D6       -3.14155  -0.00000   0.00002  -0.00015  -0.00013   3.14150
    D7        3.14150   0.00000  -0.00003   0.00026   0.00023  -3.14145
    D8        0.00005  -0.00000   0.00001  -0.00014  -0.00013  -0.00008
    D9        0.00009  -0.00000   0.00001  -0.00013  -0.00012  -0.00002
   D10        3.14156   0.00000  -0.00002   0.00008   0.00006  -3.14157
   D11       -3.14150  -0.00000   0.00002  -0.00017  -0.00014   3.14155
   D12       -0.00003   0.00000  -0.00001   0.00005   0.00004   0.00000
   D13       -0.00013   0.00000  -0.00003   0.00015   0.00012  -0.00001
   D14       -3.14149   0.00000  -0.00001  -0.00002  -0.00003  -3.14152
   D15        3.14159  -0.00000   0.00001  -0.00006  -0.00006   3.14153
   D16        0.00023  -0.00000   0.00002  -0.00023  -0.00021   0.00002
   D17        0.00005   0.00000   0.00002   0.00003   0.00005   0.00011
   D18       -3.14156   0.00000  -0.00001   0.00020   0.00019  -3.14137
   D19        3.14146   0.00000   0.00001   0.00016   0.00018  -3.14155
   D20       -0.00015   0.00000  -0.00002   0.00033   0.00031   0.00016
   D21        3.14138   0.00001  -0.00013   0.00060   0.00047  -3.14133
   D22       -0.00080   0.00001   0.00007   0.00023   0.00030  -0.00050
   D23       -0.00000   0.00000  -0.00011   0.00045   0.00034   0.00033
   D24        3.14100   0.00000   0.00009   0.00008   0.00016   3.14116
   D25        0.00006  -0.00000   0.00000  -0.00023  -0.00023  -0.00016
   D26        3.14151   0.00000  -0.00004   0.00017   0.00014  -3.14154
   D27       -3.14150  -0.00001   0.00004  -0.00045  -0.00041   3.14127
   D28       -0.00005  -0.00000   0.00000  -0.00005  -0.00005  -0.00010
   D29        0.00025  -0.00001   0.00015  -0.00095  -0.00080  -0.00055
   D30        3.14150   0.00000   0.00003  -0.00001   0.00003   3.14153
   D31       -3.14137  -0.00001   0.00011  -0.00075  -0.00063   3.14118
   D32       -0.00011   0.00000  -0.00001   0.00019   0.00019   0.00008
   D33        0.00016  -0.00001   0.00021  -0.00106  -0.00085  -0.00069
   D34       -3.14156  -0.00000   0.00007  -0.00037  -0.00030   3.14132
   D35       -3.14085  -0.00001   0.00001  -0.00070  -0.00070  -3.14155
   D36        0.00061  -0.00001  -0.00013  -0.00001  -0.00014   0.00047
   D37       -0.00026   0.00001  -0.00022   0.00126   0.00104   0.00078
   D38        3.14148   0.00001  -0.00006   0.00047   0.00041  -3.14130
   D39       -3.14152   0.00000  -0.00010   0.00033   0.00024  -3.14128
   D40        0.00022  -0.00001   0.00006  -0.00046  -0.00039  -0.00018
         Item               Value     Threshold  Converged?
 Maximum Force            0.012011     0.000450     NO 
 RMS     Force            0.002608     0.000300     NO 
 Maximum Displacement     0.034447     0.001800     NO 
 RMS     Displacement     0.008866     0.001200     NO 
 Predicted change in Energy=-1.004362D-03
 GradGradGradGradGradGradGradGradGradGradGradGradGradGradGradGradGradGrad

                          Input orientation:                          
 ---------------------------------------------------------------------
 Center     Atomic      Atomic             Coordinates (Angstroms)
 Number     Number       Type             X           Y           Z
 ---------------------------------------------------------------------
      1          6           0       -2.165863    0.700213    0.000074
      2          6           0       -2.121437   -0.695685    0.000041
      3          6           0       -0.905353   -1.409977    0.000019
      4          6           0        0.245096   -0.663958    0.000007
      5          6           0        0.231375    0.755316    0.000002
      6          6           0       -0.991554    1.445331    0.000138
      7          7           0        1.583627   -1.064108   -0.000089
      8          6           0        1.580103    1.167710   -0.000313
      9          6           0        2.366520   -0.016348    0.000260
     10          1           0        1.940680   -2.053699    0.000255
     11          1           0        1.965549    2.180602   -0.000462
[...]
 ! D12   D(13,2,3,14)           -0.0015         -DE/DX =    0.0                 !
 ! D13   D(2,3,4,5)             -0.0027         -DE/DX =    0.0                 !
 ! D14   D(2,3,4,7)            180.0029         -DE/DX =    0.0                 !
 ! D15   D(14,3,4,5)           180.0024         -DE/DX =    0.0                 !
 ! D16   D(14,3,4,7)             0.008          -DE/DX =    0.0                 !
 ! D17   D(3,4,5,6)              0.0006         -DE/DX =    0.0                 !
 ! D18   D(3,4,5,8)           -180.0007         -DE/DX =    0.0                 !
 ! D19   D(7,4,5,6)           -180.0038         -DE/DX =    0.0                 !
 ! D20   D(7,4,5,8)             -0.0051         -DE/DX =    0.0                 !
 ! D21   D(3,4,7,9)           -180.0066         -DE/DX =    0.0                 !
 ! D22   D(3,4,7,10)             0.0028         -DE/DX =    0.0                 !
 ! D23   D(5,4,7,9)             -0.0017         -DE/DX =    0.0                 !
 ! D24   D(5,4,7,10)           180.0077         -DE/DX =    0.0                 !
 ! D25   D(4,5,6,1)              0.0023         -DE/DX =    0.0                 !
 ! D26   D(4,5,6,16)          -180.005          -DE/DX =    0.0                 !
 ! D27   D(8,5,6,1)            180.004          -DE/DX =    0.0                 !
 ! D28   D(8,5,6,16)            -0.0033         -DE/DX =    0.0                 !
 ! D29   D(4,5,8,9)              0.0095         -DE/DX =    0.0                 !
 ! D30   D(4,5,8,11)           180.0009         -DE/DX =    0.0                 !
 ! D31   D(6,5,8,9)            180.0079         -DE/DX =    0.0                 !
 ! D32   D(6,5,8,11)            -0.0007         -DE/DX =    0.0                 !
 ! D33   D(4,7,9,8)              0.0078         -DE/DX =    0.0                 !
 ! D34   D(4,7,9,12)          -179.9966         -DE/DX =    0.0                 !
 ! D35   D(10,7,9,8)          -180.0012         -DE/DX =    0.0                 !
 ! D36   D(10,7,9,12)           -0.0055         -DE/DX =    0.0                 !
 ! D37   D(5,8,9,7)             -0.0109         -DE/DX =    0.0                 !
 ! D38   D(5,8,9,12)          -180.006          -DE/DX =    0.0                 !
 ! D39   D(11,8,9,7)           179.9974         -DE/DX =    0.0                 !
 ! D40   D(11,8,9,12)            0.0023         -DE/DX =    0.0                 !
 --------------------------------------------------------------------------------
 GradGradGradGradGradGradGradGradGradGradGradGradGradGradGradGradGradGrad

                          Input orientation:                          
 ---------------------------------------------------------------------
 Center     Atomic      Atomic             Coordinates (Angstroms)
 Number     Number       Type             X           Y           Z
 ---------------------------------------------------------------------
      1          6           0       -2.165189    0.702667   -0.000064
      2          6           0       -2.120825   -0.696540    0.000021
      3          6           0       -0.907848   -1.409490    0.000093
      4          6           0        0.245393   -0.664864    0.000119
      5          6           0        0.233976    0.756571    0.000019
      6          6           0       -0.994879    1.445618   -0.000099
      7          7           0        1.584969   -1.066603    0.000133
      8          6           0        1.578066    1.169221    0.000097
      9          6           0        2.369450   -0.017463    0.000015
     10          1           0        1.945680   -2.061697    0.000084
     11          1           0        1.966996    2.179430    0.000070
     12          1           0        3.448267   -0.139367   -0.000049
     13          1           0       -3.051116   -1.254851    0.000059
     14          1           0       -0.888584   -2.491261    0.000208
     15          1           0       -3.125916    1.205974   -0.000075
     16          1           0       -1.021538    2.530102   -0.000095
 ---------------------------------------------------------------------
                    Distance matrix (angstroms):
                    1          2          3          4          5
     1  C    0.000000
     2  C    1.399910   0.000000
     3  C    2.458071   1.406986   0.000000
     4  C    2.771470   2.366430   1.372747   0.000000
     5  C    2.399771   2.767060   2.448588   1.421481   0.000000
     6  C    1.386219   2.420041   2.856434   2.447940   1.408853
     7  N    4.146565   3.724226   2.516289   1.398520   2.269174
     8  C    3.772218   4.142808   3.581832   2.267131   1.406008
     9  C    4.591464   4.541334   3.560678   2.220528   2.271427
    10  H    4.953883   4.289536   2.927114   2.200481   3.297358
    11  H    4.388142   4.998149   4.598378   3.324745   2.242295
    12  H    5.676259   5.596895   4.537506   3.245697   3.336821
    13  H    2.148661   1.084967   2.148839   3.348890   3.851967
    14  H    3.439607   2.177026   1.081943   2.149798   3.436358
    15  H    1.084580   2.151689   3.429355   3.855614   3.389813
    16  H    2.155797   3.408761   3.941232   3.436993   2.172953
                    6          7          8          9         10
     6  C    0.000000
     7  N    3.600954   0.000000
     8  C    2.587748   2.235835   0.000000
     9  C    3.668693   1.310002   1.426362   0.000000
    10  H    4.576914   1.058454   3.251764   2.087696   0.000000
    11  H    3.051423   3.268437   1.082492   2.233452   4.241181
    12  H    4.717385   2.081261   2.282555   1.085683   2.439902
    13  H    3.394208   4.639906   5.225462   5.560006   5.061519
    14  H    3.938314   2.854490   4.414011   4.090778   2.866632
    15  H    2.144470   5.230396   4.704125   5.629906   6.033138
    16  H    1.084812   4.441865   2.934269   4.241330   5.467083
                   11         12         13         14         15
    11  H    0.000000
    12  H    2.751542   0.000000
    13  H    6.080768   6.594414   0.000000
    14  H    5.474459   4.933527   2.491036   0.000000
    15  H    5.185111   6.710427   2.461961   4.321482   0.000000
    16  H    3.009038   5.206268   4.294771   5.023123   2.486307
                   16
    16  H    0.000000
 Stoichiometry    C8H7N
 Framework group  C1[X(C8H7N)]
 Deg. of freedom    42
 Full point group                 C1      NOp   1
 Largest Abelian subgroup         C1      NOp   1
 Largest concise Abelian subgroup C1      NOp   1
                         Standard orientation:                         
 ---------------------------------------------------------------------
 Center     Atomic      Atomic             Coordinates (Angstroms)
 Number     Number       Type             X           Y           Z
 ---------------------------------------------------------------------
      1          6           0       -2.180431    0.639122   -0.000101
      2          6           0       -2.097389   -0.758323   -0.000017
      3          6           0       -0.865160   -1.437456    0.000055
      4          6           0        0.267048   -0.661223    0.000081
      5          6           0        0.216326    0.759354   -0.000019
      6          6           0       -1.031113    1.414153   -0.000136
      7          7           0        1.617222   -1.025763    0.000095
      8          6           0        1.548490    1.209015    0.000059
      9          6           0        2.372389    0.044671   -0.000022
     10          1           0        2.005314   -2.010501    0.000047
     11          1           0        1.909336    2.229594    0.000033
     12          1           0        3.454165   -0.047353   -0.000087
     13          1           0       -3.011885   -1.342147    0.000021
     14          1           0       -0.815987   -2.518281    0.000170
     15          1           0       -3.154709    1.115668   -0.000113
     16          1           0       -1.087753    2.497485   -0.000132
 ---------------------------------------------------------------------
 Rotational constants (GHZ):           3.8907164           1.6477036           1.1575047

 **********************************************************************

            Population analysis using the CI Density.

 **********************************************************************

 Orbital symmetries:
       Occupied  (A) (A) (A) (A) (A) (A) (A) (A) (A) (A) (A) (A)
                 (A) (A) (A) (A) (A) (A) (A) (A) (A) (A) (A) (A)
                 (A) (A) (A) (A) (A) (A) (A)
       Virtual   (A) (A) (A) (A) (A) (A) (A) (A) (A) (A) (A) (A)
                 (A) (A) (A) (A) (A) (A) (A) (A) (A) (A) (A) (A)
                 (A) (A) (A) (A) (A) (A) (A) (A) (A) (A) (A) (A)
                 (A) (A) (A) (A) (A) (A) (A) (A) (A) (A) (A) (A)
                 (A) (A) (A) (A) (A) (A) (A) (A) (A) (A) (A) (A)
                 (A) (A) (A) (A) (A) (A) (A) (A) (A) (A) (A) (A)
                 (A) (A) (A) (A) (A) (A) (A) (A) (A) (A) (A) (A)
                 (A) (A) (A) (A) (A) (A) (A) (A) (A) (A) (A) (A)
                 (A) (A) (A) (A) (A) (A) (A) (A) (A) (A) (A) (A)
                 (A) (A) (A) (A) (A) (A) (A) (A) (A) (A) (A) (A)
                 (A) (A) (A) (A) (A) (A) (A) (A) (A) (A) (A) (A)
                 (A) (A) (A) (A) (A) (A) (A) (A) (A) (A) (A) (A)
                 (A) (A) (A) (A) (A) (A) (A) (A) (A) (A)
 The electronic state is 1-A.
 Alpha  occ. eigenvalues --  -14.46813 -10.30079 -10.29432 -10.26694 -10.26005
 Alpha  occ. eigenvalues --  -10.25946 -10.25930 -10.25631 -10.24889  -1.07952
 Alpha  occ. eigenvalues --   -0.92837  -0.86092  -0.82590  -0.78935  -0.70522
 Alpha  occ. eigenvalues --   -0.67040  -0.65726  -0.61570  -0.55326  -0.54379
 Alpha  occ. eigenvalues --   -0.51126  -0.50268  -0.50249  -0.47083  -0.45600
 Alpha  occ. eigenvalues --   -0.42001  -0.40741  -0.40240  -0.33888  -0.28642
 Alpha  occ. eigenvalues --   -0.24582
 Alpha virt. eigenvalues --    0.01950   0.02242   0.04260   0.04852   0.06204
 Alpha virt. eigenvalues --    0.06345   0.06408   0.08105   0.08543   0.09021
 Alpha virt. eigenvalues --    0.09114   0.09253   0.11354   0.11877   0.13042
 Alpha virt. eigenvalues --    0.13178   0.13956   0.15463   0.16385   0.16666
 Alpha virt. eigenvalues --    0.17933   0.18590   0.19224   0.19863   0.20386
 Alpha virt. eigenvalues --    0.21322   0.21946   0.21982   0.22768   0.23572
 Alpha virt. eigenvalues --    0.24038   0.24962   0.25119   0.25919   0.26639
 Alpha virt. eigenvalues --    0.27007   0.27057   0.27884   0.28775   0.29546
 Alpha virt. eigenvalues --    0.30805   0.30842   0.32500   0.33876   0.34462
 Alpha virt. eigenvalues --    0.35679   0.36628   0.38143   0.40000   0.41569
 Alpha virt. eigenvalues --    0.42563   0.45231   0.49248   0.50656   0.57618
 Alpha virt. eigenvalues --    0.64248   0.68362   0.72916   0.73169   0.75317
 Alpha virt. eigenvalues --    0.77747   0.77823   0.78899   0.79120   0.80388
 Alpha virt. eigenvalues --    0.81238   0.82604   0.83383   0.85010   0.85639
 Alpha virt. eigenvalues --    0.87670   0.91211   0.94330   0.95344   0.96545
 Alpha virt. eigenvalues --    0.99670   1.00294   1.01340   1.01720   1.04402
 Alpha virt. eigenvalues --    1.06350   1.07749   1.09686   1.10493   1.15111
 Alpha virt. eigenvalues --    1.17436   1.18123   1.23704   1.24279   1.27010
 Alpha virt. eigenvalues --    1.28247   1.31058   1.31223   1.39075   1.39502
 Alpha virt. eigenvalues --    1.42269   1.43084   1.48000   1.49314   1.51270
 Alpha virt. eigenvalues --    1.54131   1.54508   1.57280   1.58059   1.60778
 Alpha virt. eigenvalues --    1.64738   1.72250   1.84051   1.90960   1.95894
 Alpha virt. eigenvalues --    1.97375   1.98757   2.01097   2.05871   2.07089
 Alpha virt. eigenvalues --    2.08835   2.13431   2.16909   2.22460   2.24176
 Alpha virt. eigenvalues --    2.24459   2.26525   2.32153   2.34001   2.35626
 Alpha virt. eigenvalues --    2.38013   2.39996   2.46184   2.50174   2.53565
 Alpha virt. eigenvalues --    2.60694   2.64735   2.71500   2.72578   2.75117
 Alpha virt. eigenvalues --    2.76896   2.80881   2.88573   2.91883   2.93117
 Alpha virt. eigenvalues --    3.02919   3.05997   3.17832   3.32342   3.52387
 Alpha virt. eigenvalues --    4.22381   4.32273   4.35651   4.37951   4.42604
 Alpha virt. eigenvalues --    4.46701   4.54740   4.58830   4.85802
          Condensed to atoms (all electrons):
               1          2          3          4          5          6
     1  C   19.372170   3.843224  -2.017744 -11.679236  -9.260000  -4.770297
     2  C    3.843224  24.338464   4.828864 -24.778672   9.494557 -19.838332
     3  C   -2.017744   4.828864  21.422333  -4.459874  -4.062346 -11.047492
     4  C  -11.679236 -24.778672  -4.459874  85.652838 -22.189676  17.904170
     5  C   -9.260000   9.494557  -4.062346 -22.189676  69.052039 -18.699555
     6  C   -4.770297 -19.838332 -11.047492  17.904170 -18.699555  45.254351
     7  N   -0.061111  -0.663526   2.059724   4.838169  -5.670386   0.000031
     8  C   16.639470  15.471309  -5.076092 -75.500514 -20.529882   0.266431
     9  C   -6.316036  -6.389079   4.210855  36.655670   6.613510  -2.985744
    10  H   -0.019123  -0.036092  -0.656668  -0.001475   1.064183   0.094012
    11  H    0.007191   0.002408   0.008106   0.027136  -0.102166  -0.025107
    12  H    0.005725   0.001271   0.016831   0.056883  -0.154591   0.007294
    13  H    0.041937   0.224015  -0.073311   0.104045  -0.076505   0.093213
    14  H    0.017341  -0.032472   0.261574   0.042204   0.023148  -0.008118
    15  H    0.323266   0.063502   0.016606  -0.049441   0.039249  -0.091430
    16  H   -0.078438  -0.038076  -0.042686   0.130293   0.115669   0.340663
               7          8          9         10         11         12
     1  C   -0.061111  16.639470  -6.316036  -0.019123   0.007191   0.005725
     2  C   -0.663526  15.471309  -6.389079  -0.036092   0.002408   0.001271
     3  C    2.059724  -5.076092   4.210855  -0.656668   0.008106   0.016831
     4  C    4.838169 -75.500514  36.655670  -0.001475   0.027136   0.056883
     5  C   -5.670386 -20.529882   6.613510   1.064183  -0.102166  -0.154591
     6  C    0.000031   0.266431  -2.985744   0.094012  -0.025107   0.007294
     7  N   12.792952 -17.295761  11.188506  -0.771817   0.004287  -0.086339
     8  C  -17.295761 191.441251 -97.958072   1.577337   0.483269   0.474097
     9  C   11.188506 -97.958072  59.917268  -1.085791  -0.096744   0.005498
    10  H   -0.771817   1.577337  -1.085791   0.468457  -0.000009   0.003831
    11  H    0.004287   0.483269  -0.096744  -0.000009   0.447561  -0.000488
    12  H   -0.086339   0.474097   0.005498   0.003831  -0.000488   0.390601
    13  H    0.002042  -0.019875   0.009542  -0.000014   0.000000  -0.000000
    14  H    0.001703  -0.013598   0.013496   0.000183   0.000001   0.000002
    15  H   -0.000194   0.012783  -0.003831   0.000000  -0.000001  -0.000000
    16  H    0.000747  -0.184854   0.047573  -0.000002   0.001242  -0.000002
              13         14         15         16
     1  C    0.041937   0.017341   0.323266  -0.078438
     2  C    0.224015  -0.032472   0.063502  -0.038076
     3  C   -0.073311   0.261574   0.016606  -0.042686
     4  C    0.104045   0.042204  -0.049441   0.130293
     5  C   -0.076505   0.023148   0.039249   0.115669
     6  C    0.093213  -0.008118  -0.091430   0.340663
     7  N    0.002042   0.001703  -0.000194   0.000747
     8  C   -0.019875  -0.013598   0.012783  -0.184854
     9  C    0.009542   0.013496  -0.003831   0.047573
    10  H   -0.000014   0.000183   0.000000  -0.000002
    11  H    0.000000   0.000001  -0.000001   0.001242
    12  H   -0.000000   0.000002  -0.000000  -0.000002
    13  H    0.485334  -0.003053  -0.004028  -0.000119
    14  H   -0.003053   0.443301  -0.000103   0.000013
    15  H   -0.004028  -0.000103   0.489401  -0.003513
    16  H   -0.000119   0.000013  -0.003513   0.490874
 Mulliken charges:
               1
     1  C   -0.048339
     2  C   -0.491367
     3  C    0.611319
     4  C   -0.752520
     5  C    0.342752
     6  C   -0.494091
     7  N    0.660973
     8  C   -3.787298
     9  C    2.173378
    10  H    0.362988
    11  H    0.243313
    12  H    0.279388
    13  H    0.216776
    14  H    0.254376
    15  H    0.207734
    16  H    0.220616
 Sum of Mulliken charges =  -0.00000
 Mulliken charges with hydrogens summed into heavy atoms:
               1
     1  C    0.159396
     2  C   -0.274590
     3  C    0.865695
     4  C   -0.752520
     5  C    0.342752
     6  C   -0.273475
     7  N    1.023961
     8  C   -3.543984
     9  C    2.452766
 Electronic spatial extent (au):  <R**2>=           1039.1209
 Charge=             -0.0000 electrons
 Dipole moment (field-independent basis, Debye):
    X=             -6.2577    Y=              6.0799    Z=             -0.0030  Tot=              8.7249
 Quadrupole moment (field-independent basis, Debye-Ang):
   XX=            -65.8026   YY=            -63.1119   ZZ=            -65.0420
   XY=             16.5968   XZ=             -0.0068   YZ=              0.0035
 Traceless Quadrupole moment (field-independent basis, Debye-Ang):
   XX=             -1.1504   YY=              1.5402   ZZ=             -0.3898
   XY=             16.5968   XZ=             -0.0068   YZ=              0.0035
 Octapole moment (field-independent basis, Debye-Ang**2):
  XXX=           -121.8459  YYY=             69.4713  ZZZ=             -0.0204  XYY=            -48.4868
  XXY=             53.2060  XXZ=             -0.0220  XZZ=            -19.0127  YZZ=             16.8511
  YYZ=             -0.0162  XYZ=              0.0064
 Hexadecapole moment (field-independent basis, Debye-Ang**3):
 XXXX=          -1370.6545 YYYY=           -658.2061 ZZZZ=           -132.8328 XXXY=            216.6231
 XXXZ=             -0.1059 YYYX=            145.0483 YYYZ=              0.0450 ZZZX=             -0.0507
 ZZZY=              0.0353 XXYY=           -354.8272 XXZZ=           -251.4955 YYZZ=           -145.1390
 XXYZ=              0.0184 YYXZ=             -0.0184 ZZXY=             37.3420
 N-N= 4.011585171256D+02 E-N=-1.641102815417D+03  KE= 3.601999475713D+02
 Unable to Open any file for archive entry.
 1\1\GINC-EXP-5-11\FOpt\RCAM-B3LYP TD-FC\6-31+G(d)\C8H7N1\CWALDT\23-Jun
 -2021\0\\# td= (nstates=6, root=3) CAM-B3LYP/6-31+G* Opt density=curre
 nt\\FuncsCAM-B3LYP-V-3rd\\0,1\C,-2.1651892259,0.7026666252,-0.00006370
 57\C,-2.1208250583,-0.6965403525,0.0000209607\C,-0.9078484658,-1.40949
 01279,0.0000928787\C,0.2453933434,-0.6648639978,0.0001185962\C,0.23397
 57868,0.7565714385,0.0000189973\C,-0.9948785554,1.4456179469,-0.000098
 5198\N,1.5849693414,-1.0666032574,0.0001326057\C,1.5780656832,1.169221
 055,0.0000966508\C,2.3694500146,-0.0174627422,0.0000152553\H,1.9456801
 191,-2.0616970276,0.0000843111\H,1.9669964331,2.179430299,0.0000703061
 \H,3.4482674087,-0.1393671935,-0.0000494264\H,-3.0511164198,-1.2548510
 538,0.000058717\H,-0.8885837572,-2.4912613799,0.0002081783\H,-3.125915
 9936,1.205973735,-0.0000751608\H,-1.0215376543,2.5301020329,-0.0000946
 443\\Version=AS64L-G16RevC.01\State=1-A\HF=-363.6142366\RMSD=8.813e-09
 \RMSF=1.271e-04\Dipole=-2.4619664,2.3920036,-0.0011617\Quadrupole=-0.8
 552976,1.1451378,-0.2898402,12.339308,-0.0050496,0.002622\PG=C01 [X(C8
 H7N1)]\\@
 The archive entry for this job was punched.


 CHILDREN YOU ARE VERY LITTLE,
 AND YOUR BONES ARE VERY BRITTLE;
 IF YOU WOULD GROW GREAT AND STATELY
 YOU MUST TRY TO WALK SEDATELY.
 YOU MUST STILL BE BRIGHT AND QUIET,
 AND CONTENT WITH SIMPLE DIET;
 AND REMAIN, THROUGH ALL BEWILD'RING
 INNOCENT AND HONEST CHILDREN.
     -- A CHILD'S GARDEN OF VERSE,
        ROBERT LOUIS STEVENSON
 Job cpu time:       0 days  2 hours 30 minutes 52.0 seconds.
 Elapsed time:       0 days  0 hours 38 minutes 35.9 seconds.
 File lengths (MBytes):  RWF=    238 Int=      0 D2E=      0 Chk=     11 Scr=      1
 Normal termination of Gaussian 16 at Wed Jun 23 08:59:36 2021.
