 Entering Gaussian System, Link 0=/cm/shared/apps/spack/cpu/opt/spack/linux-centos8-zen/gcc-8.3.1/gaussian-16.C.01-po5bqktfeugvmjyga3v7eigbecnokxng/g16/g16
 Initial command:
 /cm/shared/apps/spack/cpu/opt/spack/linux-centos8-zen/gcc-8.3.1/gaussian-16.C.01-po5bqktfeugvmjyga3v7eigbecnokxng/g16/l1.exe "/scratch/scaparas/job_3405856/Gau-86793.inp" -scrdir="/scratch/scaparas/job_3405856/"
 Entering Link 1 = /cm/shared/apps/spack/cpu/opt/spack/linux-centos8-zen/gcc-8.3.1/gaussian-16.C.01-po5bqktfeugvmjyga3v7eigbecnokxng/g16/l1.exe PID=     86794.
  
 Copyright (c) 1988-2019, Gaussian, Inc.  All Rights Reserved.
  
 This is part of the Gaussian(R) 16 program.  It is based on
 the Gaussian(R) 09 system (copyright 2009, Gaussian, Inc.),
 the Gaussian(R) 03 system (copyright 2003, Gaussian, Inc.),
 the Gaussian(R) 98 system (copyright 1998, Gaussian, Inc.),
 the Gaussian(R) 94 system (copyright 1995, Gaussian, Inc.),
 the Gaussian 92(TM) system (copyright 1992, Gaussian, Inc.),
 the Gaussian 90(TM) system (copyright 1990, Gaussian, Inc.),
 the Gaussian 88(TM) system (copyright 1988, Gaussian, Inc.),
 the Gaussian 86(TM) system (copyright 1986, Carnegie Mellon
 University), and the Gaussian 82(TM) system (copyright 1983,
 Carnegie Mellon University). Gaussian is a federally registered
 trademark of Gaussian, Inc.
  
 This software contains proprietary and confidential information,
 including trade secrets, belonging to Gaussian, Inc.
  
 This software is provided under written license and may be
 used, copied, transmitted, or stored only in accord with that
 written license.
  
 The following legend is applicable only to US Government
 contracts under FAR:
  
                    RESTRICTED RIGHTS LEGEND
  
 Use, reproduction and disclosure by the US Government is
 subject to restrictions as set forth in subparagraphs (a)
 and (c) of the Commercial Computer Software - Restricted
 Rights clause in FAR 52.227-19.
  
 Gaussian, Inc.
 340 Quinnipiac St., Bldg. 40, Wallingford CT 06492
  
  
 ---------------------------------------------------------------
 Warning -- This program may not be used in any manner that
 competes with the business of Gaussian, Inc. or will provide
 assistance to any competitor of Gaussian, Inc.  The licensee
 of this program is prohibited from giving any competitor of
 Gaussian, Inc. access to this program.  By using this program,
 the user acknowledges that Gaussian, Inc. is engaged in the
 business of creating and licensing software in the field of
 computational chemistry and represents and warrants to the
 licensee that it is not a competitor of Gaussian, Inc. and that
 it will not use this program in any manner prohibited above.
 ---------------------------------------------------------------
  

 Cite this work as:
 Gaussian 16, Revision C.01,
 M. J. Frisch, G. W. Trucks, H. B. Schlegel, G. E. Scuseria, 
 M. A. Robb, J. R. Cheeseman, G. Scalmani, V. Barone, 
 G. A. Petersson, H. Nakatsuji, X. Li, M. Caricato, A. V. Marenich, 
 J. Bloino, B. G. Janesko, R. Gomperts, B. Mennucci, H. P. Hratchian, 
 J. V. Ortiz, A. F. Izmaylov, J. L. Sonnenberg, D. Williams-Young, 
 F. Ding, F. Lipparini, F. Egidi, J. Goings, B. Peng, A. Petrone, 
 T. Henderson, D. Ranasinghe, V. G. Zakrzewski, J. Gao, N. Rega, 
 G. Zheng, W. Liang, M. Hada, M. Ehara, K. Toyota, R. Fukuda, 
 J. Hasegawa, M. Ishida, T. Nakajima, Y. Honda, O. Kitao, H. Nakai, 
 T. Vreven, K. Throssell, J. A. Montgomery, Jr., J. E. Peralta, 
 F. Ogliaro, M. J. Bearpark, J. J. Heyd, E. N. Brothers, K. N. Kudin, 
 V. N. Staroverov, T. A. Keith, R. Kobayashi, J. Normand, 
 K. Raghavachari, A. P. Rendell, J. C. Burant, S. S. Iyengar, 
 J. Tomasi, M. Cossi, J. M. Millam, M. Klene, C. Adamo, R. Cammi, 
 J. W. Ochterski, R. L. Martin, K. Morokuma, O. Farkas, 
 J. B. Foresman, and D. J. Fox, Gaussian, Inc., Wallingford CT, 2019.
 
 ******************************************
 Gaussian 16:  AS64L-G16RevC.01  3-Jul-2019
                14-Jun-2021 
 ******************************************
 %nprocshared=4
 Will use up to    4 processors via shared memory.
 %chk=FuncsBVP86-V-1st.chk
 %Mem=3GB
 -----------------------------------------------------------
 # td= (nstates=6, root=1) BVP86/6-31+G* Opt density=current
 -----------------------------------------------------------
 1/18=20,19=15,26=3,38=1/1,3;
 2/9=110,12=2,17=6,18=5,40=1/2;
 3/5=1,6=6,7=11,11=9,25=1,30=1,71=1,74=418/1,2,3,8;
 4//1;
 5/5=2,38=5/2;
 8/6=1,10=2,107=1,108=6/1;
 9/8=1,15=2,41=6,42=1,70=2/14;
 10/5=4,28=1/2;
 6/7=2,8=2,9=2,10=2,22=-1/1;
 7/12=6,13=5,14=1/1,2,3,16;
 1/18=20,19=15,26=3/3(2);
 2/9=110/2;
 99//99;
 2/9=110/2;
 3/5=1,6=6,7=11,11=9,25=1,30=1,71=1,74=418/1,2,3,8;
 4/5=5,16=3,69=1/1;
 5/5=2,38=5/2;
 8/6=1,10=2,107=1,108=6/1;
 9/8=1,15=2,41=6,42=1,49=4,70=2/14;
 10/5=4,28=1/2;
 7/12=6,13=5,14=1/1,2,3,16;
 1/18=20,19=15,26=3/3(-8);
 2/9=110/2;
 6/7=2,8=2,9=2,10=2,22=-1/1;
 99/9=10/99;
 ----------------
 FuncsBVP86-V-1st
 ----------------
 Symbolic Z-matrix:
 Charge =  0 Multiplicity = 1
 C                    -2.15106   0.68921   0.00009 
 C                    -2.12793  -0.71582   0.00008 
 C                    -0.9323   -1.4131   -0.00001 
 C                     0.24691  -0.6702   -0.00004 
 C                     0.24819   0.7483    0. 
 C                    -0.97947   1.42353   0.00003 
 N                     1.56177  -1.07759  -0.00029 
 C                     1.62013   1.1629   -0.00016 
 C                     2.38201   0.03081   0.00025 
 H                     1.87632  -2.03001   0.00044 
 H                     1.99217   2.17301  -0.00035 
 H                     3.45255  -0.08243   0.00041 
 H                    -3.06159  -1.26202   0.00009 
 H                    -0.91725  -2.49534  -0.00007 
 H                    -3.1042    1.20079   0.00009 
 H                    -1.00935   2.50542  -0.00002 
 

 GradGradGradGradGradGradGradGradGradGradGradGradGradGradGradGradGradGrad
 Berny optimization.
 Initialization pass.
                           ----------------------------
                           !    Initial Parameters    !
                           ! (Angstroms and Degrees)  !
 --------------------------                            --------------------------
 ! Name  Definition              Value          Derivative Info.                !
 --------------------------------------------------------------------------------
 ! R1    R(1,2)                  1.4052         estimate D2E/DX2                !
 ! R2    R(1,6)                  1.3827         estimate D2E/DX2                !
 ! R3    R(1,15)                 1.0818         estimate D2E/DX2                !
 ! R4    R(2,3)                  1.3841         estimate D2E/DX2                !
 ! R5    R(2,13)                 1.0817         estimate D2E/DX2                !
 ! R6    R(3,4)                  1.3937         estimate D2E/DX2                !
 ! R7    R(3,14)                 1.0823         estimate D2E/DX2                !
 ! R8    R(4,5)                  1.4185         estimate D2E/DX2                !
 ! R9    R(4,7)                  1.3765         estimate D2E/DX2                !
 ! R10   R(5,6)                  1.4011         estimate D2E/DX2                !
 ! R11   R(5,8)                  1.4332         estimate D2E/DX2                !
 ! R12   R(6,16)                 1.0823         estimate D2E/DX2                !
 ! R13   R(7,9)                  1.3789         estimate D2E/DX2                !
 ! R14   R(7,10)                 1.003          estimate D2E/DX2                !
 ! R15   R(8,9)                  1.3646         estimate D2E/DX2                !
 ! R16   R(8,11)                 1.0764         estimate D2E/DX2                !
 ! R17   R(9,12)                 1.0765         estimate D2E/DX2                !
 ! A1    A(2,1,6)              121.1349         estimate D2E/DX2                !
 ! A2    A(2,1,15)             119.1671         estimate D2E/DX2                !
 ! A3    A(6,1,15)             119.698          estimate D2E/DX2                !
 ! A4    A(1,2,3)              121.1938         estimate D2E/DX2                !
 ! A5    A(1,2,13)             119.3846         estimate D2E/DX2                !
 ! A6    A(3,2,13)             119.4217         estimate D2E/DX2                !
 ! A7    A(2,3,4)              117.5387         estimate D2E/DX2                !
 ! A8    A(2,3,14)             121.0469         estimate D2E/DX2                !
 ! A9    A(4,3,14)             121.4144         estimate D2E/DX2                !
 ! A10   A(3,4,5)              122.2626         estimate D2E/DX2                !
 ! A11   A(3,4,7)              130.5743         estimate D2E/DX2                !
 ! A12   A(5,4,7)              107.163          estimate D2E/DX2                !
 ! A13   A(4,5,6)              118.7594         estimate D2E/DX2                !
 ! A14   A(4,5,8)              106.8666         estimate D2E/DX2                !
 ! A15   A(6,5,8)              134.374          estimate D2E/DX2                !
 ! A16   A(1,6,5)              119.1105         estimate D2E/DX2                !
 ! A17   A(1,6,16)             120.4966         estimate D2E/DX2                !
 ! A18   A(5,6,16)             120.3928         estimate D2E/DX2                !
 ! A19   A(4,7,9)              109.2874         estimate D2E/DX2                !
 ! A20   A(4,7,10)             125.4909         estimate D2E/DX2                !
 ! A21   A(9,7,10)             125.2217         estimate D2E/DX2                !
 ! A22   A(5,8,9)              107.125          estimate D2E/DX2                !
 ! A23   A(5,8,11)             127.0344         estimate D2E/DX2                !
 ! A24   A(9,8,11)             125.8405         estimate D2E/DX2                !
 ! A25   A(7,9,8)              109.5578         estimate D2E/DX2                !
 ! A26   A(7,9,12)             120.4645         estimate D2E/DX2                !
 ! A27   A(8,9,12)             129.9776         estimate D2E/DX2                !
 ! D1    D(6,1,2,3)             -0.0008         estimate D2E/DX2                !
 ! D2    D(6,1,2,13)          -179.9981         estimate D2E/DX2                !
 ! D3    D(15,1,2,3)           179.996          estimate D2E/DX2                !
 ! D4    D(15,1,2,13)           -0.0013         estimate D2E/DX2                !
 ! D5    D(2,1,6,5)             -0.0018         estimate D2E/DX2                !
 ! D6    D(2,1,6,16)           179.9965         estimate D2E/DX2                !
 ! D7    D(15,1,6,5)          -179.9986         estimate D2E/DX2                !
 ! D8    D(15,1,6,16)           -0.0003         estimate D2E/DX2                !
 ! D9    D(1,2,3,4)              0.002          estimate D2E/DX2                !
 ! D10   D(1,2,3,14)          -179.9968         estimate D2E/DX2                !
 ! D11   D(13,2,3,4)           179.9992         estimate D2E/DX2                !
 ! D12   D(13,2,3,14)            0.0005         estimate D2E/DX2                !
 ! D13   D(2,3,4,5)             -0.0005         estimate D2E/DX2                !
 ! D14   D(2,3,4,7)           -179.9911         estimate D2E/DX2                !
 ! D15   D(14,3,4,5)           179.9982         estimate D2E/DX2                !
 ! D16   D(14,3,4,7)             0.0076         estimate D2E/DX2                !
 ! D17   D(3,4,5,6)             -0.002          estimate D2E/DX2                !
 ! D18   D(3,4,5,8)           -179.9955         estimate D2E/DX2                !
 ! D19   D(7,4,5,6)            179.9905         estimate D2E/DX2                !
 ! D20   D(7,4,5,8)             -0.003          estimate D2E/DX2                !
 ! D21   D(3,4,7,9)           -179.98           estimate D2E/DX2                !
 ! D22   D(3,4,7,10)            -0.0649         estimate D2E/DX2                !
 ! D23   D(5,4,7,9)              0.0284         estimate D2E/DX2                !
 ! D24   D(5,4,7,10)           179.9434         estimate D2E/DX2                !
 ! D25   D(4,5,6,1)              0.0031         estimate D2E/DX2                !
 ! D26   D(4,5,6,16)          -179.9951         estimate D2E/DX2                !
 ! D27   D(8,5,6,1)            179.9944         estimate D2E/DX2                !
 ! D28   D(8,5,6,16)            -0.0038         estimate D2E/DX2                !
 ! D29   D(4,5,8,9)             -0.0234         estimate D2E/DX2                !
 ! D30   D(4,5,8,11)           179.9883         estimate D2E/DX2                !
 ! D31   D(6,5,8,9)            179.9846         estimate D2E/DX2                !
 ! D32   D(6,5,8,11)            -0.0037         estimate D2E/DX2                !
 ! D33   D(4,7,9,8)             -0.0444         estimate D2E/DX2                !
 ! D34   D(4,7,9,12)           179.9847         estimate D2E/DX2                !
 ! D35   D(10,7,9,8)          -179.9597         estimate D2E/DX2                !
 ! D36   D(10,7,9,12)            0.0693         estimate D2E/DX2                !
 ! D37   D(5,8,9,7)              0.0414         estimate D2E/DX2                !
 ! D38   D(5,8,9,12)          -179.9913         estimate D2E/DX2                !
 ! D39   D(11,8,9,7)          -179.9702         estimate D2E/DX2                !
 ! D40   D(11,8,9,12)           -0.0029         estimate D2E/DX2                !
 --------------------------------------------------------------------------------
 Trust Radius=3.00D-01 FncErr=1.00D-07 GrdErr=1.00D-06 EigMax=2.50D+02 EigMin=1.00D-04
 Number of steps in this run=     94 maximum allowed number of steps=    100.
 GradGradGradGradGradGradGradGradGradGradGradGradGradGradGradGradGradGrad

                          Input orientation:                          
 ---------------------------------------------------------------------
 Center     Atomic      Atomic             Coordinates (Angstroms)
 Number     Number       Type             X           Y           Z
 ---------------------------------------------------------------------
      1          6           0       -2.151063    0.689208    0.000088
      2          6           0       -2.127927   -0.715818    0.000075
      3          6           0       -0.932297   -1.413100   -0.000011
      4          6           0        0.246911   -0.670201   -0.000042
      5          6           0        0.248193    0.748299    0.000000
      6          6           0       -0.979474    1.423526    0.000032
      7          7           0        1.561774   -1.077592   -0.000285
      8          6           0        1.620133    1.162900   -0.000157
      9          6           0        2.382013    0.030806    0.000248
     10          1           0        1.876315   -2.030011    0.000438
     11          1           0        1.992173    2.173010   -0.000348
     12          1           0        3.452549   -0.082425    0.000408
     13          1           0       -3.061594   -1.262020    0.000088
     14          1           0       -0.917252   -2.495342   -0.000073
     15          1           0       -3.104203    1.200785    0.000090
     16          1           0       -1.009348    2.505421   -0.000015
 ---------------------------------------------------------------------
                    Distance matrix (angstroms):
                    1          2          3          4          5
     1  C    0.000000
     2  C    1.405216   0.000000
     3  C    2.430039   1.384100   0.000000
     4  C    2.756496   2.375276   1.393711   0.000000
     5  C    2.399984   2.790983   2.462763   1.418501   0.000000
     6  C    1.382694   2.428114   2.837018   2.426461   1.401106
     7  N    4.111781   3.707395   2.516536   1.376529   2.249305
     8  C    3.800829   4.192557   3.626386   2.290414   1.433218
     9  C    4.580641   4.571324   3.615178   2.247236   2.251218
    10  H    4.859416   4.214387   2.875566   2.122273   3.220216
    11  H    4.400917   5.031953   4.627387   3.336134   2.251948
    12  H    5.656491   5.616307   4.582311   3.259079   3.310287
    13  H    2.153220   1.081698   2.134650   3.361020   3.872476
    14  H    3.415208   2.152310   1.082347   2.164813   3.446661
    15  H    1.081752   2.150926   3.398466   3.838040   3.382795
    16  H    2.145261   3.409927   3.919278   3.415079   2.160761
                    6          7          8          9         10
     6  C    0.000000
     7  N    3.565604   0.000000
     8  C    2.612639   2.241252   0.000000
     9  C    3.638580   1.378890   1.364587   0.000000
    10  H    4.481345   1.003015   3.203172   2.121956   0.000000
    11  H    3.064704   3.278972   1.076446   2.177387   4.204618
    12  H    4.680888   2.136677   2.215532   1.076508   2.505515
    13  H    3.398144   4.627045   5.272457   5.595021   4.997275
    14  H    3.919362   2.855798   4.452085   4.155307   2.832058
    15  H    2.136372   5.192528   4.724488   5.609583   5.936632
    16  H    1.082307   4.410062   2.952378   4.198220   5.375611
                   11         12         13         14         15
    11  H    0.000000
    12  H    2.686947   0.000000
    13  H    6.110646   6.620083   0.000000
    14  H    5.500751   4.991726   2.473719   0.000000
    15  H    5.188282   6.681139   2.463174   4.294661   0.000000
    16  H    3.019872   5.158049   4.290143   5.001611   2.467892
                   16
    16  H    0.000000
 Stoichiometry    C8H7N
 Framework group  C1[X(C8H7N)]
 Deg. of freedom    42
 Full point group                 C1      NOp   1
 Largest Abelian subgroup         C1      NOp   1
 Largest concise Abelian subgroup C1      NOp   1
                         Standard orientation:                         
 ---------------------------------------------------------------------
 Center     Atomic      Atomic             Coordinates (Angstroms)
 Number     Number       Type             X           Y           Z
 ---------------------------------------------------------------------
      1          6           0       -2.151063    0.689208    0.000088
      2          6           0       -2.127927   -0.715818    0.000075
      3          6           0       -0.932297   -1.413100   -0.000011
      4          6           0        0.246911   -0.670201   -0.000042
      5          6           0        0.248193    0.748299    0.000000
      6          6           0       -0.979474    1.423526    0.000032
      7          7           0        1.561774   -1.077592   -0.000285
      8          6           0        1.620133    1.162900   -0.000157
      9          6           0        2.382013    0.030806    0.000248
     10          1           0        1.876315   -2.030011    0.000438
     11          1           0        1.992173    2.173010   -0.000348
     12          1           0        3.452549   -0.082425    0.000408
     13          1           0       -3.061594   -1.262020    0.000088
     14          1           0       -0.917252   -2.495342   -0.000073
     15          1           0       -3.104203    1.200785    0.000090
     16          1           0       -1.009348    2.505421   -0.000015
 ---------------------------------------------------------------------
 Rotational constants (GHZ):           3.9080822           1.6429452           1.1566805
 Standard basis: 6-31+G(d) (6D, 7F)
 There are   185 symmetry adapted cartesian basis functions of A   symmetry.
 There are   185 symmetry adapted basis functions of A   symmetry.
   185 basis functions,   316 primitive gaussians,   185 cartesian basis functions
    31 alpha electrons       31 beta electrons
       nuclear repulsion energy       401.3368668897 Hartrees.
 NAtoms=   16 NActive=   16 NUniq=   16 SFac= 1.00D+00 NAtFMM=   60 NAOKFM=F Big=F
 Integral buffers will be    131072 words long.
 Regular integral format.
 Two-electron integral symmetry is turned on.
 One-electron integrals computed using PRISM.
 NBasis=   185 RedAO= T EigKep=  1.26D-06  NBF=   185
 NBsUse=   185 1.00D-06 EigRej= -1.00D+00 NBFU=   185
 ExpMin= 4.38D-02 ExpMax= 4.17D+03 ExpMxC= 6.27D+02 IAcc=3 IRadAn=         5 AccDes= 0.00D+00
 Harris functional with IExCor=  418 and IRadAn=       5 diagonalized for initial guess.
 HarFok:  IExCor=  418 AccDes= 0.00D+00 IRadAn=         5 IDoV= 1 UseB2=F ITyADJ=14
 ICtDFT=  3500011 ScaDFX=  1.000000  1.000000  1.000000  1.000000
 FoFCou: FMM=F IPFlag=           0 FMFlag=      100000 FMFlg1=           0
         NFxFlg=           0 DoJE=T BraDBF=F KetDBF=T FulRan=T
         wScrn=  0.000000 ICntrl=       500 IOpCl=  0 I1Cent=   200000004 NGrid=           0
         NMat0=    1 NMatS0=      1 NMatT0=    0 NMatD0=    1 NMtDS0=    0 NMtDT0=    0
 Petite list used in FoFCou.
 Keep J ints in memory in canonical form, NReq=152071459.
 Requested convergence on RMS density matrix=1.00D-08 within 128 cycles.
 Requested convergence on MAX density matrix=1.00D-06.
 Requested convergence on             energy=1.00D-06.
 No special actions if energy rises.
 SCF Done:  E(RB-VP86) =  -363.845290966     A.U. after   15 cycles
            NFock= 15  Conv=0.76D-08     -V/T= 2.0097
 DoSCS=F DFT=T ScalE2(SS,OS)=  1.000000  1.000000
 ExpMin= 4.38D-02 ExpMax= 4.17D+03 ExpMxC= 6.27D+02 IAcc=3 IRadAn=         5 AccDes= 0.00D+00
 HarFok:  IExCor=  205 AccDes= 0.00D+00 IRadAn=         5 IDoV=-2 UseB2=F ITyADJ=14
 ICtDFT= 12500011 ScaDFX=  1.000000  1.000000  1.000000  1.000000
 Range of M.O.s used for correlation:    10   185
 NBasis=   185 NAE=    31 NBE=    31 NFC=     9 NFV=     0
 NROrb=    176 NOA=    22 NOB=    22 NVA=   154 NVB=   154

 **** Warning!!: The largest alpha MO coefficient is  0.20620284D+03

 Keep J ints in memory in canonical form, NReq=168659827.
 Orbital symmetries:
       Occupied  (A) (A) (A) (A) (A) (A) (A) (A) (A) (A) (A) (A)
                 (A) (A) (A) (A) (A) (A) (A) (A) (A) (A) (A) (A)
                 (A) (A) (A) (A) (A) (A) (A)
       Virtual   (A) (A) (A) (A) (A) (A) (A) (A) (A) (A) (A) (A)
                 (A) (A) (A) (A) (A) (A) (A) (A) (A) (A) (A) (A)
                 (A) (A) (A) (A) (A) (A) (A) (A) (A) (A) (A) (A)
                 (A) (A) (A) (A) (A) (A) (A) (A) (A) (A) (A) (A)
                 (A) (A) (A) (A) (A) (A) (A) (A) (A) (A) (A) (A)
                 (A) (A) (A) (A) (A) (A) (A) (A) (A) (A) (A) (A)
                 (A) (A) (A) (A) (A) (A) (A) (A) (A) (A) (A) (A)
                 (A) (A) (A) (A) (A) (A) (A) (A) (A) (A) (A) (A)
                 (A) (A) (A) (A) (A) (A) (A) (A) (A) (A) (A) (A)
                 (A) (A) (A) (A) (A) (A) (A) (A) (A) (A) (A) (A)
                 (A) (A) (A) (A) (A) (A) (A) (A) (A) (A) (A) (A)
                 (A) (A) (A) (A) (A) (A) (A) (A) (A) (A) (A) (A)
                 (A) (A) (A) (A) (A) (A) (A) (A) (A) (A)
    24 initial guesses have been made.
 Convergence on wavefunction:    0.000001000000000
 Iteration     1 Dimension    24 NMult     0 NNew     24
 CISAX will form    24 AO SS matrices at one time.
 New state      2 was old state      4
 New state      3 was old state      2
 New state      4 was old state      6
 New state      5 was old state      7
 New state      6 was old state      8
 Iteration     2 Dimension    48 NMult    24 NNew     24
 New state      2 was old state      3
 New state      3 was old state      2
 Iteration     3 Dimension    54 NMult    48 NNew      6
 Iteration     4 Dimension    60 NMult    54 NNew      6
 Iteration     5 Dimension    66 NMult    60 NNew      6
 Iteration     6 Dimension    72 NMult    66 NNew      6
 Iteration     7 Dimension    78 NMult    72 NNew      6
 Iteration     8 Dimension    84 NMult    78 NNew      6
 Iteration     9 Dimension    90 NMult    84 NNew      6
 Iteration    10 Dimension    96 NMult    90 NNew      6
 Iteration    11 Dimension   102 NMult    96 NNew      6
 Iteration    12 Dimension   108 NMult   102 NNew      6
 Iteration    13 Dimension   114 NMult   108 NNew      6
 Iteration    14 Dimension   120 NMult   114 NNew      6
 Iteration    15 Dimension   126 NMult   120 NNew      6
 Iteration    16 Dimension   132 NMult   126 NNew      6
 Iteration    17 Dimension   134 NMult   132 NNew      2
 Iteration    18 Dimension   136 NMult   134 NNew      2
 Iteration    19 Dimension   139 NMult   136 NNew      3
 Iteration    20 Dimension   142 NMult   139 NNew      3
 Iteration    21 Dimension   143 NMult   142 NNew      1
 Iteration    22 Dimension   144 NMult   143 NNew      1
 Iteration    23 Dimension   145 NMult   144 NNew      1
 ***********************************************************************
 Excited states from <AA,BB:AA,BB> singles matrix:
 ***********************************************************************
 
 Ground to excited state transition densities written to RWF  633
 Ground to excited state transition electric dipole moments (Au):
       state          X           Y           Z        Dip. S.      Osc.
         1        -0.4651      0.5359     -0.0001      0.5035      0.0550
         2        -0.3909     -0.1204     -0.0001      0.1673      0.0193
         3         0.0007     -0.0003     -0.1086      0.0118      0.0014
         4        -0.0004      0.0002     -0.1325      0.0176      0.0023
         5         0.0005     -0.0000      0.0108      0.0001      0.0000
         6         0.0009      0.0002      0.0963      0.0093      0.0013
 Ground to excited state transition velocity dipole moments (Au):
       state          X           Y           Z        Dip. S.      Osc.
         1         0.0679     -0.0962      0.0000      0.0139      0.0564
         2         0.0634      0.0218      0.0000      0.0045      0.0173
         3        -0.0001      0.0001      0.0109      0.0001      0.0004
         4         0.0001     -0.0000      0.0261      0.0007      0.0023
         5        -0.0001      0.0000     -0.0007      0.0000      0.0000
         6        -0.0002     -0.0000     -0.0197      0.0004      0.0013
 Ground to excited state transition magnetic dipole moments (Au):
       state          X           Y           Z
         1         0.0002     -0.0000      0.1981
         2        -0.0000     -0.0002      0.0105
         3         0.1132     -0.0476      0.0001
         4         0.0098     -0.1836      0.0000
         5         0.2763     -0.0979      0.0002
         6         0.0527      0.3278      0.0006
 Ground to excited state transition velocity quadrupole moments (Au):
       state          XX          YY          ZZ          XY          XZ          YZ
         1         0.1464     -0.0884      0.0077      0.0602      0.0001      0.0001
         2         0.0521     -0.0860      0.0224      0.0112      0.0001     -0.0000
         3        -0.0002      0.0001      0.0001      0.0001      0.0422      0.0507
         4        -0.0001      0.0001     -0.0000     -0.0000      0.1174     -0.0439
         5        -0.0002     -0.0001      0.0000      0.0002      0.1174      0.2106
         6         0.0000     -0.0001      0.0000      0.0003     -0.2899     -0.0178
 <0|del|b> * <b|rxdel|0> + <0|del|b> * <b|delr+rdel|0>
 Rotatory Strengths (R) in cgs (10**-40 erg-esu-cm/Gauss)
       state          XX          YY          ZZ    R(velocity)    E-M Angle
         1         0.0230      0.0448      0.0133      0.0270       90.00
         2        -0.0118     -0.0062     -0.0048     -0.0076       90.00
         3        -0.0061     -0.0314     -0.0133     -0.0169       90.00
         4         0.0179     -0.0029      0.0126      0.0092       90.00
         5        -0.0038     -0.0791     -0.0104     -0.0311       90.00
         6        -0.0654     -0.0213     -0.0236     -0.0367       90.00
 1/2[<0|r|b>*<b|rxdel|0> + (<0|rxdel|b>*<b|r|0>)*]
 Rotatory Strengths (R) in cgs (10**-40 erg-esu-cm/Gauss)
       state          XX          YY          ZZ     R(length)
         1         0.0757      0.0033      0.0151      0.0314
         2        -0.0075     -0.0158      0.0010     -0.0074
         3        -0.0532     -0.0096      0.0110     -0.0172
         4         0.0030      0.0209      0.0033      0.0090
         5        -0.0949     -0.0026     -0.0019     -0.0331
         6        -0.0330     -0.0497     -0.0412     -0.0413
  1/2[<0|del|b>*<b|r|0> + (<0|r|b>*<b|del|0>)*] (Au)
       state          X           Y           Z        Dip. S.   Osc.(frdel)
         1        -0.0316     -0.0515     -0.0000      0.0831      0.0554
         2        -0.0248     -0.0026     -0.0000      0.0274      0.0183
         3        -0.0000     -0.0000     -0.0012      0.0012      0.0008
         4        -0.0000     -0.0000     -0.0035      0.0035      0.0023
         5        -0.0000     -0.0000     -0.0000      0.0000      0.0000
         6        -0.0000     -0.0000     -0.0019      0.0019      0.0013

 Excitation energies and oscillator strengths:
 
 Excited State   1:      Singlet-A      4.4566 eV  278.20 nm  f=0.0550  <S**2>=0.000
      29 -> 32         0.13496
      30 -> 33         0.12102
      31 -> 32         0.66148
 This state for optimization and/or second-order correction.
 Total Energy, E(TD-HF/TD-DFT) =  -363.681513354    
 Copying the excited state density for this state as the 1-particle RhoCI density.
 
 Excited State   2:      Singlet-A      4.7050 eV  263.51 nm  f=0.0193  <S**2>=0.000
      30 -> 32         0.55077
      31 -> 33        -0.43625
 
 Excited State   3:      Singlet-A      4.8470 eV  255.80 nm  f=0.0014  <S**2>=0.000
      31 -> 34         0.70681
 
 Excited State   4:      Singlet-A      5.2949 eV  234.16 nm  f=0.0023  <S**2>=0.000
      30 -> 34         0.70648
 
 Excited State   5:      Singlet-A      5.3526 eV  231.63 nm  f=0.0000  <S**2>=0.000
      31 -> 35         0.70639
 
 Excited State   6:      Singlet-A      5.5532 eV  223.26 nm  f=0.0013  <S**2>=0.000
      31 -> 36         0.70664
 SavETr:  write IOETrn=   770 NScale= 10 NData=  16 NLR=1 NState=    6 LETran=     118.
          IDoAtm=1111111111111111
          Differentiating once with respect to electric field.
                with respect to dipole field.
          Differentiating once with respect to nuclear coordinates.
 Keep J ints in memory in canonical form, NReq=152083851.
          There are     1 degrees of freedom in the 1st order CPHF.  IDoFFX=0 NUNeed=     1.
 LinEq1:  Iter=  0 NonCon=     1 RMS=2.16D-02 Max=7.51D-01 NDo=     1
 AX will form     1 AO Fock derivatives at one time.
 LinEq1:  Iter=  1 NonCon=     1 RMS=1.06D-02 Max=2.59D-01 NDo=     1
 LinEq1:  Iter=  2 NonCon=     1 RMS=1.13D-02 Max=4.01D-01 NDo=     1
 LinEq1:  Iter=  3 NonCon=     1 RMS=5.57D-03 Max=1.64D-01 NDo=     1
 LinEq1:  Iter=  4 NonCon=     1 RMS=6.40D-03 Max=1.89D-01 NDo=     1
 LinEq1:  Iter=  5 NonCon=     1 RMS=3.01D-03 Max=8.18D-02 NDo=     1
 LinEq1:  Iter=  6 NonCon=     1 RMS=2.02D-03 Max=3.50D-02 NDo=     1
 LinEq1:  Iter=  7 NonCon=     1 RMS=1.28D-03 Max=2.61D-02 NDo=     1
 LinEq1:  Iter=  8 NonCon=     1 RMS=7.09D-04 Max=1.65D-02 NDo=     1
 LinEq1:  Iter=  9 NonCon=     1 RMS=5.89D-04 Max=1.32D-02 NDo=     1
 LinEq1:  Iter= 10 NonCon=     1 RMS=3.09D-04 Max=5.22D-03 NDo=     1
 LinEq1:  Iter= 11 NonCon=     1 RMS=2.24D-04 Max=3.43D-03 NDo=     1
 LinEq1:  Iter= 12 NonCon=     1 RMS=7.17D-05 Max=1.13D-03 NDo=     1
 LinEq1:  Iter= 13 NonCon=     1 RMS=4.50D-05 Max=1.14D-03 NDo=     1
 LinEq1:  Iter= 14 NonCon=     1 RMS=1.32D-05 Max=1.19D-04 NDo=     1
 LinEq1:  Iter= 15 NonCon=     1 RMS=2.22D-06 Max=3.60D-05 NDo=     1
 LinEq1:  Iter= 16 NonCon=     1 RMS=1.76D-06 Max=3.67D-05 NDo=     1
 LinEq1:  Iter= 17 NonCon=     1 RMS=6.55D-07 Max=1.17D-05 NDo=     1
 LinEq1:  Iter= 18 NonCon=     1 RMS=1.35D-07 Max=1.38D-06 NDo=     1
 LinEq1:  Iter= 19 NonCon=     1 RMS=2.07D-08 Max=2.38D-07 NDo=     1
 LinEq1:  Iter= 20 NonCon=     1 RMS=6.96D-09 Max=8.84D-08 NDo=     1
 LinEq1:  Iter= 21 NonCon=     1 RMS=2.06D-09 Max=2.97D-08 NDo=     1
 LinEq1:  Iter= 22 NonCon=     1 RMS=4.41D-10 Max=4.74D-09 NDo=     1
 LinEq1:  Iter= 23 NonCon=     0 RMS=6.82D-11 Max=6.77D-10 NDo=     1
 Linear equations converged to 1.000D-10 1.000D-09 after    23 iterations.
 End of Minotr F.D. properties file   721 does not exist.
 End of Minotr F.D. properties file   722 does not exist.
 End of Minotr F.D. properties file   788 does not exist.

 **********************************************************************

            Population analysis using the CI Density.

 **********************************************************************

 Orbital symmetries:
       Occupied  (A) (A) (A) (A) (A) (A) (A) (A) (A) (A) (A) (A)
                 (A) (A) (A) (A) (A) (A) (A) (A) (A) (A) (A) (A)
                 (A) (A) (A) (A) (A) (A) (A)
       Virtual   (A) (A) (A) (A) (A) (A) (A) (A) (A) (A) (A) (A)
                 (A) (A) (A) (A) (A) (A) (A) (A) (A) (A) (A) (A)
                 (A) (A) (A) (A) (A) (A) (A) (A) (A) (A) (A) (A)
                 (A) (A) (A) (A) (A) (A) (A) (A) (A) (A) (A) (A)
                 (A) (A) (A) (A) (A) (A) (A) (A) (A) (A) (A) (A)
                 (A) (A) (A) (A) (A) (A) (A) (A) (A) (A) (A) (A)
                 (A) (A) (A) (A) (A) (A) (A) (A) (A) (A) (A) (A)
                 (A) (A) (A) (A) (A) (A) (A) (A) (A) (A) (A) (A)
                 (A) (A) (A) (A) (A) (A) (A) (A) (A) (A) (A) (A)
                 (A) (A) (A) (A) (A) (A) (A) (A) (A) (A) (A) (A)
                 (A) (A) (A) (A) (A) (A) (A) (A) (A) (A) (A) (A)
                 (A) (A) (A) (A) (A) (A) (A) (A) (A) (A) (A) (A)
                 (A) (A) (A) (A) (A) (A) (A) (A) (A) (A)
 The electronic state is 1-A.
 Alpha  occ. eigenvalues --  -14.07390  -9.94898  -9.94724  -9.91821  -9.91413
 Alpha  occ. eigenvalues --   -9.91227  -9.91214  -9.90785  -9.90637  -0.90790
 Alpha  occ. eigenvalues --   -0.76920  -0.71683  -0.67178  -0.65430  -0.57084
 Alpha  occ. eigenvalues --   -0.54336  -0.52976  -0.49254  -0.43806  -0.42588
 Alpha  occ. eigenvalues --   -0.39554  -0.38652  -0.38191  -0.36894  -0.35143
 Alpha  occ. eigenvalues --   -0.31574  -0.30122  -0.29706  -0.25151  -0.20312
 Alpha  occ. eigenvalues --   -0.18638
 Alpha virt. eigenvalues --   -0.04424  -0.01027  -0.00793   0.01081   0.01855
 Alpha virt. eigenvalues --    0.01959   0.03278   0.03486   0.05210   0.05703
 Alpha virt. eigenvalues --    0.05971   0.06334   0.08087   0.08426   0.09996
 Alpha virt. eigenvalues --    0.10356   0.10568   0.11910   0.12954   0.12956
 Alpha virt. eigenvalues --    0.14307   0.14534   0.15156   0.15661   0.15853
 Alpha virt. eigenvalues --    0.16177   0.17151   0.17671   0.18078   0.18503
 Alpha virt. eigenvalues --    0.18894   0.19173   0.20367   0.20690   0.21516
 Alpha virt. eigenvalues --    0.22097   0.22727   0.22734   0.23762   0.24315
 Alpha virt. eigenvalues --    0.25575   0.26140   0.26430   0.27311   0.27721
 Alpha virt. eigenvalues --    0.28494   0.29782   0.30906   0.32761   0.33673
 Alpha virt. eigenvalues --    0.34507   0.36962   0.38863   0.41466   0.47325
 Alpha virt. eigenvalues --    0.53392   0.57489   0.62720   0.63621   0.65124
 Alpha virt. eigenvalues --    0.67066   0.67344   0.68311   0.68797   0.69221
 Alpha virt. eigenvalues --    0.70352   0.70634   0.72730   0.74144   0.74841
 Alpha virt. eigenvalues --    0.76682   0.80201   0.84103   0.84798   0.85910
 Alpha virt. eigenvalues --    0.88363   0.88923   0.90102   0.90388   0.93116
 Alpha virt. eigenvalues --    0.94694   0.97912   0.99823   1.01130   1.04799
 Alpha virt. eigenvalues --    1.06432   1.06550   1.12056   1.12834   1.15352
 Alpha virt. eigenvalues --    1.17598   1.17621   1.19852   1.25959   1.26074
 Alpha virt. eigenvalues --    1.27987   1.31286   1.35096   1.36156   1.39235
 Alpha virt. eigenvalues --    1.39525   1.40349   1.43295   1.43809   1.48083
 Alpha virt. eigenvalues --    1.52798   1.58884   1.72092   1.77513   1.81185
 Alpha virt. eigenvalues --    1.82274   1.84996   1.87658   1.92063   1.92452
 Alpha virt. eigenvalues --    1.93410   1.98847   2.02445   2.06879   2.09710
 Alpha virt. eigenvalues --    2.10117   2.12361   2.17436   2.18681   2.19169
 Alpha virt. eigenvalues --    2.21395   2.24091   2.30557   2.33292   2.37170
 Alpha virt. eigenvalues --    2.47170   2.48055   2.56069   2.58229   2.59204
 Alpha virt. eigenvalues --    2.61930   2.65567   2.72930   2.76803   2.77600
 Alpha virt. eigenvalues --    2.87543   2.90153   3.02769   3.15691   3.36211
 Alpha virt. eigenvalues --    4.05249   4.16548   4.19560   4.23034   4.26583
 Alpha virt. eigenvalues --    4.30125   4.38503   4.42419   4.69358
          Condensed to atoms (all electrons):
               1          2          3          4          5          6
     1  C    5.657031   0.538389   0.176172  -0.780636   0.064273  -0.191794
     2  C    0.538389   6.069857  -0.474802   0.677488  -0.889545   0.635014
     3  C    0.176172  -0.474802  16.136926  -4.302246  -4.367003  -3.275359
     4  C   -0.780636   0.677488  -4.302246  15.193202  -3.315527  -0.567748
     5  C    0.064273  -0.889545  -4.367003  -3.315527  16.948246  -0.999764
     6  C   -0.191794   0.635014  -3.275359  -0.567748  -0.999764  13.994360
     7  N   -0.023503   0.001773  -0.513466  -0.545732   0.924072   0.182128
     8  C    0.243004  -0.430529   4.421443   0.841867  -6.503879  -4.054295
     9  C   -0.100462   0.072218  -1.650855  -0.215862   2.353254   1.049317
    10  H   -0.000809  -0.012351  -0.125318  -0.059195   0.162700   0.020665
    11  H    0.004088   0.001373   0.000419   0.006455  -0.007638   0.028609
    12  H    0.000867   0.000556   0.038365   0.106742  -0.106621  -0.028650
    13  H   -0.001870   0.267131  -0.022330   0.030472  -0.003453   0.020310
    14  H    0.028171   0.024868   0.189587   0.041695   0.030378  -0.026807
    15  H    0.273036  -0.004923   0.035509  -0.028561   0.036341  -0.028727
    16  H    0.010694   0.026830  -0.049012   0.031657   0.068343   0.252619
               7          8          9         10         11         12
     1  C   -0.023503   0.243004  -0.100462  -0.000809   0.004088   0.000867
     2  C    0.001773  -0.430529   0.072218  -0.012351   0.001373   0.000556
     3  C   -0.513466   4.421443  -1.650855  -0.125318   0.000419   0.038365
     4  C   -0.545732   0.841867  -0.215862  -0.059195   0.006455   0.106742
     5  C    0.924072  -6.503879   2.353254   0.162700  -0.007638  -0.106621
     6  C    0.182128  -4.054295   1.049317   0.020665   0.028609  -0.028650
     7  N    7.261647  -0.711692   0.599533   0.248807   0.006500  -0.061337
     8  C   -0.711692  14.818349  -3.167711   0.027513   0.273225   0.023229
     9  C    0.599533  -3.167711   7.147556  -0.050571  -0.030277   0.327829
    10  H    0.248807   0.027513  -0.050571   0.360308  -0.000073  -0.002445
    11  H    0.006500   0.273225  -0.030277  -0.000073   0.498521  -0.001081
    12  H   -0.061337   0.023229   0.327829  -0.002445  -0.001081   0.490661
    13  H   -0.000617  -0.002079   0.001802  -0.000003  -0.000000  -0.000000
    14  H   -0.013383  -0.014950   0.011858   0.002892   0.000003   0.000004
    15  H    0.000338   0.006990  -0.000427  -0.000000  -0.000002  -0.000000
    16  H   -0.001067  -0.073433   0.006257   0.000006   0.001783  -0.000001
              13         14         15         16
     1  C   -0.001870   0.028171   0.273036   0.010694
     2  C    0.267131   0.024868  -0.004923   0.026830
     3  C   -0.022330   0.189587   0.035509  -0.049012
     4  C    0.030472   0.041695  -0.028561   0.031657
     5  C   -0.003453   0.030378   0.036341   0.068343
     6  C    0.020310  -0.026807  -0.028727   0.252619
     7  N   -0.000617  -0.013383   0.000338  -0.001067
     8  C   -0.002079  -0.014950   0.006990  -0.073433
     9  C    0.001802   0.011858  -0.000427   0.006257
    10  H   -0.000003   0.002892  -0.000000   0.000006
    11  H   -0.000000   0.000003  -0.000002   0.001783
    12  H   -0.000000   0.000004  -0.000000  -0.000001
    13  H    0.550891  -0.005810  -0.005752  -0.000189
    14  H   -0.005810   0.563745  -0.000189   0.000022
    15  H   -0.005752  -0.000189   0.551430  -0.005724
    16  H   -0.000189   0.000022  -0.005724   0.558484
 Mulliken charges:
               1
     1  C    0.103351
     2  C   -0.503348
     3  C   -0.218030
     4  C   -1.114072
     5  C    1.605824
     6  C   -1.009877
     7  N   -0.354002
     8  C    0.302949
     9  C   -0.353459
    10  H    0.427875
    11  H    0.218097
    12  H    0.211883
    13  H    0.171498
    14  H    0.167918
    15  H    0.170663
    16  H    0.172732
 Sum of Mulliken charges =  -0.00000
 Mulliken charges with hydrogens summed into heavy atoms:
               1
     1  C    0.274013
     2  C   -0.331850
     3  C   -0.050112
     4  C   -1.114072
     5  C    1.605824
     6  C   -0.837145
     7  N    0.073873
     8  C    0.521045
     9  C   -0.141576
 Electronic spatial extent (au):  <R**2>=           1007.3700
 Charge=             -0.0000 electrons
 Dipole moment (field-independent basis, Debye):
    X=              4.4719    Y=             -1.1074    Z=             -0.0006  Tot=              4.6070
 Quadrupole moment (field-independent basis, Debye-Ang):
   XX=            -45.6457   YY=            -46.2229   ZZ=            -59.6909
   XY=             -2.4082   XZ=             -0.0001   YZ=             -0.0005
 Traceless Quadrupole moment (field-independent basis, Debye-Ang):
   XX=              4.8741   YY=              4.2969   ZZ=             -9.1711
   XY=             -2.4082   XZ=             -0.0001   YZ=             -0.0005
 Octapole moment (field-independent basis, Debye-Ang**2):
  XXX=             26.2829  YYY=             -8.4307  ZZZ=             -0.0097  XYY=             17.0656
  XXY=             -5.5100  XXZ=             -0.0013  XZZ=              5.4580  YZZ=             -0.7601
  YYZ=             -0.0064  XYZ=             -0.0023
 Hexadecapole moment (field-independent basis, Debye-Ang**3):
 XXXX=           -848.7240 YYYY=           -395.9761 ZZZZ=            -82.5504 XXXY=            -17.1843
 XXXZ=             -0.0098 YYYX=            -15.8729 YYYZ=              0.0053 ZZZX=             -0.0079
 ZZZY=              0.0098 XXYY=           -193.9719 XXZZ=           -196.2339 YYZZ=           -101.2429
 XXYZ=             -0.0014 YYXZ=              0.0032 ZZXY=             -1.9423
 N-N= 4.013368668897D+02 E-N=-1.645123003113D+03  KE= 3.605038890389D+02
 Calling FoFJK, ICntrl=  10005527 FMM=F ISym2X=0 I1Cent= 0 IOpClX= 0 NMat=1 NMatS=1 NMatT=0.
 ***** Axes restored to original set *****
 -------------------------------------------------------------------
 Center     Atomic                   Forces (Hartrees/Bohr)
 Number     Number              X              Y              Z
 -------------------------------------------------------------------
      1        6          -0.026733269   -0.033367302   -0.000001823
      2        6          -0.037263548    0.036876778    0.000000218
      3        6           0.027712237   -0.040591629   -0.000004262
      4        6          -0.016205278    0.031026357   -0.000021885
      5        6           0.001938895   -0.024614411   -0.000019723
      6        6           0.011440870    0.038242418    0.000010669
      7        7           0.021755613    0.025190393    0.000049657
      8        6          -0.028502338    0.026099562    0.000013811
      9        6           0.042866361   -0.052131203   -0.000028206
     10        1           0.005810351   -0.014205114    0.000003459
     11        1           0.003931782    0.009031625    0.000000357
     12        1           0.008825596   -0.001584192   -0.000004425
     13        1          -0.008153420   -0.004155378    0.000000884
     14        1           0.000664821   -0.008974991   -0.000002880
     15        1          -0.008261625    0.004125531    0.000001446
     16        1           0.000172952    0.009031556    0.000002703
 -------------------------------------------------------------------
 Cartesian Forces:  Max     0.052131203 RMS     0.019537157

 GradGradGradGradGradGradGradGradGradGradGradGradGradGradGradGradGradGrad
 Berny optimization.
 FormGI is forming the generalized inverse of G from B-inverse, IUseBI=4.
 Internal  Forces:  Max     0.054196313 RMS     0.012386158
 Search for a local minimum.
 Step number   1 out of a maximum of   94
 All quantities printed in internal units (Hartrees-Bohrs-Radians)
 Mixed Optimization -- RFO/linear search
 Second derivative matrix not updated -- first step.
 ITU=  0
     Eigenvalues ---    0.01853   0.01931   0.01986   0.02012   0.02070
     Eigenvalues ---    0.02113   0.02148   0.02153   0.02172   0.02209
     Eigenvalues ---    0.02233   0.02248   0.02338   0.16000   0.16000
     Eigenvalues ---    0.16000   0.16000   0.16000   0.16000   0.16000
     Eigenvalues ---    0.22000   0.22188   0.22662   0.24011   0.24651
     Eigenvalues ---    0.35712   0.35717   0.35783   0.35790   0.36420
     Eigenvalues ---    0.36427   0.37009   0.38432   0.42633   0.43465
     Eigenvalues ---    0.45769   0.46692   0.47162   0.47468   0.47567
     Eigenvalues ---    0.48125   0.50955
 RFO step:  Lambda=-2.74700056D-02 EMin= 1.85287394D-02
 Linear search not attempted -- first point.
 Iteration  1 RMS(Cart)=  0.04310797 RMS(Int)=  0.00038719
 Iteration  2 RMS(Cart)=  0.00051416 RMS(Int)=  0.00014318
 Iteration  3 RMS(Cart)=  0.00000018 RMS(Int)=  0.00014318
 Variable       Old X    -DE/DX   Delta X   Delta X   Delta X     New X
                                 (Linear)    (Quad)   (Total)
    R1        2.65547  -0.00255   0.00000  -0.00322  -0.00317   2.65230
    R2        2.61291   0.04406   0.00000   0.08673   0.08675   2.69966
    R3        2.04421   0.00923   0.00000   0.02396   0.02396   2.06817
    R4        2.61557   0.05420   0.00000   0.10716   0.10720   2.72277
    R5        2.04411   0.00914   0.00000   0.02371   0.02371   2.06782
    R6        2.63373   0.02453   0.00000   0.04863   0.04861   2.68234
    R7        2.04534   0.00898   0.00000   0.02336   0.02336   2.06870
    R8        2.68058  -0.00377   0.00000  -0.01451  -0.01479   2.66579
    R9        2.60126   0.03690   0.00000   0.06797   0.06821   2.66948
   R10        2.64771   0.03065   0.00000   0.06246   0.06242   2.71013
   R11        2.70839   0.01778   0.00000   0.04148   0.04110   2.74949
   R12        2.04526   0.00902   0.00000   0.02346   0.02346   2.06872
   R13        2.60573  -0.01002   0.00000  -0.01730  -0.01691   2.58881
   R14        1.89542   0.01531   0.00000   0.03068   0.03068   1.92610
   R15        2.57870   0.05297   0.00000   0.10016   0.10016   2.67886
   R16        2.03419   0.00983   0.00000   0.02510   0.02510   2.05929
   R17        2.03430   0.00894   0.00000   0.02283   0.02283   2.05714
    A1        2.11420   0.00061   0.00000   0.00744   0.00745   2.12165
    A2        2.07986  -0.00058   0.00000  -0.00520  -0.00521   2.07465
    A3        2.08912  -0.00002   0.00000  -0.00224  -0.00224   2.08688
    A4        2.11523   0.00002   0.00000   0.00542   0.00544   2.12067
    A5        2.08365  -0.00055   0.00000  -0.00560  -0.00561   2.07804
    A6        2.08430   0.00053   0.00000   0.00019   0.00017   2.08447
    A7        2.05144  -0.00576   0.00000  -0.02396  -0.02399   2.02745
    A8        2.11267   0.00343   0.00000   0.01492   0.01494   2.12761
    A9        2.11908   0.00233   0.00000   0.00903   0.00905   2.12813
   A10        2.13389   0.00461   0.00000   0.01628   0.01618   2.15006
   A11        2.27895  -0.00698   0.00000  -0.01604  -0.01597   2.26299
   A12        1.87035   0.00237   0.00000  -0.00024  -0.00021   1.87014
   A13        2.07274   0.00659   0.00000   0.02067   0.02084   2.09358
   A14        1.86517  -0.00427   0.00000  -0.01930  -0.01984   1.84533
   A15        2.34527  -0.00232   0.00000  -0.00137  -0.00100   2.34427
   A16        2.07887  -0.00606   0.00000  -0.02585  -0.02592   2.05295
   A17        2.10306   0.00346   0.00000   0.01523   0.01526   2.11833
   A18        2.10125   0.00260   0.00000   0.01062   0.01065   2.11191
   A19        1.90743   0.01245   0.00000   0.04749   0.04802   1.95545
   A20        2.19023  -0.00522   0.00000  -0.01837  -0.01864   2.17159
   A21        2.18553  -0.00723   0.00000  -0.02912  -0.02938   2.15615
   A22        1.86968   0.00828   0.00000   0.03943   0.03907   1.90875
   A23        2.21717  -0.00356   0.00000  -0.01663  -0.01645   2.20072
   A24        2.19633  -0.00472   0.00000  -0.02280  -0.02262   2.17372
   A25        1.91215  -0.01884   0.00000  -0.06738  -0.06703   1.84511
   A26        2.10250   0.00876   0.00000   0.03018   0.03000   2.13251
   A27        2.26854   0.01008   0.00000   0.03720   0.03703   2.30557
    D1       -0.00001   0.00000   0.00000   0.00002   0.00001   0.00000
    D2       -3.14156  -0.00000   0.00000  -0.00003  -0.00004   3.14159
    D3        3.14152   0.00000   0.00000   0.00004   0.00004   3.14156
    D4       -0.00002  -0.00000   0.00000  -0.00001  -0.00001  -0.00003
    D5       -0.00003   0.00000   0.00000   0.00005   0.00005   0.00002
    D6        3.14153  -0.00000   0.00000   0.00001   0.00001   3.14154
    D7       -3.14157   0.00000   0.00000   0.00003   0.00003  -3.14154
    D8       -0.00001  -0.00000   0.00000  -0.00002  -0.00001  -0.00002
    D9        0.00003  -0.00000   0.00000  -0.00004  -0.00004  -0.00001
   D10       -3.14154  -0.00000   0.00000  -0.00005  -0.00005  -3.14159
   D11        3.14158   0.00000   0.00000   0.00001   0.00001   3.14159
   D12        0.00001  -0.00000   0.00000   0.00000   0.00000   0.00001
   D13       -0.00001  -0.00000   0.00000  -0.00001  -0.00000  -0.00001
   D14       -3.14144  -0.00001   0.00000  -0.00009  -0.00009  -3.14153
   D15        3.14156  -0.00000   0.00000   0.00001   0.00001   3.14157
   D16        0.00013  -0.00000   0.00000  -0.00008  -0.00008   0.00005
   D17       -0.00004   0.00001   0.00000   0.00007   0.00007   0.00003
   D18       -3.14151   0.00001   0.00000   0.00004   0.00003  -3.14148
   D19        3.14143   0.00001   0.00000   0.00014   0.00014   3.14156
   D20       -0.00005   0.00001   0.00000   0.00010   0.00010   0.00005
   D21       -3.14124  -0.00001   0.00000  -0.00024  -0.00026  -3.14150
   D22       -0.00113   0.00001   0.00000   0.00016   0.00016  -0.00098
   D23        0.00049  -0.00001   0.00000  -0.00032  -0.00033   0.00016
   D24        3.14060   0.00001   0.00000   0.00009   0.00008   3.14068
   D25        0.00005  -0.00001   0.00000  -0.00010  -0.00009  -0.00004
   D26       -3.14151  -0.00000   0.00000  -0.00005  -0.00005  -3.14156
   D27        3.14150  -0.00001   0.00000  -0.00005  -0.00004   3.14145
   D28       -0.00007  -0.00000   0.00000  -0.00000   0.00000  -0.00007
   D29       -0.00041   0.00001   0.00000   0.00018   0.00018  -0.00023
   D30        3.14139  -0.00000   0.00000  -0.00005  -0.00005   3.14134
   D31        3.14132   0.00001   0.00000   0.00013   0.00013   3.14145
   D32       -0.00006  -0.00000   0.00000  -0.00010  -0.00010  -0.00016
   D33       -0.00077   0.00003   0.00000   0.00048   0.00047  -0.00030
   D34        3.14133   0.00001   0.00000   0.00027   0.00027  -3.14159
   D35       -3.14089   0.00001   0.00000   0.00007   0.00006  -3.14083
   D36        0.00121  -0.00000   0.00000  -0.00015  -0.00015   0.00106
   D37        0.00072  -0.00002   0.00000  -0.00040  -0.00040   0.00032
   D38       -3.14144  -0.00001   0.00000  -0.00017  -0.00017   3.14157
   D39       -3.14107  -0.00001   0.00000  -0.00018  -0.00018  -3.14125
   D40       -0.00005   0.00000   0.00000   0.00005   0.00005  -0.00000
         Item               Value     Threshold  Converged?
 Maximum Force            0.054196     0.000450     NO 
 RMS     Force            0.012386     0.000300     NO 
 Maximum Displacement     0.169470     0.001800     NO 
 RMS     Displacement     0.043006     0.001200     NO 
 Predicted change in Energy=-1.459071D-02
 GradGradGradGradGradGradGradGradGradGradGradGradGradGradGradGradGradGrad

                          Input orientation:                          
 ---------------------------------------------------------------------
 Center     Atomic      Atomic             Coordinates (Angstroms)
 Number     Number       Type             X           Y           Z
 ---------------------------------------------------------------------
      1          6           0       -2.207287    0.690763    0.000053
      2          6           0       -2.177654   -0.712461   -0.000002
      3          6           0       -0.933599   -1.439309   -0.000023
      4          6           0        0.249501   -0.655046    0.000007
      5          6           0        0.240873    0.755604    0.000041
      6          6           0       -1.006067    1.464050    0.000091
      7          7           0        1.601832   -1.063351   -0.000076
      8          6           0        1.638915    1.158602   -0.000089
      9          6           0        2.460975    0.003708    0.000108
     10          1           0        1.910402   -2.034768    0.000647
     11          1           0        2.011836    2.182536   -0.000323
     12          1           0        3.542229   -0.122464    0.000076
     13          1           0       -3.122682   -1.264086   -0.000028
     14          1           0       -0.902900   -2.533586   -0.000072
     15          1           0       -3.176650    1.198807    0.000038
     16          1           0       -1.032820    2.558445    0.000086
 ---------------------------------------------------------------------
                    Distance matrix (angstroms):
                    1          2          3          4          5
     1  C    0.000000
     2  C    1.403538   0.000000
     3  C    2.481832   1.440826   0.000000
     4  C    2.801251   2.427834   1.419434   0.000000
     5  C    2.449018   2.829220   2.489383   1.410676   0.000000
     6  C    1.428601   2.471805   2.904264   2.463132   1.434139
     7  N    4.193602   3.795739   2.563153   1.412626   2.271741
     8  C    3.874551   4.250539   3.656087   2.284686   1.454968
     9  C    4.718549   4.693588   3.688553   2.307503   2.343971
    10  H    4.938004   4.296591   2.905669   2.159219   3.251692
    11  H    4.475085   5.092429   4.668335   3.340314   2.274302
    12  H    5.806743   5.750231   4.665524   3.335521   3.416132
    13  H    2.158561   1.094243   2.196085   3.426740   3.923346
    14  H    3.478197   2.222947   1.094707   2.203847   3.482382
    15  H    1.094429   2.156604   3.462794   3.895546   3.446142
    16  H    2.206265   3.465468   3.998985   3.459894   2.207381
                    6          7          8          9         10
     6  C    0.000000
     7  N    3.631652   0.000000
     8  C    2.662561   2.222262   0.000000
     9  C    3.762045   1.369941   1.417590   0.000000
    10  H    4.554945   1.019248   3.204889   2.111519   0.000000
    11  H    3.102251   3.271679   1.089730   2.224639   4.218524
    12  H    4.817056   2.156480   2.294283   1.088591   2.513914
    13  H    3.452938   4.728777   5.342493   5.725777   5.091747
    14  H    3.998967   2.904354   4.482530   4.213491   2.857182
    15  H    2.186729   5.286894   4.815734   5.762905   6.027778
    16  H    1.094722   4.478705   3.016245   4.328197   5.455288
                   11         12         13         14         15
    11  H    0.000000
    12  H    2.766790   0.000000
    13  H    6.184051   6.761977   0.000000
    14  H    5.544141   5.056943   2.557159   0.000000
    15  H    5.280920   6.847561   2.463484   4.370435   0.000000
    16  H    3.067775   5.302674   4.356520   5.093688   2.538626
                   16
    16  H    0.000000
 Stoichiometry    C8H7N
 Framework group  C1[X(C8H7N)]
 Deg. of freedom    42
 Full point group                 C1      NOp   1
 Largest Abelian subgroup         C1      NOp   1
 Largest concise Abelian subgroup C1      NOp   1
                         Standard orientation:                         
 ---------------------------------------------------------------------
 Center     Atomic      Atomic             Coordinates (Angstroms)
 Number     Number       Type             X           Y           Z
 ---------------------------------------------------------------------
      1          6           0       -2.215183    0.664654    0.000037
      2          6           0       -2.170386   -0.738169   -0.000018
      3          6           0       -0.918548   -1.451529   -0.000039
      4          6           0        0.256006   -0.654525   -0.000009
      5          6           0        0.232133    0.755949    0.000025
      6          6           0       -1.022391    1.450878    0.000075
      7          7           0        1.612671   -1.048191   -0.000092
      8          6           0        1.625738    1.174033   -0.000105
      9          6           0        2.460231    0.028090    0.000092
     10          1           0        1.931722   -2.016216    0.000631
     11          1           0        1.987571    2.201938   -0.000339
     12          1           0        3.542786   -0.086388    0.000060
     13          1           0       -3.109398   -1.299975   -0.000044
     14          1           0       -0.876025   -2.545410   -0.000088
     15          1           0       -3.189981    1.162191    0.000022
     16          1           0       -1.060970    2.544919    0.000070
 ---------------------------------------------------------------------
 Rotational constants (GHZ):           3.8452509           1.5667086           1.1131620
 Standard basis: 6-31+G(d) (6D, 7F)
 There are   185 symmetry adapted cartesian basis functions of A   symmetry.
 There are   185 symmetry adapted basis functions of A   symmetry.
   185 basis functions,   316 primitive gaussians,   185 cartesian basis functions
    31 alpha electrons       31 beta electrons
       nuclear repulsion energy       394.5310341212 Hartrees.
 NAtoms=   16 NActive=   16 NUniq=   16 SFac= 1.00D+00 NAtFMM=   60 NAOKFM=F Big=F
 Integral buffers will be    131072 words long.
 Regular integral format.
 Two-electron integral symmetry is turned on.
 One-electron integrals computed using PRISM.
 NBasis=   185 RedAO= T EigKep=  1.45D-06  NBF=   185
 NBsUse=   185 1.00D-06 EigRej= -1.00D+00 NBFU=   185
 Initial guess from the checkpoint file:  "FuncsBVP86-V-1st.chk"
 B after Tr=     0.000000   -0.000000    0.000000
         Rot=    0.999985    0.000002    0.000005   -0.005491 Ang=   0.63 deg.
 ExpMin= 4.38D-02 ExpMax= 4.17D+03 ExpMxC= 6.27D+02 IAcc=3 IRadAn=         5 AccDes= 0.00D+00
 Harris functional with IExCor=  418 and IRadAn=       5 diagonalized for initial guess.
 HarFok:  IExCor=  418 AccDes= 0.00D+00 IRadAn=         5 IDoV= 1 UseB2=F ITyADJ=14
 ICtDFT=  3500011 ScaDFX=  1.000000  1.000000  1.000000  1.000000
 FoFCou: FMM=F IPFlag=           0 FMFlag=      100000 FMFlg1=           0
         NFxFlg=           0 DoJE=T BraDBF=F KetDBF=T FulRan=T
         wScrn=  0.000000 ICntrl=       500 IOpCl=  0 I1Cent=   200000004 NGrid=           0
         NMat0=    1 NMatS0=      1 NMatT0=    0 NMatD0=    1 NMtDS0=    0 NMtDT0=    0
 Petite list used in FoFCou.
 Keep J ints in memory in canonical form, NReq=152071459.
 Requested convergence on RMS density matrix=1.00D-08 within 128 cycles.
 Requested convergence on MAX density matrix=1.00D-06.
 Requested convergence on             energy=1.00D-06.
 No special actions if energy rises.
 SCF Done:  E(RB-VP86) =  -363.841168377     A.U. after   13 cycles
            NFock= 13  Conv=0.55D-08     -V/T= 2.0117
 DoSCS=F DFT=T ScalE2(SS,OS)=  1.000000  1.000000
 ExpMin= 4.38D-02 ExpMax= 4.17D+03 ExpMxC= 6.27D+02 IAcc=3 IRadAn=         5 AccDes= 0.00D+00
 HarFok:  IExCor=  205 AccDes= 0.00D+00 IRadAn=         5 IDoV=-2 UseB2=F ITyADJ=14
 ICtDFT= 12500011 ScaDFX=  1.000000  1.000000  1.000000  1.000000
 Range of M.O.s used for correlation:    10   185
 NBasis=   185 NAE=    31 NBE=    31 NFC=     9 NFV=     0
 NROrb=    176 NOA=    22 NOB=    22 NVA=   154 NVB=   154

 **** Warning!!: The largest alpha MO coefficient is  0.17150131D+03

 Keep J ints in memory in canonical form, NReq=156218803.
 Orbital symmetries:
       Occupied  (A) (A) (A) (A) (A) (A) (A) (A) (A) (A) (A) (A)
                 (A) (A) (A) (A) (A) (A) (A) (A) (A) (A) (A) (A)
                 (A) (A) (A) (A) (A) (A) (A)
       Virtual   (A) (A) (A) (A) (A) (A) (A) (A) (A) (A) (A) (A)
                 (A) (A) (A) (A) (A) (A) (A) (A) (A) (A) (A) (A)
                 (A) (A) (A) (A) (A) (A) (A) (A) (A) (A) (A) (A)
                 (A) (A) (A) (A) (A) (A) (A) (A) (A) (A) (A) (A)
                 (A) (A) (A) (A) (A) (A) (A) (A) (A) (A) (A) (A)
                 (A) (A) (A) (A) (A) (A) (A) (A) (A) (A) (A) (A)
                 (A) (A) (A) (A) (A) (A) (A) (A) (A) (A) (A) (A)
                 (A) (A) (A) (A) (A) (A) (A) (A) (A) (A) (A) (A)
                 (A) (A) (A) (A) (A) (A) (A) (A) (A) (A) (A) (A)
                 (A) (A) (A) (A) (A) (A) (A) (A) (A) (A) (A) (A)
                 (A) (A) (A) (A) (A) (A) (A) (A) (A) (A) (A) (A)
                 (A) (A) (A) (A) (A) (A) (A) (A) (A) (A) (A) (A)
                 (A) (A) (A) (A) (A) (A) (A) (A) (A) (A)
 Generating guess from densities on rwf.
 Convergence on wavefunction:    0.000001000000000
 Iteration     1 Dimension     6 NMult     0 NNew      6
 CISAX will form     6 AO SS matrices at one time.
 New state      4 was old state      5
 New state      5 was old state      4
 Iteration     2 Dimension    12 NMult     6 NNew      6
 Iteration     3 Dimension    18 NMult    12 NNew      6
 Iteration     4 Dimension    24 NMult    18 NNew      6
 Iteration     5 Dimension    30 NMult    24 NNew      6
 Iteration     6 Dimension    36 NMult    30 NNew      6
 New state      5 was old state      6
 New state      6 was old state      5
 Iteration     7 Dimension    42 NMult    36 NNew      6
 New state      5 was old state      6
 New state      6 was old state      5
 Iteration     8 Dimension    48 NMult    42 NNew      6
 Iteration     9 Dimension    54 NMult    48 NNew      6
 Iteration    10 Dimension    60 NMult    54 NNew      6
 Iteration    11 Dimension    66 NMult    60 NNew      6
 Iteration    12 Dimension    72 NMult    66 NNew      6
 Iteration    13 Dimension    78 NMult    72 NNew      6
 Iteration    14 Dimension    84 NMult    78 NNew      6
 Iteration    15 Dimension    90 NMult    84 NNew      6
 Iteration    16 Dimension    96 NMult    90 NNew      6
 New state      5 was old state      6
 New state      6 was old state      5
 Iteration    17 Dimension   102 NMult    96 NNew      6
 Iteration    18 Dimension   108 NMult   102 NNew      6
 Iteration    19 Dimension   114 NMult   108 NNew      6
 Iteration    20 Dimension   120 NMult   114 NNew      6
 Iteration    21 Dimension   125 NMult   120 NNew      5
 Iteration    22 Dimension   130 NMult   125 NNew      5
 Iteration    23 Dimension   134 NMult   130 NNew      4
 Iteration    24 Dimension   138 NMult   134 NNew      4
 Iteration    25 Dimension   142 NMult   138 NNew      4
 Iteration    26 Dimension   146 NMult   142 NNew      4
 Iteration    27 Dimension   149 NMult   146 NNew      3
 Iteration    28 Dimension   152 NMult   149 NNew      3
 Iteration    29 Dimension   155 NMult   152 NNew      3
 Iteration    30 Dimension   158 NMult   155 NNew      3
 Iteration    31 Dimension   160 NMult   158 NNew      2
 Iteration    32 Dimension   162 NMult   160 NNew      2
 Iteration    33 Dimension   164 NMult   162 NNew      2
 Iteration    34 Dimension   166 NMult   164 NNew      2
 Iteration    35 Dimension   167 NMult   166 NNew      1
 Iteration    36 Dimension   168 NMult   167 NNew      1
 ***********************************************************************
 Excited states from <AA,BB:AA,BB> singles matrix:
 ***********************************************************************
 
 Ground to excited state transition densities written to RWF  633
 Ground to excited state transition electric dipole moments (Au):
       state          X           Y           Z        Dip. S.      Osc.
         1        -0.5277      0.5427     -0.0000      0.5731      0.0553
         2        -0.1728     -0.1592     -0.0001      0.0552      0.0061
         3         0.0004     -0.0001     -0.1056      0.0111      0.0013
         4         0.0005     -0.0000      0.0076      0.0001      0.0000
         5         0.0016     -0.0002      0.1110      0.0123      0.0016
         6         0.8859     -0.2142     -0.0001      0.8307      0.1093
 Ground to excited state transition velocity dipole moments (Au):
       state          X           Y           Z        Dip. S.      Osc.
         1         0.0678     -0.0871      0.0000      0.0122      0.0561
         2         0.0263      0.0280      0.0000      0.0015      0.0060
         3        -0.0001      0.0000      0.0100      0.0001      0.0004
         4        -0.0001      0.0000      0.0002      0.0000      0.0000
         5        -0.0003      0.0001     -0.0212      0.0005      0.0015
         6        -0.1726      0.0437      0.0000      0.0317      0.1070
 Ground to excited state transition magnetic dipole moments (Au):
       state          X           Y           Z
         1         0.0001     -0.0000      0.1936
         2         0.0000     -0.0001      0.0756
         3         0.1328     -0.0539      0.0001
         4         0.2697     -0.0808      0.0002
         5         0.0407      0.3201      0.0010
         6        -0.0002     -0.0004      0.4656
 Ground to excited state transition velocity quadrupole moments (Au):
       state          XX          YY          ZZ          XY          XZ          YZ
         1         0.1319     -0.0867      0.0065      0.0638      0.0000      0.0000
         2         0.0099     -0.0605      0.0204      0.0122      0.0001      0.0000
         3        -0.0001      0.0001      0.0000      0.0001      0.0444      0.0568
         4        -0.0001     -0.0001      0.0000      0.0001      0.1014      0.1946
         5        -0.0002      0.0001      0.0000      0.0004     -0.2982     -0.0337
         6        -0.1743      0.1359     -0.0028      0.2258      0.0004     -0.0000
 <0|del|b> * <b|rxdel|0> + <0|del|b> * <b|delr+rdel|0>
 Rotatory Strengths (R) in cgs (10**-40 erg-esu-cm/Gauss)
       state          XX          YY          ZZ    R(velocity)    E-M Angle
         1         0.0080      0.0156      0.0068      0.0102       90.00
         2        -0.0072      0.0033     -0.0037     -0.0025       90.00
         3         0.0020     -0.0210     -0.0091     -0.0094       90.00
         4         0.0000     -0.0793     -0.0128     -0.0307       90.00
         5         0.0085     -0.0234     -0.0401     -0.0183       90.00
         6        -0.0336      0.0788      0.0587      0.0346       90.00
 1/2[<0|r|b>*<b|rxdel|0> + (<0|rxdel|b>*<b|r|0>)*]
 Rotatory Strengths (R) in cgs (10**-40 erg-esu-cm/Gauss)
       state          XX          YY          ZZ     R(length)
         1         0.0325      0.0011      0.0042      0.0126
         2         0.0011     -0.0120      0.0053     -0.0019
         3        -0.0369     -0.0021      0.0103     -0.0096
         4        -0.0965     -0.0005     -0.0011     -0.0327
         5        -0.0472      0.0539     -0.0749     -0.0227
         6         0.1290     -0.0654      0.0473      0.0370
  1/2[<0|del|b>*<b|r|0> + (<0|r|b>*<b|del|0>)*] (Au)
       state          X           Y           Z        Dip. S.   Osc.(frdel)
         1        -0.0358     -0.0473     -0.0000      0.0831      0.0554
         2        -0.0045     -0.0045     -0.0000      0.0090      0.0060
         3        -0.0000     -0.0000     -0.0011      0.0011      0.0007
         4        -0.0000     -0.0000      0.0000     -0.0000     -0.0000
         5        -0.0000     -0.0000     -0.0024      0.0024      0.0016
         6        -0.1529     -0.0094     -0.0000      0.1622      0.1082

 Excitation energies and oscillator strengths:
 
 Excited State   1:      Singlet-A      3.9381 eV  314.84 nm  f=0.0553  <S**2>=0.000
      29 -> 32         0.15445
      31 -> 32         0.66875
 This state for optimization and/or second-order correction.
 Total Energy, E(TD-HF/TD-DFT) =  -363.696447206    
 Copying the excited state density for this state as the 1-particle RhoCI density.
 
 Excited State   2:      Singlet-A      4.4951 eV  275.82 nm  f=0.0061  <S**2>=0.000
      30 -> 32         0.52974
      31 -> 33        -0.45989
 
 Excited State   3:      Singlet-A      4.6294 eV  267.82 nm  f=0.0013  <S**2>=0.000
      31 -> 34         0.70680
 
 Excited State   4:      Singlet-A      5.1382 eV  241.30 nm  f=0.0000  <S**2>=0.000
      31 -> 35        -0.70683
 
 Excited State   5:      Singlet-A      5.3653 eV  231.08 nm  f=0.0016  <S**2>=0.000
      31 -> 37        -0.70643
 
 Excited State   6:      Singlet-A      5.3728 eV  230.76 nm  f=0.1093  <S**2>=0.000
      29 -> 32         0.43508
      29 -> 36        -0.10783
      30 -> 32        -0.16767
      30 -> 33        -0.15032
      31 -> 32        -0.14069
      31 -> 33        -0.23097
      31 -> 36         0.40274
 SavETr:  write IOETrn=   770 NScale= 10 NData=  16 NLR=1 NState=    6 LETran=     118.
          IDoAtm=1111111111111111
          Differentiating once with respect to electric field.
                with respect to dipole field.
          Differentiating once with respect to nuclear coordinates.
 Keep J ints in memory in canonical form, NReq=152083851.
          There are     1 degrees of freedom in the 1st order CPHF.  IDoFFX=0 NUNeed=     1.
 LinEq1:  Iter=  0 NonCon=     1 RMS=2.74D-02 Max=9.86D-01 NDo=     1
 AX will form     1 AO Fock derivatives at one time.
 LinEq1:  Iter=  1 NonCon=     1 RMS=1.27D-02 Max=3.03D-01 NDo=     1
 LinEq1:  Iter=  2 NonCon=     1 RMS=1.56D-02 Max=6.45D-01 NDo=     1
 LinEq1:  Iter=  3 NonCon=     1 RMS=8.50D-03 Max=2.06D-01 NDo=     1
 LinEq1:  Iter=  4 NonCon=     1 RMS=1.06D-02 Max=2.77D-01 NDo=     1
 LinEq1:  Iter=  5 NonCon=     1 RMS=4.57D-03 Max=1.18D-01 NDo=     1
 LinEq1:  Iter=  6 NonCon=     1 RMS=3.08D-03 Max=4.98D-02 NDo=     1
 LinEq1:  Iter=  7 NonCon=     1 RMS=1.47D-03 Max=3.19D-02 NDo=     1
 LinEq1:  Iter=  8 NonCon=     1 RMS=8.63D-04 Max=1.51D-02 NDo=     1
 LinEq1:  Iter=  9 NonCon=     1 RMS=4.82D-04 Max=6.20D-03 NDo=     1
 LinEq1:  Iter= 10 NonCon=     1 RMS=2.99D-04 Max=7.04D-03 NDo=     1
 LinEq1:  Iter= 11 NonCon=     1 RMS=2.91D-04 Max=7.13D-03 NDo=     1
 LinEq1:  Iter= 12 NonCon=     1 RMS=1.41D-04 Max=3.05D-03 NDo=     1
 LinEq1:  Iter= 13 NonCon=     1 RMS=1.06D-04 Max=1.94D-03 NDo=     1
 LinEq1:  Iter= 14 NonCon=     1 RMS=2.27D-05 Max=2.42D-04 NDo=     1
 LinEq1:  Iter= 15 NonCon=     1 RMS=4.90D-06 Max=1.12D-04 NDo=     1
 LinEq1:  Iter= 16 NonCon=     1 RMS=3.82D-06 Max=9.09D-05 NDo=     1
 LinEq1:  Iter= 17 NonCon=     1 RMS=1.22D-06 Max=2.11D-05 NDo=     1
 LinEq1:  Iter= 18 NonCon=     1 RMS=2.32D-07 Max=2.44D-06 NDo=     1
 LinEq1:  Iter= 19 NonCon=     1 RMS=3.93D-08 Max=5.33D-07 NDo=     1
 LinEq1:  Iter= 20 NonCon=     1 RMS=8.97D-09 Max=1.55D-07 NDo=     1
 LinEq1:  Iter= 21 NonCon=     1 RMS=3.20D-09 Max=4.21D-08 NDo=     1
 LinEq1:  Iter= 22 NonCon=     1 RMS=8.98D-10 Max=1.55D-08 NDo=     1
 LinEq1:  Iter= 23 NonCon=     1 RMS=1.41D-10 Max=2.01D-09 NDo=     1
 LinEq1:  Iter= 24 NonCon=     0 RMS=2.21D-11 Max=2.16D-10 NDo=     1
 Linear equations converged to 1.000D-10 1.000D-09 after    24 iterations.
 End of Minotr F.D. properties file   721 does not exist.
 End of Minotr F.D. properties file   722 does not exist.
 End of Minotr F.D. properties file   788 does not exist.
 Calling FoFJK, ICntrl=  10005527 FMM=F ISym2X=0 I1Cent= 0 IOpClX= 0 NMat=1 NMatS=1 NMatT=0.
 ***** Axes restored to original set *****
 -------------------------------------------------------------------
 Center     Atomic                   Forces (Hartrees/Bohr)
 Number     Number              X              Y              Z
 -------------------------------------------------------------------
      1        6          -0.001462944   -0.012327911   -0.000004741
      2        6           0.000004737    0.012474970    0.000002907
      3        6           0.002240471   -0.014674710   -0.000002855
      4        6          -0.010435560    0.018306596   -0.000000287
      5        6          -0.000161331   -0.014851572   -0.000008497
      6        6           0.004600765    0.011859095    0.000001157
      7        7           0.015813663    0.005440535    0.000032397
      8        6          -0.007124707    0.012538772    0.000004593
      9        6          -0.002447597   -0.018237393   -0.000018899
     10        1          -0.000576184   -0.001768269   -0.000011917
     11        1           0.000898100    0.000979392    0.000002515
     12        1          -0.000867457    0.000652581    0.000001931
     13        1           0.000235659   -0.001348057    0.000000166
     14        1          -0.000791222    0.000865334   -0.000001336
     15        1           0.000001823    0.001003100    0.000000506
     16        1           0.000071784   -0.000912466    0.000002360
 -------------------------------------------------------------------
 Cartesian Forces:  Max     0.018306596 RMS     0.006761233

 GradGradGradGradGradGradGradGradGradGradGradGradGradGradGradGradGradGrad
 Berny optimization.
 Using GEDIIS/GDIIS optimizer.
 FormGI is forming the generalized inverse of G from B-inverse, IUseBI=4.
 Internal  Forces:  Max     0.010786202 RMS     0.002750706
 Search for a local minimum.
 Step number   2 out of a maximum of   94
 All quantities printed in internal units (Hartrees-Bohrs-Radians)
 Mixed Optimization -- RFO/linear search
 Update second derivatives using D2CorX and points    1    2
 DE= -1.49D-02 DEPred=-1.46D-02 R= 1.02D+00
 TightC=F SS=  1.41D+00  RLast= 2.50D-01 DXNew= 5.0454D-01 7.4985D-01
 Trust test= 1.02D+00 RLast= 2.50D-01 DXMaxT set to 5.05D-01
 ITU=  1  0
 Use linear search instead of GDIIS.
     Eigenvalues ---    0.01852   0.01931   0.01986   0.02011   0.02069
     Eigenvalues ---    0.02113   0.02146   0.02150   0.02172   0.02209
     Eigenvalues ---    0.02233   0.02248   0.02341   0.15981   0.16000
     Eigenvalues ---    0.16000   0.16000   0.16000   0.16000   0.16019
     Eigenvalues ---    0.20772   0.22003   0.23632   0.24165   0.24668
     Eigenvalues ---    0.35691   0.35715   0.35787   0.35946   0.36289
     Eigenvalues ---    0.36551   0.36887   0.38308   0.42104   0.42782
     Eigenvalues ---    0.44730   0.46054   0.46688   0.47195   0.47617
     Eigenvalues ---    0.49351   0.52642
 RFO step:  Lambda=-1.88942261D-03 EMin= 1.85225283D-02
 Quartic linear search produced a step of  0.13894.
 Iteration  1 RMS(Cart)=  0.00955126 RMS(Int)=  0.00009036
 Iteration  2 RMS(Cart)=  0.00016197 RMS(Int)=  0.00001894
 Iteration  3 RMS(Cart)=  0.00000001 RMS(Int)=  0.00001894
 Variable       Old X    -DE/DX   Delta X   Delta X   Delta X     New X
                                 (Linear)    (Quad)   (Total)
    R1        2.65230  -0.00499  -0.00044  -0.01236  -0.01281   2.63949
    R2        2.69966   0.00462   0.01205   0.00489   0.01691   2.71658
    R3        2.06817   0.00046   0.00333  -0.00012   0.00321   2.07138
    R4        2.72277   0.00292   0.01489  -0.00027   0.01464   2.73740
    R5        2.06782   0.00048   0.00329  -0.00007   0.00322   2.07104
    R6        2.68234   0.00286   0.00675   0.00374   0.01052   2.69286
    R7        2.06870  -0.00089   0.00325  -0.00437  -0.00112   2.06757
    R8        2.66579  -0.00653  -0.00205  -0.01684  -0.01890   2.64689
    R9        2.66948   0.00857   0.00948   0.01425   0.02375   2.69323
   R10        2.71013  -0.00055   0.00867  -0.00568   0.00298   2.71311
   R11        2.74949  -0.00090   0.00571  -0.00470   0.00097   2.75047
   R12        2.06872  -0.00091   0.00326  -0.00446  -0.00120   2.06753
   R13        2.58881  -0.01079  -0.00235  -0.02374  -0.02605   2.56276
   R14        1.92610   0.00151   0.00426   0.00157   0.00583   1.93193
   R15        2.67886   0.01043   0.01392   0.01659   0.03050   2.70936
   R16        2.05929   0.00123   0.00349   0.00215   0.00563   2.06493
   R17        2.05714  -0.00094   0.00317  -0.00443  -0.00126   2.05588
    A1        2.12165   0.00225   0.00103   0.01172   0.01271   2.13436
    A2        2.07465  -0.00021  -0.00072   0.00070   0.00000   2.07465
    A3        2.08688  -0.00205  -0.00031  -0.01242  -0.01271   2.07417
    A4        2.12067   0.00278   0.00076   0.01490   0.01565   2.13632
    A5        2.07804  -0.00006  -0.00078   0.00205   0.00128   2.07932
    A6        2.08447  -0.00272   0.00002  -0.01696  -0.01693   2.06754
    A7        2.02745  -0.00666  -0.00333  -0.03166  -0.03496   1.99249
    A8        2.12761   0.00254   0.00208   0.01007   0.01213   2.13973
    A9        2.12813   0.00413   0.00126   0.02159   0.02283   2.15096
   A10        2.15006   0.00417   0.00225   0.01920   0.02148   2.17154
   A11        2.26299  -0.00463  -0.00222  -0.01936  -0.02160   2.24138
   A12        1.87014   0.00046  -0.00003   0.00016   0.00012   1.87026
   A13        2.09358   0.00276   0.00290   0.01108   0.01401   2.10759
   A14        1.84533   0.00182  -0.00276   0.00991   0.00710   1.85243
   A15        2.34427  -0.00457  -0.00014  -0.02100  -0.02111   2.32317
   A16        2.05295  -0.00530  -0.00360  -0.02525  -0.02889   2.02406
   A17        2.11833   0.00270   0.00212   0.01284   0.01499   2.13331
   A18        2.11191   0.00260   0.00148   0.01240   0.01391   2.12581
   A19        1.95545  -0.00034   0.00667  -0.00612   0.00061   1.95606
   A20        2.17159  -0.00087  -0.00259  -0.00462  -0.00724   2.16435
   A21        2.15615   0.00122  -0.00408   0.01074   0.00663   2.16278
   A22        1.90875  -0.00296   0.00543  -0.01498  -0.00959   1.89916
   A23        2.20072   0.00201  -0.00229   0.01099   0.00872   2.20944
   A24        2.17372   0.00096  -0.00314   0.00399   0.00087   2.17458
   A25        1.84511   0.00103  -0.00931   0.01103   0.00176   1.84687
   A26        2.13251   0.00005   0.00417  -0.00134   0.00281   2.13532
   A27        2.30557  -0.00108   0.00514  -0.00969  -0.00457   2.30100
    D1        0.00000  -0.00000   0.00000  -0.00005  -0.00005  -0.00005
    D2        3.14159  -0.00000  -0.00000  -0.00004  -0.00004   3.14155
    D3        3.14156   0.00000   0.00001   0.00001   0.00002   3.14158
    D4       -0.00003   0.00000  -0.00000   0.00002   0.00002  -0.00001
    D5        0.00002   0.00000   0.00001   0.00005   0.00006   0.00008
    D6        3.14154   0.00000   0.00000   0.00006   0.00006  -3.14158
    D7       -3.14154  -0.00000   0.00000  -0.00000  -0.00000  -3.14154
    D8       -0.00002  -0.00000  -0.00000   0.00000   0.00000  -0.00002
    D9       -0.00001   0.00000  -0.00001   0.00004   0.00004   0.00003
   D10       -3.14159   0.00000  -0.00001   0.00002   0.00001  -3.14157
   D11        3.14159   0.00000   0.00000   0.00003   0.00003  -3.14156
   D12        0.00001   0.00000   0.00000   0.00001   0.00001   0.00002
   D13       -0.00001  -0.00000  -0.00000  -0.00005  -0.00005  -0.00006
   D14       -3.14153  -0.00000  -0.00001  -0.00002  -0.00004  -3.14156
   D15        3.14157  -0.00000   0.00000  -0.00003  -0.00002   3.14154
   D16        0.00005  -0.00000  -0.00001  -0.00000  -0.00001   0.00004
   D17        0.00003   0.00000   0.00001   0.00006   0.00007   0.00011
   D18       -3.14148   0.00000   0.00000   0.00002   0.00002  -3.14146
   D19        3.14156   0.00000   0.00002   0.00004   0.00006  -3.14156
   D20        0.00005   0.00000   0.00001  -0.00000   0.00001   0.00005
   D21       -3.14150  -0.00000  -0.00004  -0.00021  -0.00024   3.14144
   D22       -0.00098   0.00001   0.00002   0.00026   0.00027  -0.00070
   D23        0.00016  -0.00000  -0.00005  -0.00018  -0.00023  -0.00007
   D24        3.14068   0.00001   0.00001   0.00028   0.00029   3.14097
   D25       -0.00004  -0.00000  -0.00001  -0.00006  -0.00007  -0.00011
   D26       -3.14156  -0.00000  -0.00001  -0.00007  -0.00007   3.14155
   D27        3.14145  -0.00000  -0.00001  -0.00000  -0.00000   3.14145
   D28       -0.00007  -0.00000   0.00000  -0.00001  -0.00001  -0.00007
   D29       -0.00023   0.00000   0.00002   0.00018   0.00021  -0.00002
[...]
 ! D10   D(1,2,3,14)           180.0084         -DE/DX =    0.0                 !
 ! D11   D(13,2,3,4)           179.9971         -DE/DX =    0.0                 !
 ! D12   D(13,2,3,14)            0.0039         -DE/DX =    0.0                 !
 ! D13   D(2,3,4,5)              0.0028         -DE/DX =    0.0                 !
 ! D14   D(2,3,4,7)            180.0106         -DE/DX =    0.0                 !
 ! D15   D(14,3,4,5)           179.996          -DE/DX =    0.0                 !
 ! D16   D(14,3,4,7)             0.0038         -DE/DX =    0.0                 !
 ! D17   D(3,4,5,6)             -0.0054         -DE/DX =    0.0                 !
 ! D18   D(3,4,5,8)           -180.0103         -DE/DX =    0.0                 !
 ! D19   D(7,4,5,6)           -180.0119         -DE/DX =    0.0                 !
 ! D20   D(7,4,5,8)             -0.0168         -DE/DX =    0.0                 !
 ! D21   D(3,4,7,9)           -179.9924         -DE/DX =    0.0                 !
 ! D22   D(3,4,7,10)            -0.0069         -DE/DX =    0.0                 !
 ! D23   D(5,4,7,9)              0.0144         -DE/DX =    0.0                 !
 ! D24   D(5,4,7,10)           179.9998         -DE/DX =    0.0                 !
 ! D25   D(4,5,6,1)              0.0033         -DE/DX =    0.0                 !
 ! D26   D(4,5,6,16)           179.9947         -DE/DX =    0.0                 !
 ! D27   D(8,5,6,1)            180.0096         -DE/DX =    0.0                 !
 ! D28   D(8,5,6,16)             0.001          -DE/DX =    0.0                 !
 ! D29   D(4,5,8,9)              0.0142         -DE/DX =    0.0                 !
 ! D30   D(4,5,8,11)           180.0052         -DE/DX =    0.0                 !
 ! D31   D(6,5,8,9)            180.0085         -DE/DX =    0.0                 !
 ! D32   D(6,5,8,11)            -0.0004         -DE/DX =    0.0                 !
 ! D33   D(4,7,9,8)             -0.0053         -DE/DX =    0.0                 !
 ! D34   D(4,7,9,12)          -180.0075         -DE/DX =    0.0                 !
 ! D35   D(10,7,9,8)          -179.9906         -DE/DX =    0.0                 !
 ! D36   D(10,7,9,12)            0.0072         -DE/DX =    0.0                 !
 ! D37   D(5,8,9,7)             -0.0055         -DE/DX =    0.0                 !
 ! D38   D(5,8,9,12)          -180.0029         -DE/DX =    0.0                 !
 ! D39   D(11,8,9,7)           180.0032         -DE/DX =    0.0                 !
 ! D40   D(11,8,9,12)            0.0057         -DE/DX =    0.0                 !
 --------------------------------------------------------------------------------
 GradGradGradGradGradGradGradGradGradGradGradGradGradGradGradGradGradGrad

                          Input orientation:                          
 ---------------------------------------------------------------------
 Center     Atomic      Atomic             Coordinates (Angstroms)
 Number     Number       Type             X           Y           Z
 ---------------------------------------------------------------------
      1          6           0       -2.195764    0.688158   -0.000089
      2          6           0       -2.161917   -0.707647    0.000116
      3          6           0       -0.934256   -1.467014    0.000201
      4          6           0        0.235382   -0.645980    0.000094
      5          6           0        0.229069    0.747265   -0.000021
      6          6           0       -0.999481    1.486741   -0.000157
      7          7           0        1.611383   -1.061277   -0.000073
      8          6           0        1.626260    1.166400    0.000149
      9          6           0        2.451206   -0.007839    0.000030
     10          1           0        1.907660   -2.037899   -0.000033
     11          1           0        2.005460    2.189131    0.000201
     12          1           0        3.533796   -0.116417    0.000053
     13          1           0       -3.109831   -1.258223    0.000141
     14          1           0       -0.911779   -2.557836    0.000227
     15          1           0       -3.168762    1.191746   -0.000140
     16          1           0       -1.021522    2.578137   -0.000163
 ---------------------------------------------------------------------
                    Distance matrix (angstroms):
                    1          2          3          4          5
     1  C    0.000000
     2  C    1.396215   0.000000
     3  C    2.497232   1.443534   0.000000
     4  C    2.773156   2.398093   1.429039   0.000000
     5  C    2.425553   2.798854   2.501271   1.393259   0.000000
     6  C    1.438342   2.483263   2.954475   2.464424   1.433932
     7  N    4.189855   3.789835   2.577771   1.437306   2.276315
     8  C    3.851828   4.226386   3.673026   2.284571   1.458704
     9  C    4.698801   4.665901   3.686536   2.305883   2.346928
    10  H    4.926406   4.281476   2.898689   2.175765   3.251892
    11  H    4.461300   5.075269   4.691410   3.342309   2.287912
    12  H    5.785775   5.726316   4.667719   3.340654   3.415723
    13  H    2.150329   1.096209   2.185570   3.400778   3.894898
    14  H    3.490715   2.232946   1.091053   2.229612   3.496459
    15  H    1.095595   2.149751   3.473042   3.868519   3.426780
    16  H    2.225054   3.478057   4.046093   3.460454   2.217222
                    6          7          8          9         10
     6  C    0.000000
     7  N    3.648150   0.000000
     8  C    2.645210   2.227726   0.000000
     9  C    3.760453   1.347232   1.435051   0.000000
    10  H    4.568868   1.020574   3.216631   2.101567   0.000000
    11  H    3.085939   3.274209   1.090766   2.241733   4.228161
    12  H    4.808400   2.142062   2.298763   1.088021   2.517223
    13  H    3.462427   4.725319   5.320653   5.699876   5.077707
    14  H    4.045528   2.933605   4.506837   4.220444   2.866980
    15  H    2.189247   5.284496   4.795089   5.746568   6.016700
    16  H    1.091619   4.491940   3.000625   4.329793   5.466983
                   11         12         13         14         15
    11  H    0.000000
    12  H    2.766109   0.000000
    13  H    6.168504   6.741030   0.000000
    14  H    5.571712   5.071850   2.553512   0.000000
    15  H    5.269474   6.829024   2.450678   4.376453   0.000000
    16  H    3.051876   5.292593   4.367916   5.137146   2.555919
                   16
    16  H    0.000000
 Stoichiometry    C8H7N
 Framework group  C1[X(C8H7N)]
 Deg. of freedom    42
 Full point group                 C1      NOp   1
 Largest Abelian subgroup         C1      NOp   1
 Largest concise Abelian subgroup C1      NOp   1
                         Standard orientation:                         
 ---------------------------------------------------------------------
 Center     Atomic      Atomic             Coordinates (Angstroms)
 Number     Number       Type             X           Y           Z
 ---------------------------------------------------------------------
      1          6           0       -2.204280    0.659301   -0.000117
      2          6           0       -2.153360   -0.735985    0.000088
      3          6           0       -0.916501   -1.480276    0.000174
      4          6           0        0.243006   -0.644994    0.000066
      5          6           0        0.219649    0.748069   -0.000049
      6          6           0       -1.017856    1.472460   -0.000185
      7          7           0        1.623984   -1.043426   -0.000101
      8          6           0        1.611607    1.184266    0.000122
      9          6           0        2.450856    0.020207    0.000002
     10          1           0        1.932187   -2.016350   -0.000061
     11          1           0        1.978266    2.211560    0.000173
     12          1           0        3.534694   -0.075118    0.000025
     13          1           0       -3.094466   -1.298116    0.000113
     14          1           0       -0.880680   -2.570741    0.000199
     15          1           0       -3.183366    1.150949   -0.000167
     16          1           0       -1.053248    2.563505   -0.000190
 ---------------------------------------------------------------------
 Rotational constants (GHZ):           3.7951204           1.5793846           1.1152571

 **********************************************************************

            Population analysis using the CI Density.

 **********************************************************************

 Orbital symmetries:
       Occupied  (A) (A) (A) (A) (A) (A) (A) (A) (A) (A) (A) (A)
                 (A) (A) (A) (A) (A) (A) (A) (A) (A) (A) (A) (A)
                 (A) (A) (A) (A) (A) (A) (A)
       Virtual   (A) (A) (A) (A) (A) (A) (A) (A) (A) (A) (A) (A)
                 (A) (A) (A) (A) (A) (A) (A) (A) (A) (A) (A) (A)
                 (A) (A) (A) (A) (A) (A) (A) (A) (A) (A) (A) (A)
                 (A) (A) (A) (A) (A) (A) (A) (A) (A) (A) (A) (A)
                 (A) (A) (A) (A) (A) (A) (A) (A) (A) (A) (A) (A)
                 (A) (A) (A) (A) (A) (A) (A) (A) (A) (A) (A) (A)
                 (A) (A) (A) (A) (A) (A) (A) (A) (A) (A) (A) (A)
                 (A) (A) (A) (A) (A) (A) (A) (A) (A) (A) (A) (A)
                 (A) (A) (A) (A) (A) (A) (A) (A) (A) (A) (A) (A)
                 (A) (A) (A) (A) (A) (A) (A) (A) (A) (A) (A) (A)
                 (A) (A) (A) (A) (A) (A) (A) (A) (A) (A) (A) (A)
                 (A) (A) (A) (A) (A) (A) (A) (A) (A) (A) (A) (A)
                 (A) (A) (A) (A) (A) (A) (A) (A) (A) (A)
 The electronic state is 1-A.
 Alpha  occ. eigenvalues --  -14.07686  -9.95711  -9.95665  -9.93417  -9.92674
 Alpha  occ. eigenvalues --   -9.92285  -9.92253  -9.91987  -9.91201  -0.89957
 Alpha  occ. eigenvalues --   -0.76337  -0.70256  -0.67179  -0.64394  -0.57034
 Alpha  occ. eigenvalues --   -0.53801  -0.52166  -0.49097  -0.43522  -0.42655
 Alpha  occ. eigenvalues --   -0.39274  -0.38931  -0.37525  -0.35967  -0.34953
 Alpha  occ. eigenvalues --   -0.31483  -0.30415  -0.29941  -0.24238  -0.21162
 Alpha  occ. eigenvalues --   -0.17630
 Alpha virt. eigenvalues --   -0.05784  -0.01420  -0.00952   0.00888   0.01035
 Alpha virt. eigenvalues --    0.01828   0.03068   0.03344   0.05108   0.05700
 Alpha virt. eigenvalues --    0.05754   0.06049   0.07814   0.08345   0.09790
 Alpha virt. eigenvalues --    0.10029   0.10162   0.11624   0.12710   0.12730
 Alpha virt. eigenvalues --    0.13679   0.13996   0.14649   0.15406   0.15410
 Alpha virt. eigenvalues --    0.15559   0.16401   0.17315   0.17799   0.18089
 Alpha virt. eigenvalues --    0.18628   0.19250   0.19587   0.20005   0.20953
 Alpha virt. eigenvalues --    0.21481   0.21924   0.22551   0.23209   0.23875
 Alpha virt. eigenvalues --    0.25120   0.25473   0.26026   0.26491   0.27043
 Alpha virt. eigenvalues --    0.27895   0.29302   0.30560   0.31315   0.31739
 Alpha virt. eigenvalues --    0.32407   0.35756   0.36887   0.40664   0.45155
 Alpha virt. eigenvalues --    0.51879   0.53961   0.62599   0.62747   0.65018
 Alpha virt. eigenvalues --    0.66701   0.67557   0.67564   0.67914   0.68448
 Alpha virt. eigenvalues --    0.69780   0.70328   0.72109   0.72814   0.73761
 Alpha virt. eigenvalues --    0.75529   0.79622   0.83061   0.83722   0.84258
 Alpha virt. eigenvalues --    0.87870   0.89198   0.89697   0.90075   0.92135
 Alpha virt. eigenvalues --    0.94015   0.97514   0.98966   1.00180   1.04147
 Alpha virt. eigenvalues --    1.06030   1.07078   1.11223   1.11901   1.15390
 Alpha virt. eigenvalues --    1.17034   1.17948   1.19043   1.25168   1.25811
 Alpha virt. eigenvalues --    1.28473   1.29602   1.32577   1.33884   1.36440
 Alpha virt. eigenvalues --    1.39983   1.40877   1.41924   1.43088   1.47478
 Alpha virt. eigenvalues --    1.50458   1.54984   1.71265   1.73310   1.77526
 Alpha virt. eigenvalues --    1.81339   1.81534   1.83332   1.89687   1.90175
 Alpha virt. eigenvalues --    1.92037   1.94047   1.97011   2.02907   2.06701
 Alpha virt. eigenvalues --    2.08439   2.10454   2.12760   2.15200   2.17801
 Alpha virt. eigenvalues --    2.18394   2.20698   2.26599   2.29894   2.36131
 Alpha virt. eigenvalues --    2.41394   2.43653   2.51998   2.53630   2.55968
 Alpha virt. eigenvalues --    2.57238   2.64164   2.68893   2.72400   2.73939
 Alpha virt. eigenvalues --    2.83421   2.88193   2.94429   3.10438   3.27000
 Alpha virt. eigenvalues --    4.03191   4.13116   4.18152   4.21477   4.24401
 Alpha virt. eigenvalues --    4.29206   4.36725   4.41432   4.65711
          Condensed to atoms (all electrons):
               1          2          3          4          5          6
     1  C    5.565334   0.454831   0.293656  -0.306528  -0.283391  -0.106818
     2  C    0.454831   5.709514  -0.194724   0.093791  -0.422127   0.666157
     3  C    0.293656  -0.194724  14.081319  -1.273527  -5.258126  -2.971391
     4  C   -0.306528   0.093791  -1.273527  15.200547  -5.851354  -2.291716
     5  C   -0.283391  -0.422127  -5.258126  -5.851354  18.416347   0.657783
     6  C   -0.106818   0.666157  -2.971391  -2.291716   0.657783  13.212390
     7  N   -0.027489   0.011858  -0.445208  -0.569103   0.999592   0.143880
     8  C    0.196579  -0.349014   3.389444   2.886618  -6.229419  -3.753540
     9  C   -0.079681   0.045538  -1.180972  -0.775181   2.026200   0.932185
    10  H   -0.003462  -0.004409  -0.130373  -0.078565   0.188460   0.018915
    11  H    0.002717   0.001540   0.003129   0.000688  -0.022527   0.037392
    12  H    0.001136  -0.000133   0.033979   0.117142  -0.122568  -0.021085
    13  H    0.017895   0.256995  -0.024035   0.016802   0.003064   0.017224
    14  H    0.021750   0.008996   0.233807   0.019578   0.030001  -0.018839
    15  H    0.266642   0.012682   0.025587  -0.020805   0.032904  -0.032975
    16  H    0.001060   0.021958  -0.036673   0.019904   0.062005   0.275350
               7          8          9         10         11         12
     1  C   -0.027489   0.196579  -0.079681  -0.003462   0.002717   0.001136
     2  C    0.011858  -0.349014   0.045538  -0.004409   0.001540  -0.000133
     3  C   -0.445208   3.389444  -1.180972  -0.130373   0.003129   0.033979
     4  C   -0.569103   2.886618  -0.775181  -0.078565   0.000688   0.117142
     5  C    0.999592  -6.229419   2.026200   0.188460  -0.022527  -0.122568
     6  C    0.143880  -3.753540   0.932185   0.018915   0.037392  -0.021085
     7  N    7.142562  -0.723346   0.606380   0.251694   0.007271  -0.056566
     8  C   -0.723346  12.407404  -2.123217   0.008586   0.293610   0.035231
     9  C    0.606380  -2.123217   6.492287  -0.036126  -0.037408   0.318975
    10  H    0.251694   0.008586  -0.036126   0.357487  -0.000089  -0.002729
    11  H    0.007271   0.293610  -0.037408  -0.000089   0.490732  -0.000763
    12  H   -0.056566   0.035231   0.318975  -0.002729  -0.000763   0.476127
    13  H   -0.000451  -0.001646   0.001635  -0.000002  -0.000000  -0.000000
    14  H   -0.008918  -0.011879   0.008728   0.002354   0.000002   0.000001
    15  H    0.000250   0.005585  -0.000267  -0.000000  -0.000002  -0.000000
    16  H   -0.000662  -0.064830   0.004455   0.000004   0.001559  -0.000001
              13         14         15         16
     1  C    0.017895   0.021750   0.266642   0.001060
     2  C    0.256995   0.008996   0.012682   0.021958
     3  C   -0.024035   0.233807   0.025587  -0.036673
     4  C    0.016802   0.019578  -0.020805   0.019904
     5  C    0.003064   0.030001   0.032904   0.062005
     6  C    0.017224  -0.018839  -0.032975   0.275350
     7  N   -0.000451  -0.008918   0.000250  -0.000662
     8  C   -0.001646  -0.011879   0.005585  -0.064830
     9  C    0.001635   0.008728  -0.000267   0.004455
    10  H   -0.000002   0.002354  -0.000000   0.000004
    11  H   -0.000000   0.000002  -0.000002   0.001559
    12  H   -0.000000   0.000001  -0.000000  -0.000001
    13  H    0.553246  -0.004243  -0.006223  -0.000144
    14  H   -0.004243   0.547508  -0.000135   0.000013
    15  H   -0.006223  -0.000135   0.552624  -0.003958
    16  H   -0.000144   0.000013  -0.003958   0.545805
 Mulliken charges:
               1
     1  C   -0.014231
     2  C   -0.313454
     3  C   -0.545890
     4  C   -1.188290
     5  C    1.773155
     6  C   -0.764914
     7  N   -0.331745
     8  C    0.033834
     9  C   -0.203531
    10  H    0.428256
    11  H    0.222148
    12  H    0.221254
    13  H    0.169883
    14  H    0.171278
    15  H    0.168091
    16  H    0.174155
 Sum of Mulliken charges =  -0.00000
 Mulliken charges with hydrogens summed into heavy atoms:
               1
     1  C    0.153860
     2  C   -0.143570
     3  C   -0.374612
     4  C   -1.188290
     5  C    1.773155
     6  C   -0.590758
     7  N    0.096511
     8  C    0.255982
     9  C    0.017723
 Electronic spatial extent (au):  <R**2>=           1039.3284
 Charge=             -0.0000 electrons
 Dipole moment (field-independent basis, Debye):
    X=              5.4204    Y=             -1.0280    Z=              0.0002  Tot=              5.5171
 Quadrupole moment (field-independent basis, Debye-Ang):
   XX=            -43.3102   YY=            -46.8966   ZZ=            -60.0735
   XY=             -2.0891   XZ=              0.0003   YZ=              0.0008
 Traceless Quadrupole moment (field-independent basis, Debye-Ang):
   XX=              6.7832   YY=              3.1968   ZZ=             -9.9801
   XY=             -2.0891   XZ=              0.0003   YZ=              0.0008
 Octapole moment (field-independent basis, Debye-Ang**2):
  XXX=             35.5495  YYY=             -7.8784  ZZZ=              0.0000  XYY=             18.4220
  XXY=             -6.5614  XXZ=              0.0006  XZZ=              7.1781  YZZ=             -0.8661
  YYZ=              0.0005  XYZ=              0.0009
 Hexadecapole moment (field-independent basis, Debye-Ang**3):
 XXXX=           -843.5936 YYYY=           -408.8242 ZZZZ=            -81.3082 XXXY=            -16.7905
 XXXZ=             -0.0001 YYYX=            -15.7133 YYYZ=              0.0127 ZZZX=             -0.0035
 ZZZY=              0.0163 XXYY=           -201.8455 XXZZ=           -198.7872 YYZZ=           -105.2651
 XXYZ=              0.0039 YYXZ=             -0.0003 ZZXY=             -1.8965
 N-N= 3.944230548514D+02 E-N=-1.630822100438D+03  KE= 3.597624791632D+02
 Unable to Open any file for archive entry.
 1\1\GINC-EXP-1-24\FOpt\RBVP86 TD-FC\6-31+G(d)\C8H7N1\SCAPARAS\14-Jun-2
 021\0\\# td= (nstates=6, root=1) BVP86/6-31+G* Opt density=current\\Fu
 ncsBVP86-V-1st\\0,1\C,-2.1957637268,0.6881575195,-0.0000894133\C,-2.16
 19174219,-0.7076468975,0.0001158227\C,-0.9342564967,-1.4670143826,0.00
 02013508\C,0.2353822099,-0.6459802302,0.0000940504\C,0.2290692918,0.74
 72646149,-0.0000208779\C,-0.9994808379,1.4867408343,-0.0001570209\N,1.
 6113826953,-1.0612765831,-0.0000733249\C,1.6262600393,1.1664000768,0.0
 001494832\C,2.4512055089,-0.0078390723,0.0000300958\H,1.9076603371,-2.
 037898853,-0.0000332148\H,2.0054598712,2.1891310072,0.000201085\H,3.53
 37956229,-0.1164167009,0.0000527423\H,-3.1098306017,-1.2582226868,0.00
 01405589\H,-0.9117790155,-2.5578360676,0.000227029\H,-3.1687622849,1.1
 917461512,-0.0001395058\H,-1.0215221909,2.5781372701,-0.0001628605\\Ve
 rsion=AS64L-G16RevC.01\State=1-A\HF=-363.8356504\RMSD=8.386e-09\RMSF=8
 .395e-05\Dipole=2.1325651,-0.4044461,0.0000621\Quadrupole=5.0431572,2.
 3767687,-7.4199258,-1.5531679,0.0002531,0.0005983\PG=C01 [X(C8H7N1)]\\
 @
 The archive entry for this job was punched.


 "WHERE SHALL I START, PLEASE YOUR MAJESTY?" HE ASKED.
 "BEGIN AT THE BEGINNING," THE KING SAID GRAVELY,
 "AND GO ON TILL YOU COME TO THE END: THEN STOP." 

                                      -- LEWIS CARROLL
 Job cpu time:       0 days  2 hours 51 minutes 27.2 seconds.
 Elapsed time:       0 days  0 hours 44 minutes  7.3 seconds.
 File lengths (MBytes):  RWF=    216 Int=      0 D2E=      0 Chk=     11 Scr=      1
 Normal termination of Gaussian 16 at Mon Jun 14 12:40:41 2021.
