 Entering Gaussian System, Link 0=/cm/shared/apps/spack/cpu/opt/spack/linux-centos8-zen/gcc-8.3.1/gaussian-16.C.01-po5bqktfeugvmjyga3v7eigbecnokxng/g16/g16
 Initial command:
 /cm/shared/apps/spack/cpu/opt/spack/linux-centos8-zen/gcc-8.3.1/gaussian-16.C.01-po5bqktfeugvmjyga3v7eigbecnokxng/g16/l1.exe "/scratch/scaparas/job_3404231/Gau-62595.inp" -scrdir="/scratch/scaparas/job_3404231/"
 Entering Link 1 = /cm/shared/apps/spack/cpu/opt/spack/linux-centos8-zen/gcc-8.3.1/gaussian-16.C.01-po5bqktfeugvmjyga3v7eigbecnokxng/g16/l1.exe PID=     62596.
  
 Copyright (c) 1988-2019, Gaussian, Inc.  All Rights Reserved.
  
 This is part of the Gaussian(R) 16 program.  It is based on
 the Gaussian(R) 09 system (copyright 2009, Gaussian, Inc.),
 the Gaussian(R) 03 system (copyright 2003, Gaussian, Inc.),
 the Gaussian(R) 98 system (copyright 1998, Gaussian, Inc.),
 the Gaussian(R) 94 system (copyright 1995, Gaussian, Inc.),
 the Gaussian 92(TM) system (copyright 1992, Gaussian, Inc.),
 the Gaussian 90(TM) system (copyright 1990, Gaussian, Inc.),
 the Gaussian 88(TM) system (copyright 1988, Gaussian, Inc.),
 the Gaussian 86(TM) system (copyright 1986, Carnegie Mellon
 University), and the Gaussian 82(TM) system (copyright 1983,
 Carnegie Mellon University). Gaussian is a federally registered
 trademark of Gaussian, Inc.
  
 This software contains proprietary and confidential information,
 including trade secrets, belonging to Gaussian, Inc.
  
 This software is provided under written license and may be
 used, copied, transmitted, or stored only in accord with that
 written license.
  
 The following legend is applicable only to US Government
 contracts under FAR:
  
                    RESTRICTED RIGHTS LEGEND
  
 Use, reproduction and disclosure by the US Government is
 subject to restrictions as set forth in subparagraphs (a)
 and (c) of the Commercial Computer Software - Restricted
 Rights clause in FAR 52.227-19.
  
 Gaussian, Inc.
 340 Quinnipiac St., Bldg. 40, Wallingford CT 06492
  
  
 ---------------------------------------------------------------
 Warning -- This program may not be used in any manner that
 competes with the business of Gaussian, Inc. or will provide
 assistance to any competitor of Gaussian, Inc.  The licensee
 of this program is prohibited from giving any competitor of
 Gaussian, Inc. access to this program.  By using this program,
 the user acknowledges that Gaussian, Inc. is engaged in the
 business of creating and licensing software in the field of
 computational chemistry and represents and warrants to the
 licensee that it is not a competitor of Gaussian, Inc. and that
 it will not use this program in any manner prohibited above.
 ---------------------------------------------------------------
  

 Cite this work as:
 Gaussian 16, Revision C.01,
 M. J. Frisch, G. W. Trucks, H. B. Schlegel, G. E. Scuseria, 
 M. A. Robb, J. R. Cheeseman, G. Scalmani, V. Barone, 
 G. A. Petersson, H. Nakatsuji, X. Li, M. Caricato, A. V. Marenich, 
 J. Bloino, B. G. Janesko, R. Gomperts, B. Mennucci, H. P. Hratchian, 
 J. V. Ortiz, A. F. Izmaylov, J. L. Sonnenberg, D. Williams-Young, 
 F. Ding, F. Lipparini, F. Egidi, J. Goings, B. Peng, A. Petrone, 
 T. Henderson, D. Ranasinghe, V. G. Zakrzewski, J. Gao, N. Rega, 
 G. Zheng, W. Liang, M. Hada, M. Ehara, K. Toyota, R. Fukuda, 
 J. Hasegawa, M. Ishida, T. Nakajima, Y. Honda, O. Kitao, H. Nakai, 
 T. Vreven, K. Throssell, J. A. Montgomery, Jr., J. E. Peralta, 
 F. Ogliaro, M. J. Bearpark, J. J. Heyd, E. N. Brothers, K. N. Kudin, 
 V. N. Staroverov, T. A. Keith, R. Kobayashi, J. Normand, 
 K. Raghavachari, A. P. Rendell, J. C. Burant, S. S. Iyengar, 
 J. Tomasi, M. Cossi, J. M. Millam, M. Klene, C. Adamo, R. Cammi, 
 J. W. Ochterski, R. L. Martin, K. Morokuma, O. Farkas, 
 J. B. Foresman, and D. J. Fox, Gaussian, Inc., Wallingford CT, 2019.
 
 ******************************************
 Gaussian 16:  AS64L-G16RevC.01  3-Jul-2019
                14-Jun-2021 
 ******************************************
 %nprocshared=4
 Will use up to    4 processors via shared memory.
 %chk=FuncsB3PW91-V-2nd.chk
 %Mem=3GB
 ------------------------------------------------------------
 # td= (nstates=6, root=2) B3PW91/6-31+G* Opt density=current
 ------------------------------------------------------------
 1/18=20,19=15,26=3,38=1/1,3;
 2/9=110,12=2,17=6,18=5,40=1/2;
 3/5=1,6=6,7=11,11=9,25=1,30=1,71=1,74=-6/1,2,3,8;
 4//1;
 5/5=2,38=5/2;
 8/6=1,10=2,107=2,108=6/1;
 9/8=2,15=2,41=6,42=1,70=2/14;
 10/5=4,28=2/2;
 6/7=2,8=2,9=2,10=2,22=-1/1;
 7/12=6,13=5,14=2/1,2,3,16;
 1/18=20,19=15,26=3/3(2);
 2/9=110/2;
 99//99;
 2/9=110/2;
 3/5=1,6=6,7=11,11=9,25=1,30=1,71=1,74=-6/1,2,3,8;
 4/5=5,16=3,69=1/1;
 5/5=2,38=5/2;
 8/6=1,10=2,107=2,108=6/1;
 9/8=2,15=2,41=6,42=1,49=4,70=2/14;
 10/5=4,28=2/2;
 7/12=6,13=5,14=2/1,2,3,16;
 1/18=20,19=15,26=3/3(-8);
 2/9=110/2;
 6/7=2,8=2,9=2,10=2,22=-1/1;
 99/9=10/99;
 -----------------
 FuncsB3PW91-V-2nd
 -----------------
 Symbolic Z-matrix:
 Charge =  0 Multiplicity = 1
 C                    -2.15106   0.68921   0.00009 
 C                    -2.12793  -0.71582   0.00008 
 C                    -0.9323   -1.4131   -0.00001 
 C                     0.24691  -0.6702   -0.00004 
 C                     0.24819   0.7483    0. 
 C                    -0.97947   1.42353   0.00003 
 N                     1.56177  -1.07759  -0.00029 
 C                     1.62013   1.1629   -0.00016 
 C                     2.38201   0.03081   0.00025 
 H                     1.87632  -2.03001   0.00044 
 H                     1.99217   2.17301  -0.00035 
 H                     3.45255  -0.08243   0.00041 
 H                    -3.06159  -1.26202   0.00009 
 H                    -0.91725  -2.49534  -0.00007 
 H                    -3.1042    1.20079   0.00009 
 H                    -1.00935   2.50542  -0.00002 
 

 GradGradGradGradGradGradGradGradGradGradGradGradGradGradGradGradGradGrad
 Berny optimization.
 Initialization pass.
                           ----------------------------
                           !    Initial Parameters    !
                           ! (Angstroms and Degrees)  !
 --------------------------                            --------------------------
 ! Name  Definition              Value          Derivative Info.                !
 --------------------------------------------------------------------------------
 ! R1    R(1,2)                  1.4052         estimate D2E/DX2                !
 ! R2    R(1,6)                  1.3827         estimate D2E/DX2                !
 ! R3    R(1,15)                 1.0818         estimate D2E/DX2                !
 ! R4    R(2,3)                  1.3841         estimate D2E/DX2                !
 ! R5    R(2,13)                 1.0817         estimate D2E/DX2                !
 ! R6    R(3,4)                  1.3937         estimate D2E/DX2                !
 ! R7    R(3,14)                 1.0823         estimate D2E/DX2                !
 ! R8    R(4,5)                  1.4185         estimate D2E/DX2                !
 ! R9    R(4,7)                  1.3765         estimate D2E/DX2                !
 ! R10   R(5,6)                  1.4011         estimate D2E/DX2                !
 ! R11   R(5,8)                  1.4332         estimate D2E/DX2                !
 ! R12   R(6,16)                 1.0823         estimate D2E/DX2                !
 ! R13   R(7,9)                  1.3789         estimate D2E/DX2                !
 ! R14   R(7,10)                 1.003          estimate D2E/DX2                !
 ! R15   R(8,9)                  1.3646         estimate D2E/DX2                !
 ! R16   R(8,11)                 1.0764         estimate D2E/DX2                !
 ! R17   R(9,12)                 1.0765         estimate D2E/DX2                !
 ! A1    A(2,1,6)              121.1349         estimate D2E/DX2                !
 ! A2    A(2,1,15)             119.1671         estimate D2E/DX2                !
 ! A3    A(6,1,15)             119.698          estimate D2E/DX2                !
 ! A4    A(1,2,3)              121.1938         estimate D2E/DX2                !
 ! A5    A(1,2,13)             119.3846         estimate D2E/DX2                !
 ! A6    A(3,2,13)             119.4217         estimate D2E/DX2                !
 ! A7    A(2,3,4)              117.5387         estimate D2E/DX2                !
 ! A8    A(2,3,14)             121.0469         estimate D2E/DX2                !
 ! A9    A(4,3,14)             121.4144         estimate D2E/DX2                !
 ! A10   A(3,4,5)              122.2626         estimate D2E/DX2                !
 ! A11   A(3,4,7)              130.5743         estimate D2E/DX2                !
 ! A12   A(5,4,7)              107.163          estimate D2E/DX2                !
 ! A13   A(4,5,6)              118.7594         estimate D2E/DX2                !
 ! A14   A(4,5,8)              106.8666         estimate D2E/DX2                !
 ! A15   A(6,5,8)              134.374          estimate D2E/DX2                !
 ! A16   A(1,6,5)              119.1105         estimate D2E/DX2                !
 ! A17   A(1,6,16)             120.4966         estimate D2E/DX2                !
 ! A18   A(5,6,16)             120.3928         estimate D2E/DX2                !
 ! A19   A(4,7,9)              109.2874         estimate D2E/DX2                !
 ! A20   A(4,7,10)             125.4909         estimate D2E/DX2                !
 ! A21   A(9,7,10)             125.2217         estimate D2E/DX2                !
 ! A22   A(5,8,9)              107.125          estimate D2E/DX2                !
 ! A23   A(5,8,11)             127.0344         estimate D2E/DX2                !
 ! A24   A(9,8,11)             125.8405         estimate D2E/DX2                !
 ! A25   A(7,9,8)              109.5578         estimate D2E/DX2                !
 ! A26   A(7,9,12)             120.4645         estimate D2E/DX2                !
 ! A27   A(8,9,12)             129.9776         estimate D2E/DX2                !
 ! D1    D(6,1,2,3)             -0.0008         estimate D2E/DX2                !
 ! D2    D(6,1,2,13)          -179.9981         estimate D2E/DX2                !
 ! D3    D(15,1,2,3)           179.996          estimate D2E/DX2                !
 ! D4    D(15,1,2,13)           -0.0013         estimate D2E/DX2                !
 ! D5    D(2,1,6,5)             -0.0018         estimate D2E/DX2                !
 ! D6    D(2,1,6,16)           179.9965         estimate D2E/DX2                !
 ! D7    D(15,1,6,5)          -179.9986         estimate D2E/DX2                !
 ! D8    D(15,1,6,16)           -0.0003         estimate D2E/DX2                !
 ! D9    D(1,2,3,4)              0.002          estimate D2E/DX2                !
 ! D10   D(1,2,3,14)          -179.9968         estimate D2E/DX2                !
 ! D11   D(13,2,3,4)           179.9992         estimate D2E/DX2                !
 ! D12   D(13,2,3,14)            0.0005         estimate D2E/DX2                !
 ! D13   D(2,3,4,5)             -0.0005         estimate D2E/DX2                !
 ! D14   D(2,3,4,7)           -179.9911         estimate D2E/DX2                !
 ! D15   D(14,3,4,5)           179.9982         estimate D2E/DX2                !
 ! D16   D(14,3,4,7)             0.0076         estimate D2E/DX2                !
 ! D17   D(3,4,5,6)             -0.002          estimate D2E/DX2                !
 ! D18   D(3,4,5,8)           -179.9955         estimate D2E/DX2                !
 ! D19   D(7,4,5,6)            179.9905         estimate D2E/DX2                !
 ! D20   D(7,4,5,8)             -0.003          estimate D2E/DX2                !
 ! D21   D(3,4,7,9)           -179.98           estimate D2E/DX2                !
 ! D22   D(3,4,7,10)            -0.0649         estimate D2E/DX2                !
 ! D23   D(5,4,7,9)              0.0284         estimate D2E/DX2                !
 ! D24   D(5,4,7,10)           179.9434         estimate D2E/DX2                !
 ! D25   D(4,5,6,1)              0.0031         estimate D2E/DX2                !
 ! D26   D(4,5,6,16)          -179.9951         estimate D2E/DX2                !
 ! D27   D(8,5,6,1)            179.9944         estimate D2E/DX2                !
 ! D28   D(8,5,6,16)            -0.0038         estimate D2E/DX2                !
 ! D29   D(4,5,8,9)             -0.0234         estimate D2E/DX2                !
 ! D30   D(4,5,8,11)           179.9883         estimate D2E/DX2                !
 ! D31   D(6,5,8,9)            179.9846         estimate D2E/DX2                !
 ! D32   D(6,5,8,11)            -0.0037         estimate D2E/DX2                !
 ! D33   D(4,7,9,8)             -0.0444         estimate D2E/DX2                !
 ! D34   D(4,7,9,12)           179.9847         estimate D2E/DX2                !
 ! D35   D(10,7,9,8)          -179.9597         estimate D2E/DX2                !
 ! D36   D(10,7,9,12)            0.0693         estimate D2E/DX2                !
 ! D37   D(5,8,9,7)              0.0414         estimate D2E/DX2                !
 ! D38   D(5,8,9,12)          -179.9913         estimate D2E/DX2                !
 ! D39   D(11,8,9,7)          -179.9702         estimate D2E/DX2                !
 ! D40   D(11,8,9,12)           -0.0029         estimate D2E/DX2                !
 --------------------------------------------------------------------------------
 Trust Radius=3.00D-01 FncErr=1.00D-07 GrdErr=1.00D-06 EigMax=2.50D+02 EigMin=1.00D-04
 Number of steps in this run=     94 maximum allowed number of steps=    100.
 GradGradGradGradGradGradGradGradGradGradGradGradGradGradGradGradGradGrad

                          Input orientation:                          
 ---------------------------------------------------------------------
 Center     Atomic      Atomic             Coordinates (Angstroms)
 Number     Number       Type             X           Y           Z
 ---------------------------------------------------------------------
      1          6           0       -2.151063    0.689208    0.000088
      2          6           0       -2.127927   -0.715818    0.000075
      3          6           0       -0.932297   -1.413100   -0.000011
      4          6           0        0.246911   -0.670201   -0.000042
      5          6           0        0.248193    0.748299    0.000000
      6          6           0       -0.979474    1.423526    0.000032
      7          7           0        1.561774   -1.077592   -0.000285
      8          6           0        1.620133    1.162900   -0.000157
      9          6           0        2.382013    0.030806    0.000248
     10          1           0        1.876315   -2.030011    0.000438
     11          1           0        1.992173    2.173010   -0.000348
     12          1           0        3.452549   -0.082425    0.000408
     13          1           0       -3.061594   -1.262020    0.000088
     14          1           0       -0.917252   -2.495342   -0.000073
     15          1           0       -3.104203    1.200785    0.000090
     16          1           0       -1.009348    2.505421   -0.000015
 ---------------------------------------------------------------------
                    Distance matrix (angstroms):
                    1          2          3          4          5
     1  C    0.000000
     2  C    1.405216   0.000000
     3  C    2.430039   1.384100   0.000000
     4  C    2.756496   2.375276   1.393711   0.000000
     5  C    2.399984   2.790983   2.462763   1.418501   0.000000
     6  C    1.382694   2.428114   2.837018   2.426461   1.401106
     7  N    4.111781   3.707395   2.516536   1.376529   2.249305
     8  C    3.800829   4.192557   3.626386   2.290414   1.433218
     9  C    4.580641   4.571324   3.615178   2.247236   2.251218
    10  H    4.859416   4.214387   2.875566   2.122273   3.220216
    11  H    4.400917   5.031953   4.627387   3.336134   2.251948
    12  H    5.656491   5.616307   4.582311   3.259079   3.310287
    13  H    2.153220   1.081698   2.134650   3.361020   3.872476
    14  H    3.415208   2.152310   1.082347   2.164813   3.446661
    15  H    1.081752   2.150926   3.398466   3.838040   3.382795
    16  H    2.145261   3.409927   3.919278   3.415079   2.160761
                    6          7          8          9         10
     6  C    0.000000
     7  N    3.565604   0.000000
     8  C    2.612639   2.241252   0.000000
     9  C    3.638580   1.378890   1.364587   0.000000
    10  H    4.481345   1.003015   3.203172   2.121956   0.000000
    11  H    3.064704   3.278972   1.076446   2.177387   4.204618
    12  H    4.680888   2.136677   2.215532   1.076508   2.505515
    13  H    3.398144   4.627045   5.272457   5.595021   4.997275
    14  H    3.919362   2.855798   4.452085   4.155307   2.832058
    15  H    2.136372   5.192528   4.724488   5.609583   5.936632
    16  H    1.082307   4.410062   2.952378   4.198220   5.375611
                   11         12         13         14         15
    11  H    0.000000
    12  H    2.686947   0.000000
    13  H    6.110646   6.620083   0.000000
    14  H    5.500751   4.991726   2.473719   0.000000
    15  H    5.188282   6.681139   2.463174   4.294661   0.000000
    16  H    3.019872   5.158049   4.290143   5.001611   2.467892
                   16
    16  H    0.000000
 Stoichiometry    C8H7N
 Framework group  C1[X(C8H7N)]
 Deg. of freedom    42
 Full point group                 C1      NOp   1
 Largest Abelian subgroup         C1      NOp   1
 Largest concise Abelian subgroup C1      NOp   1
                         Standard orientation:                         
 ---------------------------------------------------------------------
 Center     Atomic      Atomic             Coordinates (Angstroms)
 Number     Number       Type             X           Y           Z
 ---------------------------------------------------------------------
      1          6           0       -2.151063    0.689208    0.000088
      2          6           0       -2.127927   -0.715818    0.000075
      3          6           0       -0.932297   -1.413100   -0.000011
      4          6           0        0.246911   -0.670201   -0.000042
      5          6           0        0.248193    0.748299    0.000000
      6          6           0       -0.979474    1.423526    0.000032
      7          7           0        1.561774   -1.077592   -0.000285
      8          6           0        1.620133    1.162900   -0.000157
      9          6           0        2.382013    0.030806    0.000248
     10          1           0        1.876315   -2.030011    0.000438
     11          1           0        1.992173    2.173010   -0.000348
     12          1           0        3.452549   -0.082425    0.000408
     13          1           0       -3.061594   -1.262020    0.000088
     14          1           0       -0.917252   -2.495342   -0.000073
     15          1           0       -3.104203    1.200785    0.000090
     16          1           0       -1.009348    2.505421   -0.000015
 ---------------------------------------------------------------------
 Rotational constants (GHZ):           3.9080822           1.6429452           1.1566805
 Standard basis: 6-31+G(d) (6D, 7F)
 There are   185 symmetry adapted cartesian basis functions of A   symmetry.
 There are   185 symmetry adapted basis functions of A   symmetry.
   185 basis functions,   316 primitive gaussians,   185 cartesian basis functions
    31 alpha electrons       31 beta electrons
       nuclear repulsion energy       401.3368668897 Hartrees.
 NAtoms=   16 NActive=   16 NUniq=   16 SFac= 1.00D+00 NAtFMM=   60 NAOKFM=F Big=F
 Integral buffers will be    131072 words long.
 Regular integral format.
 Two-electron integral symmetry is turned on.
 One-electron integrals computed using PRISM.
 NBasis=   185 RedAO= T EigKep=  1.26D-06  NBF=   185
 NBsUse=   185 1.00D-06 EigRej= -1.00D+00 NBFU=   185
 ExpMin= 4.38D-02 ExpMax= 4.17D+03 ExpMxC= 6.27D+02 IAcc=3 IRadAn=         5 AccDes= 0.00D+00
 Harris functional with IExCor=  408 and IRadAn=       5 diagonalized for initial guess.
 HarFok:  IExCor=  408 AccDes= 0.00D+00 IRadAn=         5 IDoV= 1 UseB2=F ITyADJ=14
 ICtDFT=  3500011 ScaDFX=  1.000000  1.000000  1.000000  1.000000
 FoFCou: FMM=F IPFlag=           0 FMFlag=      100000 FMFlg1=           0
         NFxFlg=           0 DoJE=T BraDBF=F KetDBF=T FulRan=T
         wScrn=  0.000000 ICntrl=       500 IOpCl=  0 I1Cent=   200000004 NGrid=           0
         NMat0=    1 NMatS0=      1 NMatT0=    0 NMatD0=    1 NMtDS0=    0 NMtDT0=    0
 Petite list used in FoFCou.
 Keep R1 ints in memory in canonical form, NReq=152071459.
 Requested convergence on RMS density matrix=1.00D-08 within 128 cycles.
 Requested convergence on MAX density matrix=1.00D-06.
 Requested convergence on             energy=1.00D-06.
 No special actions if energy rises.
 SCF Done:  E(RB3PW91) =  -363.692543051     A.U. after   14 cycles
            NFock= 14  Conv=0.10D-07     -V/T= 2.0093
 DoSCS=F DFT=T ScalE2(SS,OS)=  1.000000  1.000000
 ExpMin= 4.38D-02 ExpMax= 4.17D+03 ExpMxC= 6.27D+02 IAcc=3 IRadAn=         5 AccDes= 0.00D+00
 HarFok:  IExCor=  205 AccDes= 0.00D+00 IRadAn=         5 IDoV=-2 UseB2=F ITyADJ=14
 ICtDFT= 12500011 ScaDFX=  1.000000  1.000000  1.000000  1.000000
 Range of M.O.s used for correlation:    10   185
 NBasis=   185 NAE=    31 NBE=    31 NFC=     9 NFV=     0
 NROrb=    176 NOA=    22 NOB=    22 NVA=   154 NVB=   154

 **** Warning!!: The largest alpha MO coefficient is  0.17659311D+03

 Orbital symmetries:
       Occupied  (A) (A) (A) (A) (A) (A) (A) (A) (A) (A) (A) (A)
                 (A) (A) (A) (A) (A) (A) (A) (A) (A) (A) (A) (A)
                 (A) (A) (A) (A) (A) (A) (A)
       Virtual   (A) (A) (A) (A) (A) (A) (A) (A) (A) (A) (A) (A)
                 (A) (A) (A) (A) (A) (A) (A) (A) (A) (A) (A) (A)
                 (A) (A) (A) (A) (A) (A) (A) (A) (A) (A) (A) (A)
                 (A) (A) (A) (A) (A) (A) (A) (A) (A) (A) (A) (A)
                 (A) (A) (A) (A) (A) (A) (A) (A) (A) (A) (A) (A)
                 (A) (A) (A) (A) (A) (A) (A) (A) (A) (A) (A) (A)
                 (A) (A) (A) (A) (A) (A) (A) (A) (A) (A) (A) (A)
                 (A) (A) (A) (A) (A) (A) (A) (A) (A) (A) (A) (A)
                 (A) (A) (A) (A) (A) (A) (A) (A) (A) (A) (A) (A)
                 (A) (A) (A) (A) (A) (A) (A) (A) (A) (A) (A) (A)
                 (A) (A) (A) (A) (A) (A) (A) (A) (A) (A) (A) (A)
                 (A) (A) (A) (A) (A) (A) (A) (A) (A) (A) (A) (A)
                 (A) (A) (A) (A) (A) (A) (A) (A) (A) (A)
    24 initial guesses have been made.
 Convergence on wavefunction:    0.000001000000000
 Iteration     1 Dimension    24 NMult     0 NNew     24
 CISAX will form    24 AO SS matrices at one time.
 New state      1 was old state      2
 New state      2 was old state      3
 New state      3 was old state      1
 New state      4 was old state      5
 New state      5 was old state      6
 New state      6 was old state      7
 Iteration     2 Dimension    36 NMult    24 NNew     12
 New state      1 was old state      3
 New state      2 was old state      1
 New state      3 was old state      2
 Iteration     3 Dimension    48 NMult    36 NNew     12
 Iteration     4 Dimension    60 NMult    48 NNew     12
 Iteration     5 Dimension    72 NMult    60 NNew     12
 Iteration     6 Dimension    84 NMult    72 NNew     12
 Iteration     7 Dimension    96 NMult    84 NNew     12
 Iteration     8 Dimension   108 NMult    96 NNew     12
 Iteration     9 Dimension   120 NMult   108 NNew     12
 Iteration    10 Dimension   126 NMult   120 NNew      6
 Iteration    11 Dimension   130 NMult   126 NNew      4
 ***********************************************************************
 Excited states from <AA,BB:AA,BB> singles matrix:
 ***********************************************************************
 
 Ground to excited state transition densities written to RWF  633
 Ground to excited state transition electric dipole moments (Au):
       state          X           Y           Z        Dip. S.      Osc.
         1        -0.5247      0.6187     -0.0001      0.6581      0.0776
         2        -0.5374     -0.0954     -0.0001      0.2979      0.0362
         3         0.0007     -0.0003     -0.1233      0.0152      0.0019
         4        -0.0005      0.0001     -0.1386      0.0192      0.0027
         5         0.0006      0.0000      0.0195      0.0004      0.0001
         6         0.0010      0.0003      0.1010      0.0102      0.0015
 Ground to excited state transition velocity dipole moments (Au):
       state          X           Y           Z        Dip. S.      Osc.
         1         0.0840     -0.1185      0.0000      0.0211      0.0796
         2         0.0924      0.0179      0.0000      0.0089      0.0324
         3        -0.0001      0.0001      0.0151      0.0002      0.0008
         4         0.0001     -0.0000      0.0301      0.0009      0.0029
         5        -0.0001     -0.0000     -0.0029      0.0000      0.0000
         6        -0.0002     -0.0001     -0.0217      0.0005      0.0014
 Ground to excited state transition magnetic dipole moments (Au):
       state          X           Y           Z
         1         0.0003     -0.0000      0.1750
         2        -0.0000     -0.0002     -0.0213
         3         0.1233     -0.0694      0.0001
         4         0.0496     -0.2293     -0.0000
         5         0.3029     -0.1260      0.0003
         6         0.0975      0.3526      0.0007
 Ground to excited state transition velocity quadrupole moments (Au):
       state          XX          YY          ZZ          XY          XZ          YZ
         1         0.1858     -0.1062      0.0084      0.0436      0.0001      0.0001
         2         0.0747     -0.1125      0.0241      0.0033      0.0001     -0.0000
         3        -0.0002      0.0001      0.0001      0.0001      0.0607      0.0550
         4        -0.0001      0.0000     -0.0000     -0.0000      0.1621     -0.0080
         5        -0.0002     -0.0000      0.0000      0.0002      0.1587      0.2559
         6         0.0000     -0.0001      0.0001      0.0003     -0.3152      0.0071
 <0|del|b> * <b|rxdel|0> + <0|del|b> * <b|delr+rdel|0>
 Rotatory Strengths (R) in cgs (10**-40 erg-esu-cm/Gauss)
       state          XX          YY          ZZ    R(velocity)    E-M Angle
         1         0.0360      0.0602      0.0189      0.0384       90.00
         2        -0.0116     -0.0099     -0.0039     -0.0085       90.00
         3        -0.0126     -0.0347     -0.0153     -0.0209       90.00
         4         0.0129      0.0080      0.0128      0.0112       90.00
         5        -0.0021     -0.1200     -0.0101     -0.0441       90.00
         6        -0.0975     -0.0459     -0.0329     -0.0588       90.00
 1/2[<0|r|b>*<b|rxdel|0> + (<0|rxdel|b>*<b|r|0>)*]
 Rotatory Strengths (R) in cgs (10**-40 erg-esu-cm/Gauss)
       state          XX          YY          ZZ     R(length)
         1         0.0977      0.0144      0.0158      0.0426
         2        -0.0103     -0.0135     -0.0020     -0.0086
         3        -0.0586     -0.0166      0.0112     -0.0213
         4         0.0170      0.0146     -0.0003      0.0104
         5        -0.1340      0.0001     -0.0037     -0.0459
         6        -0.0664     -0.0791     -0.0482     -0.0646
  1/2[<0|del|b>*<b|r|0> + (<0|r|b>*<b|del|0>)*] (Au)
       state          X           Y           Z        Dip. S.   Osc.(frdel)
         1        -0.0441     -0.0733     -0.0000      0.1174      0.0783
         2        -0.0497     -0.0017     -0.0000      0.0514      0.0342
         3        -0.0000     -0.0000     -0.0019      0.0019      0.0012
         4        -0.0000     -0.0000     -0.0042      0.0042      0.0028
         5        -0.0000     -0.0000     -0.0001      0.0001      0.0000
         6        -0.0000     -0.0000     -0.0022      0.0022      0.0015

 Excitation energies and oscillator strengths:
 
 Excited State   1:      Singlet-A      4.8116 eV  257.68 nm  f=0.0776  <S**2>=0.000
      30 -> 32        -0.14142
      30 -> 34         0.15211
      31 -> 32         0.66091
 
 Excited State   2:      Singlet-A      4.9584 eV  250.05 nm  f=0.0362  <S**2>=0.000
      30 -> 32         0.56072
      31 -> 32         0.11871
      31 -> 34        -0.40488
 This state for optimization and/or second-order correction.
 Total Energy, E(TD-HF/TD-DFT) =  -363.510325712    
 Copying the excited state density for this state as the 1-particle RhoCI density.
 
 Excited State   3:      Singlet-A      5.1866 eV  239.05 nm  f=0.0019  <S**2>=0.000
      31 -> 33         0.70372
 
 Excited State   4:      Singlet-A      5.6583 eV  219.12 nm  f=0.0027  <S**2>=0.000
      30 -> 33         0.68991
      31 -> 35         0.12744
 
 Excited State   5:      Singlet-A      5.7518 eV  215.56 nm  f=0.0001  <S**2>=0.000
      30 -> 33        -0.12943
      31 -> 35         0.68992
 
 Excited State   6:      Singlet-A      5.8819 eV  210.79 nm  f=0.0015  <S**2>=0.000
      31 -> 36         0.69803
 SavETr:  write IOETrn=   770 NScale= 10 NData=  16 NLR=1 NState=    6 LETran=     118.
          IDoAtm=1111111111111111
          Differentiating once with respect to electric field.
                with respect to dipole field.
          Differentiating once with respect to nuclear coordinates.
 Keep R1 ints in memory in canonical form, NReq=152083851.
          There are     1 degrees of freedom in the 1st order CPHF.  IDoFFX=0 NUNeed=     1.
 LinEq1:  Iter=  0 NonCon=     1 RMS=5.67D-03 Max=1.77D-01 NDo=     1
 AX will form     1 AO Fock derivatives at one time.
 LinEq1:  Iter=  1 NonCon=     1 RMS=2.44D-03 Max=6.70D-02 NDo=     1
 LinEq1:  Iter=  2 NonCon=     1 RMS=2.20D-03 Max=7.59D-02 NDo=     1
 LinEq1:  Iter=  3 NonCon=     1 RMS=8.79D-04 Max=1.81D-02 NDo=     1
 LinEq1:  Iter=  4 NonCon=     1 RMS=5.02D-04 Max=1.75D-02 NDo=     1
 LinEq1:  Iter=  5 NonCon=     1 RMS=2.49D-04 Max=4.71D-03 NDo=     1
 LinEq1:  Iter=  6 NonCon=     1 RMS=1.60D-04 Max=4.23D-03 NDo=     1
 LinEq1:  Iter=  7 NonCon=     1 RMS=7.09D-05 Max=1.34D-03 NDo=     1
 LinEq1:  Iter=  8 NonCon=     1 RMS=4.79D-05 Max=1.12D-03 NDo=     1
 LinEq1:  Iter=  9 NonCon=     1 RMS=1.52D-05 Max=3.95D-04 NDo=     1
 LinEq1:  Iter= 10 NonCon=     1 RMS=1.16D-05 Max=2.41D-04 NDo=     1
 LinEq1:  Iter= 11 NonCon=     1 RMS=4.14D-06 Max=1.04D-04 NDo=     1
 LinEq1:  Iter= 12 NonCon=     1 RMS=2.76D-06 Max=5.63D-05 NDo=     1
 LinEq1:  Iter= 13 NonCon=     1 RMS=8.24D-07 Max=1.11D-05 NDo=     1
 LinEq1:  Iter= 14 NonCon=     1 RMS=3.47D-07 Max=8.11D-06 NDo=     1
 LinEq1:  Iter= 15 NonCon=     1 RMS=1.67D-07 Max=2.85D-06 NDo=     1
 LinEq1:  Iter= 16 NonCon=     1 RMS=3.41D-08 Max=5.85D-07 NDo=     1
 LinEq1:  Iter= 17 NonCon=     1 RMS=1.86D-08 Max=5.32D-07 NDo=     1
 LinEq1:  Iter= 18 NonCon=     1 RMS=7.06D-09 Max=1.17D-07 NDo=     1
 LinEq1:  Iter= 19 NonCon=     1 RMS=1.23D-09 Max=1.75D-08 NDo=     1
 LinEq1:  Iter= 20 NonCon=     1 RMS=2.39D-10 Max=3.25D-09 NDo=     1
 LinEq1:  Iter= 21 NonCon=     0 RMS=7.78D-11 Max=8.50D-10 NDo=     1
 Linear equations converged to 1.000D-10 1.000D-09 after    21 iterations.
 End of Minotr F.D. properties file   721 does not exist.
 End of Minotr F.D. properties file   722 does not exist.
 End of Minotr F.D. properties file   788 does not exist.

 **********************************************************************

            Population analysis using the CI Density.

 **********************************************************************

 Orbital symmetries:
       Occupied  (A) (A) (A) (A) (A) (A) (A) (A) (A) (A) (A) (A)
                 (A) (A) (A) (A) (A) (A) (A) (A) (A) (A) (A) (A)
                 (A) (A) (A) (A) (A) (A) (A)
       Virtual   (A) (A) (A) (A) (A) (A) (A) (A) (A) (A) (A) (A)
                 (A) (A) (A) (A) (A) (A) (A) (A) (A) (A) (A) (A)
                 (A) (A) (A) (A) (A) (A) (A) (A) (A) (A) (A) (A)
                 (A) (A) (A) (A) (A) (A) (A) (A) (A) (A) (A) (A)
                 (A) (A) (A) (A) (A) (A) (A) (A) (A) (A) (A) (A)
                 (A) (A) (A) (A) (A) (A) (A) (A) (A) (A) (A) (A)
                 (A) (A) (A) (A) (A) (A) (A) (A) (A) (A) (A) (A)
                 (A) (A) (A) (A) (A) (A) (A) (A) (A) (A) (A) (A)
                 (A) (A) (A) (A) (A) (A) (A) (A) (A) (A) (A) (A)
                 (A) (A) (A) (A) (A) (A) (A) (A) (A) (A) (A) (A)
                 (A) (A) (A) (A) (A) (A) (A) (A) (A) (A) (A) (A)
                 (A) (A) (A) (A) (A) (A) (A) (A) (A) (A) (A) (A)
                 (A) (A) (A) (A) (A) (A) (A) (A) (A) (A)
 The electronic state is 1-A.
 Alpha  occ. eigenvalues --  -14.37762 -10.21161 -10.20963 -10.17953 -10.17551
 Alpha  occ. eigenvalues --  -10.17404 -10.17401 -10.16907 -10.16686  -0.99217
 Alpha  occ. eigenvalues --   -0.84791  -0.79100  -0.74317  -0.72482  -0.63164
 Alpha  occ. eigenvalues --   -0.60220  -0.58850  -0.54678  -0.48893  -0.47661
 Alpha  occ. eigenvalues --   -0.44294  -0.43433  -0.42839  -0.41606  -0.39662
 Alpha  occ. eigenvalues --   -0.35944  -0.34042  -0.33904  -0.28480  -0.22900
 Alpha  occ. eigenvalues --   -0.21211
 Alpha virt. eigenvalues --   -0.01825   0.00754   0.01808   0.02593   0.03209
 Alpha virt. eigenvalues --    0.04706   0.04800   0.04835   0.06876   0.07074
 Alpha virt. eigenvalues --    0.07561   0.07635   0.09600   0.09867   0.11638
 Alpha virt. eigenvalues --    0.11686   0.12093   0.13561   0.14500   0.14809
 Alpha virt. eigenvalues --    0.16241   0.16755   0.17417   0.17453   0.17822
 Alpha virt. eigenvalues --    0.18538   0.19441   0.19761   0.20421   0.20559
 Alpha virt. eigenvalues --    0.20787   0.20922   0.22551   0.23140   0.23797
 Alpha virt. eigenvalues --    0.24462   0.24473   0.25198   0.26252   0.26706
 Alpha virt. eigenvalues --    0.27791   0.27976   0.28422   0.30215   0.30646
 Alpha virt. eigenvalues --    0.31426   0.32299   0.33803   0.35661   0.37067
 Alpha virt. eigenvalues --    0.38241   0.40315   0.43623   0.45338   0.51708
 Alpha virt. eigenvalues --    0.58319   0.62785   0.67718   0.67928   0.70225
 Alpha virt. eigenvalues --    0.71994   0.72403   0.73388   0.73964   0.74521
 Alpha virt. eigenvalues --    0.75583   0.76039   0.78059   0.79497   0.80333
 Alpha virt. eigenvalues --    0.81819   0.85614   0.89680   0.90396   0.91564
 Alpha virt. eigenvalues --    0.93899   0.94590   0.95544   0.96182   0.98656
 Alpha virt. eigenvalues --    1.00499   1.03336   1.05052   1.06752   1.09692
 Alpha virt. eigenvalues --    1.11536   1.11833   1.17272   1.18091   1.20654
 Alpha virt. eigenvalues --    1.22690   1.23277   1.25350   1.31841   1.31885
 Alpha virt. eigenvalues --    1.33877   1.36953   1.41226   1.41834   1.45233
 Alpha virt. eigenvalues --    1.45793   1.46501   1.49577   1.50141   1.53980
 Alpha virt. eigenvalues --    1.58980   1.65057   1.78718   1.84466   1.88363
 Alpha virt. eigenvalues --    1.89128   1.92200   1.94310   1.99482   1.99785
 Alpha virt. eigenvalues --    2.00482   2.06359   2.10007   2.14251   2.17288
 Alpha virt. eigenvalues --    2.17368   2.19889   2.24876   2.26067   2.26581
 Alpha virt. eigenvalues --    2.28695   2.31553   2.38141   2.40930   2.44761
 Alpha virt. eigenvalues --    2.54970   2.55930   2.63875   2.66040   2.67114
 Alpha virt. eigenvalues --    2.70138   2.73788   2.81163   2.84910   2.85974
 Alpha virt. eigenvalues --    2.95748   2.98228   3.11507   3.24507   3.45107
 Alpha virt. eigenvalues --    4.15466   4.26570   4.29551   4.33040   4.36610
 Alpha virt. eigenvalues --    4.40164   4.48511   4.52432   4.79446
          Condensed to atoms (all electrons):
               1          2          3          4          5          6
     1  C    6.063660   0.187081   0.319969  -0.692299   0.092629  -0.370210
     2  C    0.187081   6.152847  -0.138519   0.358023  -0.948813   0.867571
     3  C    0.319969  -0.138519  13.804224  -2.290161  -3.770332  -3.340034
     4  C   -0.692299   0.358023  -2.290161  13.605214  -4.034172  -0.557910
     5  C    0.092629  -0.948813  -3.770332  -4.034172  15.054221  -0.266159
     6  C   -0.370210   0.867571  -3.340034  -0.557910  -0.266159  13.163808
     7  N   -0.044464   0.010142  -0.589263  -0.476094   1.012806   0.216084
     8  C    0.172643  -0.319496   3.340102   1.674061  -4.739810  -4.058578
     9  C   -0.086937   0.032019  -1.250105  -0.614323   1.833652   1.044059
    10  H   -0.001887  -0.010916  -0.141586  -0.061159   0.173925   0.024754
    11  H    0.002257   0.001509   0.001272   0.016472   0.013424   0.018821
    12  H    0.001424   0.000235   0.046107   0.123124  -0.137621  -0.028087
    13  H    0.032381   0.242589   0.022520   0.000531   0.015459  -0.010748
    14  H    0.005135   0.060089   0.175833   0.075858  -0.000137  -0.018699
    15  H    0.266271   0.016844   0.019355  -0.022030   0.027668  -0.011521
    16  H    0.038015   0.005292  -0.023883   0.009893   0.091607   0.192465
               7          8          9         10         11         12
     1  C   -0.044464   0.172643  -0.086937  -0.001887   0.002257   0.001424
     2  C    0.010142  -0.319496   0.032019  -0.010916   0.001509   0.000235
     3  C   -0.589263   3.340102  -1.250105  -0.141586   0.001272   0.046107
     4  C   -0.476094   1.674061  -0.614323  -0.061159   0.016472   0.123124
     5  C    1.012806  -4.739810   1.833652   0.173925   0.013424  -0.137621
     6  C    0.216084  -4.058578   1.044059   0.024754   0.018821  -0.028087
     7  N    7.340232  -0.835155   0.595204   0.273585   0.005692  -0.063916
     8  C   -0.835155  12.370134  -2.032109   0.001053   0.247988   0.079091
     9  C    0.595204  -2.032109   6.487567  -0.024145  -0.008242   0.289107
    10  H    0.273585   0.001053  -0.024145   0.334179  -0.000091  -0.002307
    11  H    0.005692   0.247988  -0.008242  -0.000091   0.483285  -0.000864
    12  H   -0.063916   0.079091   0.289107  -0.002307  -0.000864   0.474524
    13  H   -0.000510   0.000914   0.001078  -0.000002   0.000000  -0.000000
    14  H   -0.011694  -0.000983   0.004662   0.002107   0.000002   0.000002
    15  H    0.000337   0.008192  -0.000159  -0.000000  -0.000002  -0.000000
    16  H   -0.000858  -0.025884   0.004198   0.000004   0.001395  -0.000001
              13         14         15         16
     1  C    0.032381   0.005135   0.266271   0.038015
     2  C    0.242589   0.060089   0.016844   0.005292
     3  C    0.022520   0.175833   0.019355  -0.023883
     4  C    0.000531   0.075858  -0.022030   0.009893
     5  C    0.015459  -0.000137   0.027668   0.091607
     6  C   -0.010748  -0.018699  -0.011521   0.192465
     7  N   -0.000510  -0.011694   0.000337  -0.000858
     8  C    0.000914  -0.000983   0.008192  -0.025884
     9  C    0.001078   0.004662  -0.000159   0.004198
    10  H   -0.000002   0.002107  -0.000000   0.000004
    11  H    0.000000   0.000002  -0.000002   0.001395
    12  H   -0.000000   0.000002  -0.000000  -0.000001
    13  H    0.501584  -0.004221  -0.004193  -0.000147
    14  H   -0.004221   0.512726  -0.000148   0.000018
    15  H   -0.004193  -0.000148   0.501018  -0.004100
    16  H   -0.000147   0.000018  -0.004100   0.508953
 Mulliken charges:
               1
     1  C    0.014331
     2  C   -0.516497
     3  C   -0.185499
     4  C   -1.115028
     5  C    1.581654
     6  C   -0.865614
     7  N   -0.432129
     8  C    0.117836
     9  C   -0.275526
    10  H    0.432487
    11  H    0.217082
    12  H    0.219184
    13  H    0.202766
    14  H    0.199451
    15  H    0.202469
    16  H    0.203034
 Sum of Mulliken charges =  -0.00000
 Mulliken charges with hydrogens summed into heavy atoms:
               1
     1  C    0.216800
     2  C   -0.313730
     3  C    0.013952
     4  C   -1.115028
     5  C    1.581654
     6  C   -0.662580
     7  N    0.000358
     8  C    0.334917
     9  C   -0.056342
 Electronic spatial extent (au):  <R**2>=           1006.4717
 Charge=             -0.0000 electrons
 Dipole moment (field-independent basis, Debye):
    X=              2.2221    Y=             -1.4154    Z=              0.0003  Tot=              2.6346
 Quadrupole moment (field-independent basis, Debye-Ang):
   XX=            -45.3258   YY=            -45.7044   ZZ=            -59.3211
   XY=             -2.8710   XZ=              0.0015   YZ=             -0.0019
 Traceless Quadrupole moment (field-independent basis, Debye-Ang):
   XX=              4.7914   YY=              4.4127   ZZ=             -9.2040
   XY=             -2.8710   XZ=              0.0015   YZ=             -0.0019
 Octapole moment (field-independent basis, Debye-Ang**2):
  XXX=             17.6573  YYY=             -9.3974  ZZZ=             -0.0055  XYY=             11.1480
  XXY=             -7.0087  XXZ=              0.0026  XZZ=              3.0446  YZZ=             -1.3587
  YYZ=             -0.0022  XYZ=             -0.0048
 Hexadecapole moment (field-independent basis, Debye-Ang**3):
 XXXX=           -825.3469 YYYY=           -378.9654 ZZZZ=            -78.7112 XXXY=            -19.0650
 XXXZ=              0.0060 YYYX=            -18.4989 YYYZ=             -0.0034 ZZZX=             -0.0011
 ZZZY=              0.0036 XXYY=           -195.9246 XXZZ=           -195.0823 YYZZ=            -98.5045
 XXYZ=             -0.0057 YYXZ=              0.0058 ZZXY=             -3.2095
 N-N= 4.013368668897D+02 E-N=-1.645222854480D+03  KE= 3.605535570206D+02
 Calling FoFJK, ICntrl=  10005127 FMM=F ISym2X=0 I1Cent= 0 IOpClX= 0 NMat=1 NMatS=1 NMatT=0.
 ***** Axes restored to original set *****
 -------------------------------------------------------------------
 Center     Atomic                   Forces (Hartrees/Bohr)
 Number     Number              X              Y              Z
 -------------------------------------------------------------------
      1        6          -0.023726998    0.002756401   -0.000001341
      2        6          -0.017468211   -0.009332061    0.000000599
      3        6           0.004728408   -0.028160255    0.000002820
      4        6           0.014479627   -0.015330495   -0.000010534
      5        6           0.017399596    0.025080971   -0.000027031
      6        6           0.016551343    0.030055721    0.000001387
      7        7          -0.008420662   -0.003025932    0.000028126
      8        6          -0.024713181    0.011398678    0.000031450
      9        6           0.020306119   -0.011664514   -0.000039996
     10        1           0.001474484   -0.004484452    0.000007892
     11        1           0.001115764    0.003779244    0.000007747
     12        1           0.003852768   -0.000564376   -0.000002097
     13        1          -0.002918514   -0.001763733    0.000000627
     14        1           0.000072158   -0.003114165   -0.000000899
     15        1          -0.003090655    0.001451709   -0.000000206
     16        1           0.000357955    0.002917260    0.000001458
 -------------------------------------------------------------------
 Cartesian Forces:  Max     0.030055721 RMS     0.010988320

 GradGradGradGradGradGradGradGradGradGradGradGradGradGradGradGradGradGrad
 Berny optimization.
 FormGI is forming the generalized inverse of G from B-inverse, IUseBI=4.
 Internal  Forces:  Max     0.034843786 RMS     0.007903115
 Search for a local minimum.
 Step number   1 out of a maximum of   94
 All quantities printed in internal units (Hartrees-Bohrs-Radians)
 Mixed Optimization -- RFO/linear search
 Second derivative matrix not updated -- first step.
 ITU=  0
     Eigenvalues ---    0.01853   0.01931   0.01986   0.02012   0.02070
     Eigenvalues ---    0.02113   0.02148   0.02153   0.02172   0.02209
     Eigenvalues ---    0.02233   0.02248   0.02338   0.16000   0.16000
     Eigenvalues ---    0.16000   0.16000   0.16000   0.16000   0.16000
     Eigenvalues ---    0.22000   0.22188   0.22662   0.24011   0.24651
     Eigenvalues ---    0.35712   0.35717   0.35783   0.35790   0.36420
     Eigenvalues ---    0.36427   0.37009   0.38432   0.42633   0.43465
     Eigenvalues ---    0.45769   0.46692   0.47162   0.47468   0.47567
     Eigenvalues ---    0.48125   0.50955
 RFO step:  Lambda=-1.13110513D-02 EMin= 1.85287394D-02
 Linear search not attempted -- first point.
 Iteration  1 RMS(Cart)=  0.02503320 RMS(Int)=  0.00010826
 Iteration  2 RMS(Cart)=  0.00017301 RMS(Int)=  0.00001385
 Iteration  3 RMS(Cart)=  0.00000002 RMS(Int)=  0.00001385
 Variable       Old X    -DE/DX   Delta X   Delta X   Delta X     New X
                                 (Linear)    (Quad)   (Total)
    R1        2.65547   0.02649   0.00000   0.05842   0.05840   2.71388
    R2        2.61291   0.03484   0.00000   0.07049   0.07049   2.68340
    R3        2.04421   0.00341   0.00000   0.00924   0.00924   2.05345
    R4        2.61557   0.02508   0.00000   0.05091   0.05090   2.66647
    R5        2.04411   0.00341   0.00000   0.00924   0.00924   2.05335
    R6        2.63373   0.02137   0.00000   0.04423   0.04423   2.67796
    R7        2.04534   0.00311   0.00000   0.00845   0.00845   2.05379
    R8        2.68058   0.03185   0.00000   0.07122   0.07120   2.75178
    R9        2.60126   0.00102   0.00000   0.00172   0.00171   2.60297
   R10        2.64771   0.01412   0.00000   0.03010   0.03011   2.67782
   R11        2.70839  -0.00807   0.00000  -0.01948  -0.01949   2.68890
   R12        2.04526   0.00291   0.00000   0.00789   0.00789   2.05315
   R13        2.60573   0.01016   0.00000   0.02060   0.02062   2.62635
   R14        1.89542   0.00472   0.00000   0.00977   0.00977   1.90520
   R15        2.57870   0.02496   0.00000   0.04752   0.04754   2.62623
   R16        2.03419   0.00393   0.00000   0.01047   0.01047   2.04466
   R17        2.03430   0.00389   0.00000   0.01036   0.01036   2.04467
    A1        2.11420   0.00225   0.00000   0.01216   0.01214   2.12634
    A2        2.07986  -0.00131   0.00000  -0.00717  -0.00716   2.07270
    A3        2.08912  -0.00094   0.00000  -0.00499  -0.00498   2.08414
    A4        2.11523   0.00104   0.00000   0.00648   0.00644   2.12167
    A5        2.08365  -0.00047   0.00000  -0.00295  -0.00293   2.08072
    A6        2.08430  -0.00057   0.00000  -0.00353  -0.00351   2.08079
    A7        2.05144  -0.00449   0.00000  -0.01976  -0.01978   2.03166
    A8        2.11267   0.00227   0.00000   0.01005   0.01006   2.12273
    A9        2.11908   0.00222   0.00000   0.00971   0.00972   2.12880
   A10        2.13389   0.00375   0.00000   0.01353   0.01356   2.14744
   A11        2.27895  -0.00350   0.00000  -0.01128  -0.01127   2.26768
   A12        1.87035  -0.00025   0.00000  -0.00225  -0.00228   1.86806
   A13        2.07274   0.00281   0.00000   0.01016   0.01021   2.08295
   A14        1.86517  -0.00151   0.00000  -0.00690  -0.00695   1.85823
   A15        2.34527  -0.00130   0.00000  -0.00326  -0.00326   2.34201
   A16        2.07887  -0.00536   0.00000  -0.02258  -0.02256   2.05631
   A17        2.10306   0.00313   0.00000   0.01390   0.01390   2.11696
   A18        2.10125   0.00223   0.00000   0.00867   0.00866   2.10992
   A19        1.90743   0.00152   0.00000   0.00625   0.00627   1.91369
   A20        2.19023  -0.00077   0.00000  -0.00316  -0.00317   2.18706
   A21        2.18553  -0.00075   0.00000  -0.00309  -0.00310   2.18243
   A22        1.86968   0.00265   0.00000   0.01188   0.01190   1.88158
   A23        2.21717  -0.00159   0.00000  -0.00748  -0.00749   2.20968
   A24        2.19633  -0.00106   0.00000  -0.00440  -0.00441   2.19192
   A25        1.91215  -0.00241   0.00000  -0.00898  -0.00894   1.90321
   A26        2.10250   0.00105   0.00000   0.00356   0.00354   2.10604
   A27        2.26854   0.00136   0.00000   0.00542   0.00539   2.27393
    D1       -0.00001  -0.00000   0.00000  -0.00002  -0.00002  -0.00003
    D2       -3.14156  -0.00000   0.00000  -0.00005  -0.00005   3.14158
    D3        3.14152   0.00000   0.00000   0.00004   0.00004   3.14156
    D4       -0.00002   0.00000   0.00000   0.00001   0.00001  -0.00001
    D5       -0.00003   0.00000   0.00000   0.00009   0.00009   0.00005
    D6        3.14153   0.00000   0.00000   0.00009   0.00009  -3.14157
    D7       -3.14157   0.00000   0.00000   0.00003   0.00003  -3.14154
    D8       -0.00001   0.00000   0.00000   0.00003   0.00003   0.00002
    D9        0.00003  -0.00000   0.00000  -0.00005  -0.00005  -0.00002
   D10       -3.14154  -0.00000   0.00000  -0.00001  -0.00001  -3.14155
   D11        3.14158  -0.00000   0.00000  -0.00002  -0.00002   3.14156
   D12        0.00001   0.00000   0.00000   0.00002   0.00002   0.00003
   D13       -0.00001   0.00000   0.00000   0.00006   0.00006   0.00005
   D14       -3.14144  -0.00000   0.00000  -0.00001  -0.00001  -3.14145
   D15        3.14156   0.00000   0.00000   0.00002   0.00002   3.14158
   D16        0.00013  -0.00000   0.00000  -0.00005  -0.00005   0.00008
   D17       -0.00004   0.00000   0.00000   0.00001   0.00001  -0.00003
   D18       -3.14151  -0.00000   0.00000  -0.00014  -0.00014   3.14153
   D19        3.14143   0.00000   0.00000   0.00006   0.00006   3.14149
   D20       -0.00005  -0.00000   0.00000  -0.00009  -0.00009  -0.00014
   D21       -3.14124  -0.00001   0.00000  -0.00025  -0.00026  -3.14150
   D22       -0.00113   0.00000   0.00000   0.00004   0.00004  -0.00109
   D23        0.00049  -0.00001   0.00000  -0.00031  -0.00032   0.00018
   D24        3.14060   0.00000   0.00000  -0.00002  -0.00002   3.14059
   D25        0.00005  -0.00000   0.00000  -0.00008  -0.00008  -0.00003
   D26       -3.14151  -0.00000   0.00000  -0.00008  -0.00008  -3.14159
   D27        3.14150   0.00000   0.00000   0.00012   0.00012  -3.14157
   D28       -0.00007   0.00000   0.00000   0.00012   0.00012   0.00005
   D29       -0.00041   0.00002   0.00000   0.00046   0.00046   0.00006
   D30        3.14139   0.00001   0.00000   0.00017   0.00017   3.14156
   D31        3.14132   0.00001   0.00000   0.00028   0.00028  -3.14159
   D32       -0.00006  -0.00000   0.00000  -0.00002  -0.00002  -0.00008
   D33       -0.00077   0.00002   0.00000   0.00063   0.00063  -0.00015
   D34        3.14133   0.00001   0.00000   0.00019   0.00019   3.14151
   D35       -3.14089   0.00001   0.00000   0.00033   0.00033  -3.14056
   D36        0.00121  -0.00000   0.00000  -0.00011  -0.00011   0.00110
   D37        0.00072  -0.00002   0.00000  -0.00067  -0.00067   0.00005
   D38       -3.14144  -0.00001   0.00000  -0.00017  -0.00018   3.14157
   D39       -3.14107  -0.00001   0.00000  -0.00038  -0.00038  -3.14145
   D40       -0.00005   0.00000   0.00000   0.00012   0.00012   0.00007
         Item               Value     Threshold  Converged?
 Maximum Force            0.034844     0.000450     NO 
 RMS     Force            0.007903     0.000300     NO 
 Maximum Displacement     0.095688     0.001800     NO 
 RMS     Displacement     0.025021     0.001200     NO 
 Predicted change in Energy=-5.797549D-03
 GradGradGradGradGradGradGradGradGradGradGradGradGradGradGradGradGradGrad

                          Input orientation:                          
 ---------------------------------------------------------------------
 Center     Atomic      Atomic             Coordinates (Angstroms)
 Number     Number       Type             X           Y           Z
 ---------------------------------------------------------------------
      1          6           0       -2.171424    0.701734   -0.000002
      2          6           0       -2.148361   -0.734202    0.000034
      3          6           0       -0.934361   -1.453382    0.000046
      4          6           0        0.254778   -0.682562   -0.000004
      5          6           0        0.257000    0.773616   -0.000007
      6          6           0       -0.977161    1.469927    0.000011
      7          7           0        1.571181   -1.088035   -0.000160
      8          6           0        1.622145    1.174910    0.000024
      9          6           0        2.403052    0.025314   -0.000028
     10          1           0        1.885900   -2.045842    0.000632
     11          1           0        1.996184    2.190188   -0.000001
     12          1           0        3.478918   -0.089641   -0.000047
     13          1           0       -3.088071   -1.279740    0.000036
     14          1           0       -0.915759   -2.540043    0.000034
     15          1           0       -3.132319    1.209145   -0.000038
     16          1           0       -1.004800    2.556057    0.000007
 ---------------------------------------------------------------------
                    Distance matrix (angstroms):
                    1          2          3          4          5
     1  C    0.000000
     2  C    1.436121   0.000000
     3  C    2.484924   1.411033   0.000000
     4  C    2.793337   2.403694   1.417115   0.000000
     5  C    2.429488   2.838887   2.525641   1.456179   0.000000
     6  C    1.419995   2.495976   2.923622   2.480097   1.417040
     7  N    4.148538   3.736334   2.532039   1.377435   2.278775
     8  C    3.822965   4.226278   3.666557   2.306490   1.422904
     9  C    4.624216   4.614350   3.650325   2.261895   2.272772
    10  H    4.900107   4.242129   2.881820   2.125816   3.256172
    11  H    4.425432   5.072407   4.675863   3.359343   2.243086
    12  H    5.705492   5.664074   4.619180   3.278206   3.335561
    13  H    2.183227   1.086585   2.160699   3.395771   3.925019
    14  H    3.476465   2.186405   1.086820   2.195540   3.515068
    15  H    1.086640   2.178250   3.452545   3.879559   3.417188
    16  H    2.190782   3.483323   4.010057   3.474937   2.183857
                    6          7          8          9         10
     6  C    0.000000
     7  N    3.610709   0.000000
     8  C    2.615994   2.263519   0.000000
     9  C    3.675969   1.389804   1.389744   0.000000
    10  H    4.534066   1.008187   3.231534   2.134744   0.000000
    11  H    3.059339   3.305658   1.081986   2.202775   4.237465
    12  H    4.721112   2.153195   2.246486   1.081991   2.522781
    13  H    3.466498   4.663195   5.311445   5.644077   5.032624
    14  H    4.010440   2.879792   4.499093   4.194707   2.844913
    15  H    2.170879   5.234497   4.754587   5.660547   5.981427
    16  H    1.086481   4.462632   2.967895   4.244774   5.434484
                   11         12         13         14         15
    11  H    0.000000
    12  H    2.719581   0.000000
    13  H    6.155489   6.673956   0.000000
    14  H    5.554682   5.031666   2.511435   0.000000
    15  H    5.221493   6.737604   2.489279   4.355405   0.000000
    16  H    3.023204   5.206097   4.365015   5.096878   2.518037
                   16
    16  H    0.000000
 Stoichiometry    C8H7N
 Framework group  C1[X(C8H7N)]
 Deg. of freedom    42
 Full point group                 C1      NOp   1
 Largest Abelian subgroup         C1      NOp   1
 Largest concise Abelian subgroup C1      NOp   1
                         Standard orientation:                         
 ---------------------------------------------------------------------
 Center     Atomic      Atomic             Coordinates (Angstroms)
 Number     Number       Type             X           Y           Z
 ---------------------------------------------------------------------
      1          6           0       -2.172569    0.700219   -0.000001
      2          6           0       -2.148889   -0.735707    0.000035
      3          6           0       -0.934580   -1.454365    0.000047
      4          6           0        0.254228   -0.683033   -0.000003
      5          6           0        0.255824    0.773145   -0.000006
      6          6           0       -0.978637    1.468926    0.000012
      7          7           0        1.570805   -1.087941   -0.000159
      8          6           0        1.620796    1.175026    0.000025
      9          6           0        2.402197    0.025766   -0.000027
     10          1           0        1.885936   -2.045612    0.000633
     11          1           0        1.994398    2.190464   -0.000000
     12          1           0        3.478113   -0.088727   -0.000046
     13          1           0       -3.088365   -1.281649    0.000037
     14          1           0       -0.915511   -2.541018    0.000035
     15          1           0       -3.133682    1.207217   -0.000037
     16          1           0       -1.006742    2.555043    0.000008
 ---------------------------------------------------------------------
 Rotational constants (GHZ):           3.7477826           1.6194619           1.1308207
 Standard basis: 6-31+G(d) (6D, 7F)
 There are   185 symmetry adapted cartesian basis functions of A   symmetry.
 There are   185 symmetry adapted basis functions of A   symmetry.
   185 basis functions,   316 primitive gaussians,   185 cartesian basis functions
    31 alpha electrons       31 beta electrons
       nuclear repulsion energy       396.3797187683 Hartrees.
 NAtoms=   16 NActive=   16 NUniq=   16 SFac= 1.00D+00 NAtFMM=   60 NAOKFM=F Big=F
 Integral buffers will be    131072 words long.
 Regular integral format.
 Two-electron integral symmetry is turned on.
 One-electron integrals computed using PRISM.
 NBasis=   185 RedAO= T EigKep=  1.48D-06  NBF=   185
 NBsUse=   185 1.00D-06 EigRej= -1.00D+00 NBFU=   185
 Initial guess from the checkpoint file:  "FuncsB3PW91-V-2nd.chk"
 B after Tr=    -0.000000   -0.000000   -0.000000
         Rot=    1.000000    0.000004    0.000002   -0.000169 Ang=   0.02 deg.
 ExpMin= 4.38D-02 ExpMax= 4.17D+03 ExpMxC= 6.27D+02 IAcc=3 IRadAn=         5 AccDes= 0.00D+00
 Harris functional with IExCor=  408 and IRadAn=       5 diagonalized for initial guess.
 HarFok:  IExCor=  408 AccDes= 0.00D+00 IRadAn=         5 IDoV= 1 UseB2=F ITyADJ=14
 ICtDFT=  3500011 ScaDFX=  1.000000  1.000000  1.000000  1.000000
 FoFCou: FMM=F IPFlag=           0 FMFlag=      100000 FMFlg1=           0
         NFxFlg=           0 DoJE=T BraDBF=F KetDBF=T FulRan=T
         wScrn=  0.000000 ICntrl=       500 IOpCl=  0 I1Cent=   200000004 NGrid=           0
         NMat0=    1 NMatS0=      1 NMatT0=    0 NMatD0=    1 NMtDS0=    0 NMtDT0=    0
 Petite list used in FoFCou.
 Keep R1 ints in memory in canonical form, NReq=152071459.
 Requested convergence on RMS density matrix=1.00D-08 within 128 cycles.
 Requested convergence on MAX density matrix=1.00D-06.
 Requested convergence on             energy=1.00D-06.
 No special actions if energy rises.
 SCF Done:  E(RB3PW91) =  -363.689003925     A.U. after   13 cycles
            NFock= 13  Conv=0.49D-08     -V/T= 2.0108
 DoSCS=F DFT=T ScalE2(SS,OS)=  1.000000  1.000000
 ExpMin= 4.38D-02 ExpMax= 4.17D+03 ExpMxC= 6.27D+02 IAcc=3 IRadAn=         5 AccDes= 0.00D+00
 HarFok:  IExCor=  205 AccDes= 0.00D+00 IRadAn=         5 IDoV=-2 UseB2=F ITyADJ=14
 ICtDFT= 12500011 ScaDFX=  1.000000  1.000000  1.000000  1.000000
 Range of M.O.s used for correlation:    10   185
 NBasis=   185 NAE=    31 NBE=    31 NFC=     9 NFV=     0
 NROrb=    176 NOA=    22 NOB=    22 NVA=   154 NVB=   154

 **** Warning!!: The largest alpha MO coefficient is  0.17302271D+03

 Orbital symmetries:
       Occupied  (A) (A) (A) (A) (A) (A) (A) (A) (A) (A) (A) (A)
                 (A) (A) (A) (A) (A) (A) (A) (A) (A) (A) (A) (A)
                 (A) (A) (A) (A) (A) (A) (A)
       Virtual   (A) (A) (A) (A) (A) (A) (A) (A) (A) (A) (A) (A)
                 (A) (A) (A) (A) (A) (A) (A) (A) (A) (A) (A) (A)
                 (A) (A) (A) (A) (A) (A) (A) (A) (A) (A) (A) (A)
                 (A) (A) (A) (A) (A) (A) (A) (A) (A) (A) (A) (A)
                 (A) (A) (A) (A) (A) (A) (A) (A) (A) (A) (A) (A)
                 (A) (A) (A) (A) (A) (A) (A) (A) (A) (A) (A) (A)
                 (A) (A) (A) (A) (A) (A) (A) (A) (A) (A) (A) (A)
                 (A) (A) (A) (A) (A) (A) (A) (A) (A) (A) (A) (A)
                 (A) (A) (A) (A) (A) (A) (A) (A) (A) (A) (A) (A)
                 (A) (A) (A) (A) (A) (A) (A) (A) (A) (A) (A) (A)
                 (A) (A) (A) (A) (A) (A) (A) (A) (A) (A) (A) (A)
                 (A) (A) (A) (A) (A) (A) (A) (A) (A) (A) (A) (A)
                 (A) (A) (A) (A) (A) (A) (A) (A) (A) (A)
 Generating guess from densities on rwf.
 Convergence on wavefunction:    0.000001000000000
 Iteration     1 Dimension    12 NMult     0 NNew     12
 CISAX will form    12 AO SS matrices at one time.
 Iteration     2 Dimension    24 NMult    12 NNew     12
 Iteration     3 Dimension    36 NMult    24 NNew     12
 Iteration     4 Dimension    48 NMult    36 NNew     12
 Iteration     5 Dimension    60 NMult    48 NNew     12
 Iteration     6 Dimension    72 NMult    60 NNew     12
 Iteration     7 Dimension    84 NMult    72 NNew     12
 Iteration     8 Dimension    96 NMult    84 NNew     12
 Iteration     9 Dimension   108 NMult    96 NNew     12
 Iteration    10 Dimension   114 NMult   108 NNew      6
 Iteration    11 Dimension   116 NMult   114 NNew      2
 Iteration    12 Dimension   118 NMult   116 NNew      2
 Iteration    13 Dimension   120 NMult   118 NNew      2
 ***********************************************************************
 Excited states from <AA,BB:AA,BB> singles matrix:
 ***********************************************************************
 
 Ground to excited state transition densities written to RWF  633
 Ground to excited state transition electric dipole moments (Au):
       state          X           Y           Z        Dip. S.      Osc.
         1        -0.6102      0.6241     -0.0000      0.7619      0.0867
         2        -0.5180     -0.1791     -0.0000      0.3004      0.0347
         3         0.0004     -0.0000     -0.1367      0.0187      0.0024
         4        -0.0003      0.0000     -0.1166      0.0136      0.0018
         5         0.0003      0.0000      0.0035      0.0000      0.0000
         6         0.0016      0.0006      0.1012      0.0102      0.0015
 Ground to excited state transition velocity dipole moments (Au):
       state          X           Y           Z        Dip. S.      Osc.
         1         0.0949     -0.1147      0.0000      0.0222      0.0866
         2         0.0853      0.0324      0.0000      0.0083      0.0320
         3        -0.0001      0.0000      0.0176      0.0003      0.0011
         4         0.0001     -0.0000      0.0259      0.0007      0.0022
         5        -0.0001     -0.0000      0.0006      0.0000      0.0000
         6        -0.0003     -0.0001     -0.0208      0.0004      0.0013
 Ground to excited state transition magnetic dipole moments (Au):
       state          X           Y           Z
         1         0.0001      0.0001      0.1670
         2        -0.0001     -0.0001     -0.0476
         3         0.1216     -0.0909      0.0002
         4         0.0317     -0.2216     -0.0001
         5         0.2895     -0.1854      0.0002
         6         0.1271      0.3382      0.0008
 Ground to excited state transition velocity quadrupole moments (Au):
       state          XX          YY          ZZ          XY          XZ          YZ
         1         0.2033     -0.1269      0.0103      0.0416      0.0000     -0.0000
         2         0.0454     -0.0968      0.0187     -0.0051      0.0000     -0.0000
         3        -0.0001      0.0001      0.0001      0.0001      0.0740      0.0423
         4         0.0000     -0.0000     -0.0000     -0.0001      0.1428     -0.0209
         5         0.0000     -0.0000      0.0000      0.0001      0.2099      0.2493
         6        -0.0002      0.0002      0.0000      0.0005     -0.2991      0.0289
 <0|del|b> * <b|rxdel|0> + <0|del|b> * <b|delr+rdel|0>
 Rotatory Strengths (R) in cgs (10**-40 erg-esu-cm/Gauss)
       state          XX          YY          ZZ    R(velocity)    E-M Angle
         1        -0.0101      0.0098      0.0022      0.0006       90.00
         2        -0.0070     -0.0162     -0.0122     -0.0118       90.00
         3         0.0063     -0.0154     -0.0095     -0.0062       90.00
         4        -0.0023      0.0005      0.0071      0.0018       90.00
         5         0.0044     -0.0491     -0.0039     -0.0162       90.00
         6        -0.1723     -0.0936     -0.0611     -0.1090       90.00
 1/2[<0|r|b>*<b|rxdel|0> + (<0|rxdel|b>*<b|r|0>)*]
 Rotatory Strengths (R) in cgs (10**-40 erg-esu-cm/Gauss)
       state          XX          YY          ZZ     R(length)
         1         0.0291     -0.0240      0.0033      0.0028
         2        -0.0261     -0.0090     -0.0012     -0.0121
         3        -0.0319     -0.0029      0.0193     -0.0052
         4         0.0075      0.0064     -0.0058      0.0027
         5        -0.0555      0.0037     -0.0005     -0.0174
         6        -0.1425     -0.1386     -0.0564     -0.1125
  1/2[<0|del|b>*<b|r|0> + (<0|r|b>*<b|del|0>)*] (Au)
       state          X           Y           Z        Dip. S.   Osc.(frdel)
         1        -0.0579     -0.0716     -0.0000      0.1295      0.0863
         2        -0.0442     -0.0058     -0.0000      0.0500      0.0333
         3        -0.0000     -0.0000     -0.0024      0.0024      0.0016
         4        -0.0000     -0.0000     -0.0030      0.0030      0.0020
         5        -0.0000     -0.0000      0.0000     -0.0000     -0.0000
         6        -0.0000     -0.0000     -0.0021      0.0021      0.0014

 Excitation energies and oscillator strengths:
 
 Excited State   1:      Singlet-A      4.6462 eV  266.85 nm  f=0.0867  <S**2>=0.000
      30 -> 32        -0.10876
      30 -> 34         0.16193
      31 -> 32         0.66469
 
 Excited State   2:      Singlet-A      4.7111 eV  263.17 nm  f=0.0347  <S**2>=0.000
      30 -> 32         0.57609
      31 -> 34        -0.39325
 This state for optimization and/or second-order correction.
 Total Energy, E(TD-HF/TD-DFT) =  -363.515873832    
 Copying the excited state density for this state as the 1-particle RhoCI density.
 
 Excited State   3:      Singlet-A      5.1376 eV  241.33 nm  f=0.0024  <S**2>=0.000
      31 -> 33         0.70390
 
 Excited State   4:      Singlet-A      5.5458 eV  223.57 nm  f=0.0018  <S**2>=0.000
      30 -> 33         0.69810
 
 Excited State   5:      Singlet-A      5.7109 eV  217.10 nm  f=0.0000  <S**2>=0.000
      31 -> 35         0.69713
 
 Excited State   6:      Singlet-A      5.8323 eV  212.58 nm  f=0.0015  <S**2>=0.000
      31 -> 36         0.69746
 SavETr:  write IOETrn=   770 NScale= 10 NData=  16 NLR=1 NState=    6 LETran=     118.
          IDoAtm=1111111111111111
          Differentiating once with respect to electric field.
                with respect to dipole field.
          Differentiating once with respect to nuclear coordinates.
 Keep R1 ints in memory in canonical form, NReq=152083851.
          There are     1 degrees of freedom in the 1st order CPHF.  IDoFFX=0 NUNeed=     1.
 LinEq1:  Iter=  0 NonCon=     1 RMS=5.14D-03 Max=1.46D-01 NDo=     1
 AX will form     1 AO Fock derivatives at one time.
 LinEq1:  Iter=  1 NonCon=     1 RMS=2.11D-03 Max=5.97D-02 NDo=     1
 LinEq1:  Iter=  2 NonCon=     1 RMS=2.02D-03 Max=7.61D-02 NDo=     1
 LinEq1:  Iter=  3 NonCon=     1 RMS=8.11D-04 Max=1.75D-02 NDo=     1
 LinEq1:  Iter=  4 NonCon=     1 RMS=4.12D-04 Max=1.45D-02 NDo=     1
 LinEq1:  Iter=  5 NonCon=     1 RMS=2.40D-04 Max=4.51D-03 NDo=     1
 LinEq1:  Iter=  6 NonCon=     1 RMS=1.40D-04 Max=2.66D-03 NDo=     1
 LinEq1:  Iter=  7 NonCon=     1 RMS=6.09D-05 Max=1.16D-03 NDo=     1
 LinEq1:  Iter=  8 NonCon=     1 RMS=4.55D-05 Max=1.21D-03 NDo=     1
 LinEq1:  Iter=  9 NonCon=     1 RMS=1.68D-05 Max=3.81D-04 NDo=     1
 LinEq1:  Iter= 10 NonCon=     1 RMS=1.25D-05 Max=3.20D-04 NDo=     1
 LinEq1:  Iter= 11 NonCon=     1 RMS=3.05D-06 Max=6.07D-05 NDo=     1
 LinEq1:  Iter= 12 NonCon=     1 RMS=1.44D-06 Max=3.09D-05 NDo=     1
 LinEq1:  Iter= 13 NonCon=     1 RMS=7.48D-07 Max=1.17D-05 NDo=     1
 LinEq1:  Iter= 14 NonCon=     1 RMS=2.35D-07 Max=5.25D-06 NDo=     1
 LinEq1:  Iter= 15 NonCon=     1 RMS=1.65D-07 Max=3.98D-06 NDo=     1
 LinEq1:  Iter= 16 NonCon=     1 RMS=3.46D-08 Max=7.91D-07 NDo=     1
 LinEq1:  Iter= 17 NonCon=     1 RMS=1.73D-08 Max=2.43D-07 NDo=     1
 LinEq1:  Iter= 18 NonCon=     1 RMS=7.49D-09 Max=1.76D-07 NDo=     1
 LinEq1:  Iter= 19 NonCon=     1 RMS=1.50D-09 Max=2.68D-08 NDo=     1
 LinEq1:  Iter= 20 NonCon=     1 RMS=2.43D-10 Max=3.67D-09 NDo=     1
 LinEq1:  Iter= 21 NonCon=     0 RMS=4.27D-11 Max=4.97D-10 NDo=     1
 Linear equations converged to 1.000D-10 1.000D-09 after    21 iterations.
 End of Minotr F.D. properties file   721 does not exist.
 End of Minotr F.D. properties file   722 does not exist.
 End of Minotr F.D. properties file   788 does not exist.
 Calling FoFJK, ICntrl=  10005127 FMM=F ISym2X=0 I1Cent= 0 IOpClX= 0 NMat=1 NMatS=1 NMatT=0.
 ***** Axes restored to original set *****
 -------------------------------------------------------------------
 Center     Atomic                   Forces (Hartrees/Bohr)
 Number     Number              X              Y              Z
 -------------------------------------------------------------------
      1        6          -0.000205860   -0.003603297    0.000000813
      2        6          -0.000355025    0.000743541    0.000000563
      3        6           0.000592566   -0.000267453    0.000000951
      4        6           0.001661303   -0.006752372   -0.000002941
      5        6           0.001783651    0.004257238    0.000001265
      6        6           0.004125277    0.000584704   -0.000001551
      7        7          -0.010901541    0.003112175    0.000006080
      8        6          -0.002538018   -0.003705236   -0.000006130
      9        6           0.006526453    0.005346150    0.000006895
     10        1          -0.000186688   -0.000114365   -0.000005347
     11        1           0.000516668   -0.000113817   -0.000000001
     12        1          -0.000634189    0.000050363   -0.000000434
     13        1           0.000050590    0.000853432   -0.000000033
     14        1          -0.000065394    0.000813302   -0.000000632
     15        1           0.000119298   -0.000288739    0.000000250
     16        1          -0.000489091   -0.000915627    0.000000253
 -------------------------------------------------------------------
 Cartesian Forces:  Max     0.010901541 RMS     0.002599389

 GradGradGradGradGradGradGradGradGradGradGradGradGradGradGradGradGradGrad
 Berny optimization.
 Using GEDIIS/GDIIS optimizer.
 FormGI is forming the generalized inverse of G from B-inverse, IUseBI=4.
 Internal  Forces:  Max     0.006675807 RMS     0.001355702
 Search for a local minimum.
 Step number   2 out of a maximum of   94
 All quantities printed in internal units (Hartrees-Bohrs-Radians)
 Mixed Optimization -- RFO/linear search
 Update second derivatives using D2CorX and points    1    2
 DE= -5.55D-03 DEPred=-5.80D-03 R= 9.57D-01
 TightC=F SS=  1.41D+00  RLast= 1.58D-01 DXNew= 5.0454D-01 4.7544D-01
 Trust test= 9.57D-01 RLast= 1.58D-01 DXMaxT set to 4.75D-01
 ITU=  1  0
 Use linear search instead of GDIIS.
     Eigenvalues ---    0.01853   0.01932   0.01986   0.02011   0.02071
     Eigenvalues ---    0.02113   0.02148   0.02153   0.02171   0.02209
     Eigenvalues ---    0.02234   0.02248   0.02339   0.15991   0.16000
     Eigenvalues ---    0.16000   0.16000   0.16000   0.16000   0.16008
     Eigenvalues ---    0.21251   0.22016   0.22820   0.24033   0.24638
     Eigenvalues ---    0.35714   0.35729   0.35785   0.35845   0.36409
     Eigenvalues ---    0.36465   0.37075   0.38068   0.42682   0.42985
     Eigenvalues ---    0.44550   0.46569   0.46945   0.47174   0.47595
     Eigenvalues ---    0.48585   0.57041
 RFO step:  Lambda=-4.39373260D-04 EMin= 1.85280183D-02
 Quartic linear search produced a step of  0.00345.
 Iteration  1 RMS(Cart)=  0.00528944 RMS(Int)=  0.00001734
 Iteration  2 RMS(Cart)=  0.00002174 RMS(Int)=  0.00000638
 Iteration  3 RMS(Cart)=  0.00000000 RMS(Int)=  0.00000638
 Variable       Old X    -DE/DX   Delta X   Delta X   Delta X     New X
                                 (Linear)    (Quad)   (Total)
    R1        2.71388  -0.00235   0.00020  -0.00328  -0.00308   2.71080
    R2        2.68340   0.00179   0.00024   0.00611   0.00636   2.68976
    R3        2.05345  -0.00024   0.00003  -0.00035  -0.00032   2.05314
    R4        2.66647  -0.00100   0.00018  -0.00031  -0.00014   2.66633
    R5        2.05335  -0.00047   0.00003  -0.00100  -0.00097   2.05238
    R6        2.67796  -0.00095   0.00015  -0.00043  -0.00028   2.67768
    R7        2.05379  -0.00081   0.00003  -0.00199  -0.00196   2.05183
    R8        2.75178   0.00208   0.00025   0.00712   0.00735   2.75913
    R9        2.60297  -0.00668   0.00001  -0.01366  -0.01365   2.58932
   R10        2.67782  -0.00312   0.00010  -0.00580  -0.00569   2.67212
   R11        2.68890  -0.00174  -0.00007  -0.00488  -0.00496   2.68394
   R12        2.05315  -0.00090   0.00003  -0.00226  -0.00223   2.05092
   R13        2.62635   0.00485   0.00007   0.01071   0.01080   2.63715
   R14        1.90520   0.00005   0.00003   0.00045   0.00049   1.90568
   R15        2.62623  -0.00276   0.00016  -0.00330  -0.00313   2.62311
   R16        2.04466   0.00007   0.00004   0.00057   0.00060   2.04526
   R17        2.04467  -0.00064   0.00004  -0.00138  -0.00135   2.04332
    A1        2.12634   0.00152   0.00004   0.00691   0.00695   2.13329
    A2        2.07270  -0.00096  -0.00002  -0.00477  -0.00480   2.06790
    A3        2.08414  -0.00055  -0.00002  -0.00213  -0.00215   2.08199
    A4        2.12167  -0.00064   0.00002  -0.00303  -0.00302   2.11866
    A5        2.08072  -0.00041  -0.00001  -0.00305  -0.00306   2.07767
    A6        2.08079   0.00105  -0.00001   0.00608   0.00607   2.08686
    A7        2.03166  -0.00071  -0.00007  -0.00396  -0.00404   2.02761
    A8        2.12273   0.00030   0.00003   0.00166   0.00170   2.12443
    A9        2.12880   0.00041   0.00003   0.00231   0.00235   2.13115
   A10        2.14744   0.00173   0.00005   0.00815   0.00819   2.15564
   A11        2.26768   0.00059  -0.00004   0.00250   0.00247   2.27015
   A12        1.86806  -0.00232  -0.00001  -0.01064  -0.01066   1.85740
   A13        2.08295  -0.00166   0.00004  -0.00598  -0.00593   2.07702
   A14        1.85823   0.00134  -0.00002   0.00459   0.00454   1.86277
   A15        2.34201   0.00032  -0.00001   0.00139   0.00139   2.34340
   A16        2.05631  -0.00024  -0.00008  -0.00208  -0.00215   2.05415
   A17        2.11696  -0.00041   0.00005  -0.00216  -0.00211   2.11485
   A18        2.10992   0.00064   0.00003   0.00423   0.00426   2.11418
   A19        1.91369   0.00318   0.00002   0.01429   0.01432   1.92802
   A20        2.18706  -0.00180  -0.00001  -0.00842  -0.00843   2.17863
   A21        2.18243  -0.00139  -0.00001  -0.00587  -0.00589   2.17654
   A22        1.88158   0.00066   0.00004   0.00424   0.00428   1.88586
   A23        2.20968   0.00021  -0.00003   0.00118   0.00115   2.21083
   A24        2.19192  -0.00087  -0.00002  -0.00542  -0.00543   2.18649
   A25        1.90321  -0.00286  -0.00003  -0.01248  -0.01248   1.89073
   A26        2.10604   0.00141   0.00001   0.00609   0.00609   2.11214
   A27        2.27393   0.00145   0.00002   0.00638   0.00639   2.28032
    D1       -0.00003   0.00000  -0.00000   0.00001   0.00001  -0.00002
    D2        3.14158   0.00000  -0.00000   0.00001   0.00001   3.14159
    D3        3.14156  -0.00000   0.00000  -0.00000  -0.00000   3.14156
    D4       -0.00001   0.00000   0.00000   0.00000   0.00000  -0.00001
    D5        0.00005  -0.00000   0.00000  -0.00003  -0.00003   0.00002
    D6       -3.14157  -0.00000   0.00000  -0.00000  -0.00000  -3.14157
    D7       -3.14154  -0.00000   0.00000  -0.00002  -0.00002  -3.14156
    D8        0.00002   0.00000   0.00000   0.00001   0.00001   0.00003
    D9       -0.00002   0.00000  -0.00000   0.00002   0.00002  -0.00000
   D10       -3.14155   0.00000  -0.00000   0.00001   0.00001  -3.14154
   D11        3.14156   0.00000  -0.00000   0.00001   0.00001   3.14157
   D12        0.00003   0.00000   0.00000   0.00000   0.00000   0.00003
   D13        0.00005  -0.00000   0.00000  -0.00003  -0.00003   0.00002
   D14       -3.14145  -0.00000  -0.00000  -0.00004  -0.00004  -3.14148
   D15        3.14158  -0.00000   0.00000  -0.00002  -0.00002   3.14156
   D16        0.00008  -0.00000  -0.00000  -0.00003  -0.00003   0.00006
   D17       -0.00003   0.00000   0.00000   0.00001   0.00000  -0.00002
   D18        3.14153   0.00000  -0.00000   0.00002   0.00002   3.14154
   D19        3.14149   0.00000   0.00000   0.00001   0.00001   3.14150
   D20       -0.00014   0.00000  -0.00000   0.00003   0.00003  -0.00012
   D21       -3.14150   0.00000  -0.00000   0.00003   0.00003  -3.14147
   D22       -0.00109   0.00000   0.00000   0.00013   0.00013  -0.00097
   D23        0.00018   0.00000  -0.00000   0.00002   0.00002   0.00020
   D24        3.14059   0.00000  -0.00000   0.00012   0.00012   3.14070
   D25       -0.00003   0.00000  -0.00000   0.00002   0.00002  -0.00000
   D26       -3.14159   0.00000  -0.00000  -0.00000  -0.00000   3.14159
   D27       -3.14157   0.00000   0.00000   0.00001   0.00001  -3.14156
   D28        0.00005  -0.00000   0.00000  -0.00002  -0.00002   0.00004
   D29        0.00006  -0.00000   0.00000  -0.00006  -0.00006  -0.00000
   D30        3.14156  -0.00000   0.00000  -0.00002  -0.00002   3.14154
   D31       -3.14159  -0.00000   0.00000  -0.00004  -0.00004   3.14156
   D32       -0.00008  -0.00000  -0.00000  -0.00000  -0.00000  -0.00009
   D33       -0.00015  -0.00000   0.00000  -0.00006  -0.00006  -0.00020
   D34        3.14151   0.00000   0.00000   0.00002   0.00002   3.14153
   D35       -3.14056  -0.00000   0.00000  -0.00015  -0.00015  -3.14071
   D36        0.00110  -0.00000  -0.00000  -0.00008  -0.00008   0.00103
   D37        0.00005   0.00000  -0.00000   0.00007   0.00007   0.00012
   D38        3.14157  -0.00000  -0.00000  -0.00001  -0.00002   3.14155
   D39       -3.14145   0.00000  -0.00000   0.00003   0.00003  -3.14142
   D40        0.00007  -0.00000   0.00000  -0.00006  -0.00006   0.00001
         Item               Value     Threshold  Converged?
 Maximum Force            0.006676     0.000450     NO 
 RMS     Force            0.001356     0.000300     NO 
 Maximum Displacement     0.022116     0.001800     NO 
 RMS     Displacement     0.005291     0.001200     NO 
 Predicted change in Energy=-2.199235D-04
 GradGradGradGradGradGradGradGradGradGradGradGradGradGradGradGradGradGrad

                          Input orientation:                          
 ---------------------------------------------------------------------
 Center     Atomic      Atomic             Coordinates (Angstroms)
 Number     Number       Type             X           Y           Z
 ---------------------------------------------------------------------
      1          6           0       -2.166311    0.696545    0.000010
      2          6           0       -2.149218   -0.737846    0.000043
      3          6           0       -0.936092   -1.458357    0.000035
      4          6           0        0.250670   -0.684156   -0.000008
      5          6           0        0.260606    0.775880   -0.000015
      6          6           0       -0.971381    1.469911   -0.000004
      7          7           0        1.562321   -1.080447   -0.000139
      8          6           0        1.623530    1.175428    0.000003
      9          6           0        2.407572    0.029971    0.000025
     10          1           0        1.874197   -2.039453    0.000571
     11          1           0        1.999599    2.190295   -0.000044
     12          1           0        3.482397   -0.087969    0.000009
     13          1           0       -3.092390   -1.276349    0.000054
     14          1           0       -0.916890   -2.543971    0.000012
     15          1           0       -3.127389    1.203252   -0.000011
     16          1           0       -1.004319    2.554713   -0.000008
[...]
 ! D8    D(15,1,6,16)            0.001          -DE/DX =    0.0                 !
 ! D9    D(1,2,3,4)              0.0002         -DE/DX =    0.0                 !
 ! D10   D(1,2,3,14)          -179.9969         -DE/DX =    0.0                 !
 ! D11   D(13,2,3,4)           179.9992         -DE/DX =    0.0                 !
 ! D12   D(13,2,3,14)            0.0021         -DE/DX =    0.0                 !
 ! D13   D(2,3,4,5)              0.0009         -DE/DX =    0.0                 !
 ! D14   D(2,3,4,7)           -179.9966         -DE/DX =    0.0                 !
 ! D15   D(14,3,4,5)           179.998          -DE/DX =    0.0                 !
 ! D16   D(14,3,4,7)             0.0006         -DE/DX =    0.0                 !
 ! D17   D(3,4,5,6)             -0.0016         -DE/DX =    0.0                 !
 ! D18   D(3,4,5,8)            179.9973         -DE/DX =    0.0                 !
 ! D19   D(7,4,5,6)            179.9963         -DE/DX =    0.0                 !
 ! D20   D(7,4,5,8)             -0.0047         -DE/DX =    0.0                 !
 ! D21   D(3,4,7,9)           -179.9933         -DE/DX =    0.0                 !
 ! D22   D(3,4,7,10)            -0.0391         -DE/DX =    0.0                 !
 ! D23   D(5,4,7,9)              0.0089         -DE/DX =    0.0                 !
 ! D24   D(5,4,7,10)           179.9631         -DE/DX =    0.0                 !
 ! D25   D(4,5,6,1)              0.0012         -DE/DX =    0.0                 !
 ! D26   D(4,5,6,16)           180.0003         -DE/DX =    0.0                 !
 ! D27   D(8,5,6,1)           -179.9974         -DE/DX =    0.0                 !
 ! D28   D(8,5,6,16)             0.0017         -DE/DX =    0.0                 !
 ! D29   D(4,5,8,9)             -0.0011         -DE/DX =    0.0                 !
 ! D30   D(4,5,8,11)           179.9977         -DE/DX =    0.0                 !
 ! D31   D(6,5,8,9)            179.9976         -DE/DX =    0.0                 !
 ! D32   D(6,5,8,11)            -0.0036         -DE/DX =    0.0                 !
 ! D33   D(4,7,9,8)             -0.0098         -DE/DX =    0.0                 !
 ! D34   D(4,7,9,12)          -180.001          -DE/DX =    0.0                 !
 ! D35   D(10,7,9,8)          -179.9641         -DE/DX =    0.0                 !
 ! D36   D(10,7,9,12)            0.0446         -DE/DX =    0.0                 !
 ! D37   D(5,8,9,7)              0.0065         -DE/DX =    0.0                 !
 ! D38   D(5,8,9,12)           179.9966         -DE/DX =    0.0                 !
 ! D39   D(11,8,9,7)          -179.9923         -DE/DX =    0.0                 !
 ! D40   D(11,8,9,12)           -0.0022         -DE/DX =    0.0                 !
 --------------------------------------------------------------------------------
 GradGradGradGradGradGradGradGradGradGradGradGradGradGradGradGradGradGrad

                          Input orientation:                          
 ---------------------------------------------------------------------
 Center     Atomic      Atomic             Coordinates (Angstroms)
 Number     Number       Type             X           Y           Z
 ---------------------------------------------------------------------
      1          6           0       -2.164604    0.697942    0.000008
      2          6           0       -2.142958   -0.734464    0.000050
      3          6           0       -0.933260   -1.458275    0.000044
      4          6           0        0.252782   -0.683495    0.000001
      5          6           0        0.258994    0.777437   -0.000018
      6          6           0       -0.974005    1.473203   -0.000027
      7          7           0        1.563778   -1.082980   -0.000078
      8          6           0        1.618528    1.173899    0.000003
      9          6           0        2.405251    0.026655    0.000058
     10          1           0        1.876481   -2.041735    0.000446
     11          1           0        1.996569    2.188040   -0.000038
     12          1           0        3.479599   -0.092174    0.000038
     13          1           0       -3.087022   -1.271683    0.000069
     14          1           0       -0.914828   -2.543536    0.000026
     15          1           0       -3.127541    1.201030    0.000000
     16          1           0       -1.010859    2.557580   -0.000046
 ---------------------------------------------------------------------
                    Distance matrix (angstroms):
                    1          2          3          4          5
     1  C    0.000000
     2  C    1.432570   0.000000
     3  C    2.483039   1.409707   0.000000
     4  C    2.784263   2.396282   1.416679   0.000000
     5  C    2.424901   2.838172   2.533748   1.460945   0.000000
     6  C    1.420758   2.498048   2.931761   2.481200   1.415760
     7  N    4.131890   3.723085   2.525084   1.370511   2.272358
     8  C    3.812954   4.217894   3.666056   2.305466   1.416162
     9  C    4.618895   4.611454   3.653858   2.266591   2.273783
    10  H    4.882232   4.226683   2.869681   2.116888   3.250230
    11  H    4.419926   5.067219   4.677554   3.359539   2.238072
    12  H    5.699238   5.659125   4.619477   3.280551   3.335944
    13  H    2.174921   1.086214   2.161829   3.391202   3.923610
    14  H    3.474064   2.186560   1.085417   2.196148   3.522317
    15  H    1.086437   2.171529   3.447720   3.870144   3.412924
    16  H    2.188465   3.481264   4.016605   3.478700   2.186650
                    6          7          8          9         10
     6  C    0.000000
     7  N    3.602002   0.000000
     8  C    2.609753   2.257543   0.000000
     9  C    3.675850   1.392611   1.391080   0.000000
    10  H    4.525490   1.008461   3.225964   2.134909   0.000000
    11  H    3.055373   3.299527   1.082310   2.199682   4.231479
    12  H    4.720699   2.156865   2.250895   1.080900   2.524040
    13  H    3.463992   4.654627   5.303119   5.643646   5.022882
    14  H    4.017174   2.876928   4.498579   4.198667   2.836055
    15  H    2.170666   5.217775   4.746146   5.656053   5.962865
    16  H    1.085004   4.458973   2.971237   4.251516   5.430509
                   11         12         13         14         15
    11  H    0.000000
    12  H    2.720065   0.000000
    13  H    6.149193   6.671713   0.000000
    14  H    5.555541   5.031915   2.517148   0.000000
    15  H    5.218303   6.732509   2.473046   4.349468   0.000000
    16  H    3.030047   5.213964   4.355882   5.102020   2.514074
                   16
    16  H    0.000000
 Stoichiometry    C8H7N
 Framework group  C1[X(C8H7N)]
 Deg. of freedom    42
 Full point group                 C1      NOp   1
 Largest Abelian subgroup         C1      NOp   1
 Largest concise Abelian subgroup C1      NOp   1
                         Standard orientation:                         
 ---------------------------------------------------------------------
 Center     Atomic      Atomic             Coordinates (Angstroms)
 Number     Number       Type             X           Y           Z
 ---------------------------------------------------------------------
      1          6           0       -2.164750    0.700776   -0.000002
      2          6           0       -2.145556   -0.731665    0.000039
      3          6           0       -0.937098   -1.457546    0.000034
      4          6           0        0.250268   -0.684796   -0.000010
      5          6           0        0.258981    0.776123   -0.000028
      6          6           0       -0.972826    1.473997   -0.000038
      7          7           0        1.560579   -1.086524   -0.000089
      8          6           0        1.619190    1.170258   -0.000008
      9          6           0        2.403949    0.021669    0.000047
     10          1           0        1.871641   -2.045813    0.000436
     11          1           0        1.998967    2.183750   -0.000049
     12          1           0        3.478093   -0.098998    0.000028
     13          1           0       -3.090537   -1.267269    0.000058
     14          1           0       -0.920523   -2.542836    0.000015
     15          1           0       -3.126824    1.205511   -0.000010
     16          1           0       -1.007825    2.558436   -0.000057
 ---------------------------------------------------------------------
 Rotational constants (GHZ):           3.7452266           1.6253308           1.1334451

 **********************************************************************

            Population analysis using the CI Density.

 **********************************************************************

 Orbital symmetries:
       Occupied  (A) (A) (A) (A) (A) (A) (A) (A) (A) (A) (A) (A)
                 (A) (A) (A) (A) (A) (A) (A) (A) (A) (A) (A) (A)
                 (A) (A) (A) (A) (A) (A) (A)
       Virtual   (A) (A) (A) (A) (A) (A) (A) (A) (A) (A) (A) (A)
                 (A) (A) (A) (A) (A) (A) (A) (A) (A) (A) (A) (A)
                 (A) (A) (A) (A) (A) (A) (A) (A) (A) (A) (A) (A)
                 (A) (A) (A) (A) (A) (A) (A) (A) (A) (A) (A) (A)
                 (A) (A) (A) (A) (A) (A) (A) (A) (A) (A) (A) (A)
                 (A) (A) (A) (A) (A) (A) (A) (A) (A) (A) (A) (A)
                 (A) (A) (A) (A) (A) (A) (A) (A) (A) (A) (A) (A)
                 (A) (A) (A) (A) (A) (A) (A) (A) (A) (A) (A) (A)
                 (A) (A) (A) (A) (A) (A) (A) (A) (A) (A) (A) (A)
                 (A) (A) (A) (A) (A) (A) (A) (A) (A) (A) (A) (A)
                 (A) (A) (A) (A) (A) (A) (A) (A) (A) (A) (A) (A)
                 (A) (A) (A) (A) (A) (A) (A) (A) (A) (A) (A) (A)
                 (A) (A) (A) (A) (A) (A) (A) (A) (A) (A)
 The electronic state is 1-A.
 Alpha  occ. eigenvalues --  -14.38204 -10.21716 -10.21677 -10.18696 -10.18234
 Alpha  occ. eigenvalues --  -10.18176 -10.18156 -10.17739 -10.17128  -0.98920
 Alpha  occ. eigenvalues --   -0.83611  -0.78949  -0.73614  -0.72046  -0.62992
 Alpha  occ. eigenvalues --   -0.60277  -0.58385  -0.54263  -0.49256  -0.47287
 Alpha  occ. eigenvalues --   -0.43947  -0.43633  -0.42504  -0.41085  -0.39713
 Alpha  occ. eigenvalues --   -0.35830  -0.34165  -0.33346  -0.28616  -0.22448
 Alpha  occ. eigenvalues --   -0.21076
 Alpha virt. eigenvalues --   -0.02503   0.00692   0.01232   0.02588   0.03157
 Alpha virt. eigenvalues --    0.04561   0.04604   0.04730   0.06871   0.07089
 Alpha virt. eigenvalues --    0.07470   0.07495   0.09433   0.09859   0.11514
 Alpha virt. eigenvalues --    0.11602   0.12087   0.13451   0.14362   0.14622
 Alpha virt. eigenvalues --    0.16063   0.16648   0.17062   0.17090   0.17587
 Alpha virt. eigenvalues --    0.18518   0.19177   0.19281   0.20111   0.20464
 Alpha virt. eigenvalues --    0.20491   0.20648   0.22249   0.22882   0.23563
 Alpha virt. eigenvalues --    0.24291   0.24349   0.24648   0.26001   0.26623
 Alpha virt. eigenvalues --    0.27630   0.27711   0.28215   0.29513   0.29778
 Alpha virt. eigenvalues --    0.30824   0.31929   0.33229   0.34449   0.36397
 Alpha virt. eigenvalues --    0.37161   0.39440   0.42450   0.44766   0.50708
 Alpha virt. eigenvalues --    0.55868   0.59460   0.67775   0.67800   0.70179
 Alpha virt. eigenvalues --    0.71216   0.72384   0.73085   0.73717   0.73982
 Alpha virt. eigenvalues --    0.75381   0.75539   0.77738   0.79101   0.79316
 Alpha virt. eigenvalues --    0.81233   0.85248   0.89192   0.89850   0.91078
 Alpha virt. eigenvalues --    0.94088   0.94677   0.95419   0.95941   0.98706
 Alpha virt. eigenvalues --    0.99499   1.03154   1.04993   1.06276   1.09106
 Alpha virt. eigenvalues --    1.11045   1.11146   1.16808   1.17657   1.20011
 Alpha virt. eigenvalues --    1.22282   1.23451   1.23961   1.31266   1.31825
 Alpha virt. eigenvalues --    1.34065   1.36111   1.39765   1.40469   1.43270
 Alpha virt. eigenvalues --    1.45517   1.47026   1.49006   1.49277   1.53367
 Alpha virt. eigenvalues --    1.58033   1.63784   1.77638   1.81732   1.88388
 Alpha virt. eigenvalues --    1.88526   1.89503   1.91502   1.98015   1.98835
 Alpha virt. eigenvalues --    2.00337   2.03184   2.04765   2.11832   2.12959
 Alpha virt. eigenvalues --    2.14607   2.17896   2.21894   2.23282   2.25181
 Alpha virt. eigenvalues --    2.25619   2.29197   2.35834   2.39916   2.44131
 Alpha virt. eigenvalues --    2.52427   2.53839   2.61803   2.61868   2.64286
 Alpha virt. eigenvalues --    2.66920   2.70744   2.78243   2.81975   2.82870
 Alpha virt. eigenvalues --    2.95195   2.96042   3.08265   3.21584   3.37125
 Alpha virt. eigenvalues --    4.14132   4.23863   4.29439   4.31643   4.35599
 Alpha virt. eigenvalues --    4.39861   4.47473   4.51638   4.76600
          Condensed to atoms (all electrons):
               1          2          3          4          5          6
     1  C    5.859627   0.233857   0.311645  -0.490534  -0.065652  -0.176955
     2  C    0.233857   5.953500  -0.077477   0.173983  -0.658378   0.749671
     3  C    0.311645  -0.077477  12.575072  -1.624183  -3.455135  -2.893974
     4  C   -0.490534   0.173983  -1.624183  12.225115  -3.499363  -0.657981
     5  C   -0.065652  -0.658378  -3.455135  -3.499363  13.920986   0.080027
     6  C   -0.176955   0.749671  -2.893974  -0.657981   0.080027  12.251566
     7  N   -0.039556   0.015649  -0.552166  -0.395533   0.939784   0.185758
     8  C    0.140437  -0.292052   2.914543   1.810100  -4.565628  -3.901009
     9  C   -0.078321   0.025793  -1.012944  -0.653908   1.649629   0.948479
    10  H   -0.002994  -0.007415  -0.138238  -0.049904   0.160052   0.022487
    11  H    0.001647   0.001356   0.000902   0.015614   0.015554   0.019464
    12  H    0.001407  -0.000027   0.039058   0.108450  -0.117606  -0.022445
    13  H    0.031327   0.251594   0.014531   0.002693   0.013751  -0.010111
    14  H    0.003312   0.053033   0.189444   0.071759  -0.002351  -0.013684
    15  H    0.266741   0.022556   0.013664  -0.016794   0.024459  -0.014710
    16  H    0.030267   0.003411  -0.018065   0.005773   0.079634   0.213274
               7          8          9         10         11         12
     1  C   -0.039556   0.140437  -0.078321  -0.002994   0.001647   0.001407
     2  C    0.015649  -0.292052   0.025793  -0.007415   0.001356  -0.000027
     3  C   -0.552166   2.914543  -1.012944  -0.138238   0.000902   0.039058
     4  C   -0.395533   1.810100  -0.653908  -0.049904   0.015614   0.108450
     5  C    0.939784  -4.565628   1.649629   0.160052   0.015554  -0.117606
     6  C    0.185758  -3.901009   0.948479   0.022487   0.019464  -0.022445
     7  N    7.290971  -0.807963   0.570235   0.272753   0.005971  -0.061345
     8  C   -0.807963  12.105062  -1.790572  -0.004107   0.250013   0.069971
     9  C    0.570235  -1.790572   6.339233  -0.018887  -0.010472   0.294256
    10  H    0.272753  -0.004107  -0.018887   0.333262  -0.000081  -0.002135
    11  H    0.005971   0.250013  -0.010472  -0.000081   0.482740  -0.000739
    12  H   -0.061345   0.069971   0.294256  -0.002135  -0.000739   0.470182
    13  H   -0.000481   0.000667   0.001095  -0.000002   0.000000  -0.000000
    14  H   -0.010149  -0.001464   0.004139   0.002007   0.000002   0.000002
    15  H    0.000271   0.009127  -0.000144  -0.000000  -0.000001  -0.000000
    16  H   -0.000749  -0.021696   0.003058   0.000003   0.001335  -0.000001
              13         14         15         16
     1  C    0.031327   0.003312   0.266741   0.030267
     2  C    0.251594   0.053033   0.022556   0.003411
     3  C    0.014531   0.189444   0.013664  -0.018065
     4  C    0.002693   0.071759  -0.016794   0.005773
     5  C    0.013751  -0.002351   0.024459   0.079634
     6  C   -0.010111  -0.013684  -0.014710   0.213274
     7  N   -0.000481  -0.010149   0.000271  -0.000749
     8  C    0.000667  -0.001464   0.009127  -0.021696
     9  C    0.001095   0.004139  -0.000144   0.003058
    10  H   -0.000002   0.002007  -0.000000   0.000003
    11  H    0.000000   0.000002  -0.000001   0.001335
    12  H   -0.000000   0.000002  -0.000000  -0.000001
    13  H    0.499076  -0.003435  -0.003902  -0.000112
    14  H   -0.003435   0.504724  -0.000119   0.000013
    15  H   -0.003902  -0.000119   0.499402  -0.003213
    16  H   -0.000112   0.000013  -0.003213   0.500228
 Mulliken charges:
               1
     1  C   -0.026256
     2  C   -0.449056
     3  C   -0.286677
     4  C   -1.025287
     5  C    1.480236
     6  C   -0.779856
     7  N   -0.413451
     8  C    0.084569
     9  C   -0.270667
    10  H    0.433199
    11  H    0.216695
    12  H    0.220971
    13  H    0.203309
    14  H    0.202769
    15  H    0.202662
    16  H    0.206840
 Sum of Mulliken charges =  -0.00000
 Mulliken charges with hydrogens summed into heavy atoms:
               1
     1  C    0.176407
     2  C   -0.245747
     3  C   -0.083907
     4  C   -1.025287
     5  C    1.480236
     6  C   -0.573017
     7  N    0.019748
     8  C    0.301265
     9  C   -0.049697
 Electronic spatial extent (au):  <R**2>=           1024.5951
 Charge=              0.0000 electrons
 Dipole moment (field-independent basis, Debye):
    X=              2.0984    Y=             -1.4347    Z=              0.0005  Tot=              2.5420
 Quadrupole moment (field-independent basis, Debye-Ang):
   XX=            -45.2707   YY=            -45.4218   ZZ=            -59.7716
   XY=             -3.0210   XZ=              0.0011   YZ=             -0.0016
 Traceless Quadrupole moment (field-independent basis, Debye-Ang):
   XX=              4.8840   YY=              4.7329   ZZ=             -9.6169
   XY=             -3.0210   XZ=              0.0011   YZ=             -0.0016
 Octapole moment (field-independent basis, Debye-Ang**2):
  XXX=             16.6349  YYY=             -9.6401  ZZZ=             -0.0015  XYY=             10.8511
  XXY=             -7.2190  XXZ=              0.0014  XZZ=              3.0115  YZZ=             -1.4075
  YYZ=              0.0023  XYZ=             -0.0035
 Hexadecapole moment (field-independent basis, Debye-Ang**3):
 XXXX=           -830.7787 YYYY=           -389.9780 ZZZZ=            -79.6176 XXXY=            -20.0983
 XXXZ=             -0.0001 YYYX=            -19.0636 YYYZ=             -0.0027 ZZZX=             -0.0016
 ZZZY=              0.0056 XXYY=           -199.7243 XXZZ=           -198.1710 YYZZ=           -101.8098
 XXYZ=             -0.0050 YYXZ=              0.0069 ZZXY=             -3.3256
 N-N= 3.967234333298D+02 E-N=-1.635583443842D+03  KE= 3.600451650386D+02
 Unable to Open any file for archive entry.
 1\1\GINC-EXP-1-32\FOpt\RB3PW91 TD-FC\6-31+G(d)\C8H7N1\SCAPARAS\14-Jun-
 2021\0\\# td= (nstates=6, root=2) B3PW91/6-31+G* Opt density=current\\
 FuncsB3PW91-V-2nd\\0,1\C,-2.1646035623,0.6979424526,0.0000084907\C,-2.
 1429584893,-0.7344636207,0.0000495652\C,-0.9332604006,-1.4582754256,0.
 0000442825\C,0.2527815791,-0.6834948912,0.0000010038\C,0.2589940954,0.
 7774370044,-0.0000176625\C,-0.9740053907,1.473202789,-0.0000271226\N,1
 .5637783261,-1.0829799007,-0.0000778534\C,1.6185275193,1.1738993997,0.
 0000029043\C,2.4052507152,0.0266552498,0.0000576852\H,1.8764807189,-2.
 0417346683,0.0004462248\H,1.9965686377,2.1880395311,-0.0000383403\H,3.
 479599482,-0.0921737162,0.000038314\H,-3.0870220369,-1.2716832519,0.00
 00686742\H,-0.9148282696,-2.5435356573,0.0000258166\H,-3.1275407383,1.
 2010304095,0.0000003232\H,-1.0108591861,2.5575802957,-0.0000463057\\Ve
 rsion=AS64L-G16RevC.01\State=1-A\HF=-363.6886371\RMSD=4.101e-09\RMSF=8
 .460e-05\Dipole=0.8255635,-0.5644539,0.0001883\Quadrupole=3.6311465,3.
 5187685,-7.1499149,-2.2460443,0.000828,-0.0012257\PG=C01 [X(C8H7N1)]\\
 @
 The archive entry for this job was punched.


 HE THAT FOLLOWS NATURE IS NEVER LOST.

                             -- BACON
 Job cpu time:       0 days  1 hours 58 minutes 59.4 seconds.
 Elapsed time:       0 days  0 hours 30 minutes 18.2 seconds.
 File lengths (MBytes):  RWF=    238 Int=      0 D2E=      0 Chk=     11 Scr=      1
 Normal termination of Gaussian 16 at Mon Jun 14 11:26:13 2021.
