 Entering Gaussian System, Link 0=/cm/shared/apps/spack/cpu/opt/spack/linux-centos8-zen/gcc-8.3.1/gaussian-16.C.01-po5bqktfeugvmjyga3v7eigbecnokxng/g16/g16
 Initial command:
 /cm/shared/apps/spack/cpu/opt/spack/linux-centos8-zen/gcc-8.3.1/gaussian-16.C.01-po5bqktfeugvmjyga3v7eigbecnokxng/g16/l1.exe "/scratch/scaparas/job_3660073/Gau-118674.inp" -scrdir="/scratch/scaparas/job_3660073/"
 Entering Link 1 = /cm/shared/apps/spack/cpu/opt/spack/linux-centos8-zen/gcc-8.3.1/gaussian-16.C.01-po5bqktfeugvmjyga3v7eigbecnokxng/g16/l1.exe PID=    118675.
  
 Copyright (c) 1988-2019, Gaussian, Inc.  All Rights Reserved.
  
 This is part of the Gaussian(R) 16 program.  It is based on
 the Gaussian(R) 09 system (copyright 2009, Gaussian, Inc.),
 the Gaussian(R) 03 system (copyright 2003, Gaussian, Inc.),
 the Gaussian(R) 98 system (copyright 1998, Gaussian, Inc.),
 the Gaussian(R) 94 system (copyright 1995, Gaussian, Inc.),
 the Gaussian 92(TM) system (copyright 1992, Gaussian, Inc.),
 the Gaussian 90(TM) system (copyright 1990, Gaussian, Inc.),
 the Gaussian 88(TM) system (copyright 1988, Gaussian, Inc.),
 the Gaussian 86(TM) system (copyright 1986, Carnegie Mellon
 University), and the Gaussian 82(TM) system (copyright 1983,
 Carnegie Mellon University). Gaussian is a federally registered
 trademark of Gaussian, Inc.
  
 This software contains proprietary and confidential information,
 including trade secrets, belonging to Gaussian, Inc.
  
 This software is provided under written license and may be
 used, copied, transmitted, or stored only in accord with that
 written license.
  
 The following legend is applicable only to US Government
 contracts under FAR:
  
                    RESTRICTED RIGHTS LEGEND
  
 Use, reproduction and disclosure by the US Government is
 subject to restrictions as set forth in subparagraphs (a)
 and (c) of the Commercial Computer Software - Restricted
 Rights clause in FAR 52.227-19.
  
 Gaussian, Inc.
 340 Quinnipiac St., Bldg. 40, Wallingford CT 06492
  
  
 ---------------------------------------------------------------
 Warning -- This program may not be used in any manner that
 competes with the business of Gaussian, Inc. or will provide
 assistance to any competitor of Gaussian, Inc.  The licensee
 of this program is prohibited from giving any competitor of
 Gaussian, Inc. access to this program.  By using this program,
 the user acknowledges that Gaussian, Inc. is engaged in the
 business of creating and licensing software in the field of
 computational chemistry and represents and warrants to the
 licensee that it is not a competitor of Gaussian, Inc. and that
 it will not use this program in any manner prohibited above.
 ---------------------------------------------------------------
  

 Cite this work as:
 Gaussian 16, Revision C.01,
 M. J. Frisch, G. W. Trucks, H. B. Schlegel, G. E. Scuseria, 
 M. A. Robb, J. R. Cheeseman, G. Scalmani, V. Barone, 
 G. A. Petersson, H. Nakatsuji, X. Li, M. Caricato, A. V. Marenich, 
 J. Bloino, B. G. Janesko, R. Gomperts, B. Mennucci, H. P. Hratchian, 
 J. V. Ortiz, A. F. Izmaylov, J. L. Sonnenberg, D. Williams-Young, 
 F. Ding, F. Lipparini, F. Egidi, J. Goings, B. Peng, A. Petrone, 
 T. Henderson, D. Ranasinghe, V. G. Zakrzewski, J. Gao, N. Rega, 
 G. Zheng, W. Liang, M. Hada, M. Ehara, K. Toyota, R. Fukuda, 
 J. Hasegawa, M. Ishida, T. Nakajima, Y. Honda, O. Kitao, H. Nakai, 
 T. Vreven, K. Throssell, J. A. Montgomery, Jr., J. E. Peralta, 
 F. Ogliaro, M. J. Bearpark, J. J. Heyd, E. N. Brothers, K. N. Kudin, 
 V. N. Staroverov, T. A. Keith, R. Kobayashi, J. Normand, 
 K. Raghavachari, A. P. Rendell, J. C. Burant, S. S. Iyengar, 
 J. Tomasi, M. Cossi, J. M. Millam, M. Klene, C. Adamo, R. Cammi, 
 J. W. Ochterski, R. L. Martin, K. Morokuma, O. Farkas, 
 J. B. Foresman, and D. J. Fox, Gaussian, Inc., Wallingford CT, 2019.
 
 ******************************************
 Gaussian 16:  ES64L-G16RevC.01  3-Jul-2019
                28-Jun-2021 
 ******************************************
 %nprocshared=4
 Will use up to    4 processors via shared memory.
 %chk=FuncsPBEPBE-V-1st.chk
 %Mem=3GB
 ------------------------------------------------------------
 # td= (nstates=6, root=1) PBEPBE/6-31+G* Opt density=current
 ------------------------------------------------------------
 1/18=20,19=15,26=3,38=1/1,3;
 2/9=110,12=2,17=6,18=5,40=1/2;
 3/5=1,6=6,7=11,11=9,25=1,30=1,71=1,74=1009/1,2,3,8;
 4//1;
 5/5=2,38=5/2;
 8/6=1,10=2,107=1,108=6/1;
 9/8=1,15=2,41=6,42=1,70=2/14;
 10/5=4,28=1/2;
 6/7=2,8=2,9=2,10=2,22=-1/1;
 7/12=6,13=5,14=1/1,2,3,16;
 1/18=20,19=15,26=3/3(2);
 2/9=110/2;
 99//99;
 2/9=110/2;
 3/5=1,6=6,7=11,11=9,25=1,30=1,71=1,74=1009/1,2,3,8;
 4/5=5,16=3,69=1/1;
 5/5=2,38=5/2;
 8/6=1,10=2,107=1,108=6/1;
 9/8=1,15=2,41=6,42=1,49=4,70=2/14;
 10/5=4,28=1/2;
 7/12=6,13=5,14=1/1,2,3,16;
 1/18=20,19=15,26=3/3(-8);
 2/9=110/2;
 6/7=2,8=2,9=2,10=2,22=-1/1;
 99/9=10/99;
 -----------------
 FuncsPBEPBE-V-1st
 -----------------
 Symbolic Z-matrix:
 Charge =  0 Multiplicity = 1
 C                    -2.15106   0.68921   0.00009 
 C                    -2.12793  -0.71582   0.00008 
 C                    -0.9323   -1.4131   -0.00001 
 C                     0.24691  -0.6702   -0.00004 
 C                     0.24819   0.7483    0. 
 C                    -0.97947   1.42353   0.00003 
 N                     1.56177  -1.07759  -0.00029 
 C                     1.62013   1.1629   -0.00016 
 C                     2.38201   0.03081   0.00025 
 H                     1.87632  -2.03001   0.00044 
 H                     1.99217   2.17301  -0.00035 
 H                     3.45255  -0.08243   0.00041 
 H                    -3.06159  -1.26202   0.00009 
 H                    -0.91725  -2.49534  -0.00007 
 H                    -3.1042    1.20079   0.00009 
 H                    -1.00935   2.50542  -0.00002 
 

 GradGradGradGradGradGradGradGradGradGradGradGradGradGradGradGradGradGrad
 Berny optimization.
 Initialization pass.
                           ----------------------------
                           !    Initial Parameters    !
                           ! (Angstroms and Degrees)  !
 --------------------------                            --------------------------
 ! Name  Definition              Value          Derivative Info.                !
 --------------------------------------------------------------------------------
 ! R1    R(1,2)                  1.4052         estimate D2E/DX2                !
 ! R2    R(1,6)                  1.3827         estimate D2E/DX2                !
 ! R3    R(1,15)                 1.0818         estimate D2E/DX2                !
 ! R4    R(2,3)                  1.3841         estimate D2E/DX2                !
 ! R5    R(2,13)                 1.0817         estimate D2E/DX2                !
 ! R6    R(3,4)                  1.3937         estimate D2E/DX2                !
 ! R7    R(3,14)                 1.0823         estimate D2E/DX2                !
 ! R8    R(4,5)                  1.4185         estimate D2E/DX2                !
 ! R9    R(4,7)                  1.3765         estimate D2E/DX2                !
 ! R10   R(5,6)                  1.4011         estimate D2E/DX2                !
 ! R11   R(5,8)                  1.4332         estimate D2E/DX2                !
 ! R12   R(6,16)                 1.0823         estimate D2E/DX2                !
 ! R13   R(7,9)                  1.3789         estimate D2E/DX2                !
 ! R14   R(7,10)                 1.003          estimate D2E/DX2                !
 ! R15   R(8,9)                  1.3646         estimate D2E/DX2                !
 ! R16   R(8,11)                 1.0764         estimate D2E/DX2                !
 ! R17   R(9,12)                 1.0765         estimate D2E/DX2                !
 ! A1    A(2,1,6)              121.1349         estimate D2E/DX2                !
 ! A2    A(2,1,15)             119.1671         estimate D2E/DX2                !
 ! A3    A(6,1,15)             119.698          estimate D2E/DX2                !
 ! A4    A(1,2,3)              121.1938         estimate D2E/DX2                !
 ! A5    A(1,2,13)             119.3846         estimate D2E/DX2                !
 ! A6    A(3,2,13)             119.4217         estimate D2E/DX2                !
 ! A7    A(2,3,4)              117.5387         estimate D2E/DX2                !
 ! A8    A(2,3,14)             121.0469         estimate D2E/DX2                !
 ! A9    A(4,3,14)             121.4144         estimate D2E/DX2                !
 ! A10   A(3,4,5)              122.2626         estimate D2E/DX2                !
 ! A11   A(3,4,7)              130.5743         estimate D2E/DX2                !
 ! A12   A(5,4,7)              107.163          estimate D2E/DX2                !
 ! A13   A(4,5,6)              118.7594         estimate D2E/DX2                !
 ! A14   A(4,5,8)              106.8666         estimate D2E/DX2                !
 ! A15   A(6,5,8)              134.374          estimate D2E/DX2                !
 ! A16   A(1,6,5)              119.1105         estimate D2E/DX2                !
 ! A17   A(1,6,16)             120.4966         estimate D2E/DX2                !
 ! A18   A(5,6,16)             120.3928         estimate D2E/DX2                !
 ! A19   A(4,7,9)              109.2874         estimate D2E/DX2                !
 ! A20   A(4,7,10)             125.4909         estimate D2E/DX2                !
 ! A21   A(9,7,10)             125.2217         estimate D2E/DX2                !
 ! A22   A(5,8,9)              107.125          estimate D2E/DX2                !
 ! A23   A(5,8,11)             127.0344         estimate D2E/DX2                !
 ! A24   A(9,8,11)             125.8405         estimate D2E/DX2                !
 ! A25   A(7,9,8)              109.5578         estimate D2E/DX2                !
 ! A26   A(7,9,12)             120.4645         estimate D2E/DX2                !
 ! A27   A(8,9,12)             129.9776         estimate D2E/DX2                !
 ! D1    D(6,1,2,3)             -0.0008         estimate D2E/DX2                !
 ! D2    D(6,1,2,13)          -179.9981         estimate D2E/DX2                !
 ! D3    D(15,1,2,3)           179.996          estimate D2E/DX2                !
 ! D4    D(15,1,2,13)           -0.0013         estimate D2E/DX2                !
 ! D5    D(2,1,6,5)             -0.0018         estimate D2E/DX2                !
 ! D6    D(2,1,6,16)           179.9965         estimate D2E/DX2                !
 ! D7    D(15,1,6,5)          -179.9986         estimate D2E/DX2                !
 ! D8    D(15,1,6,16)           -0.0003         estimate D2E/DX2                !
 ! D9    D(1,2,3,4)              0.002          estimate D2E/DX2                !
 ! D10   D(1,2,3,14)          -179.9968         estimate D2E/DX2                !
 ! D11   D(13,2,3,4)           179.9992         estimate D2E/DX2                !
 ! D12   D(13,2,3,14)            0.0005         estimate D2E/DX2                !
 ! D13   D(2,3,4,5)             -0.0005         estimate D2E/DX2                !
 ! D14   D(2,3,4,7)           -179.9911         estimate D2E/DX2                !
 ! D15   D(14,3,4,5)           179.9982         estimate D2E/DX2                !
 ! D16   D(14,3,4,7)             0.0076         estimate D2E/DX2                !
 ! D17   D(3,4,5,6)             -0.002          estimate D2E/DX2                !
 ! D18   D(3,4,5,8)           -179.9955         estimate D2E/DX2                !
 ! D19   D(7,4,5,6)            179.9905         estimate D2E/DX2                !
 ! D20   D(7,4,5,8)             -0.003          estimate D2E/DX2                !
 ! D21   D(3,4,7,9)           -179.98           estimate D2E/DX2                !
 ! D22   D(3,4,7,10)            -0.0649         estimate D2E/DX2                !
 ! D23   D(5,4,7,9)              0.0284         estimate D2E/DX2                !
 ! D24   D(5,4,7,10)           179.9434         estimate D2E/DX2                !
 ! D25   D(4,5,6,1)              0.0031         estimate D2E/DX2                !
 ! D26   D(4,5,6,16)          -179.9951         estimate D2E/DX2                !
 ! D27   D(8,5,6,1)            179.9944         estimate D2E/DX2                !
 ! D28   D(8,5,6,16)            -0.0038         estimate D2E/DX2                !
 ! D29   D(4,5,8,9)             -0.0234         estimate D2E/DX2                !
 ! D30   D(4,5,8,11)           179.9883         estimate D2E/DX2                !
 ! D31   D(6,5,8,9)            179.9846         estimate D2E/DX2                !
 ! D32   D(6,5,8,11)            -0.0037         estimate D2E/DX2                !
 ! D33   D(4,7,9,8)             -0.0444         estimate D2E/DX2                !
 ! D34   D(4,7,9,12)           179.9847         estimate D2E/DX2                !
 ! D35   D(10,7,9,8)          -179.9597         estimate D2E/DX2                !
 ! D36   D(10,7,9,12)            0.0693         estimate D2E/DX2                !
 ! D37   D(5,8,9,7)              0.0414         estimate D2E/DX2                !
 ! D38   D(5,8,9,12)          -179.9913         estimate D2E/DX2                !
 ! D39   D(11,8,9,7)          -179.9702         estimate D2E/DX2                !
 ! D40   D(11,8,9,12)           -0.0029         estimate D2E/DX2                !
 --------------------------------------------------------------------------------
 Trust Radius=3.00D-01 FncErr=1.00D-07 GrdErr=1.00D-06 EigMax=2.50D+02 EigMin=1.00D-04
 Number of steps in this run=     94 maximum allowed number of steps=    100.
 GradGradGradGradGradGradGradGradGradGradGradGradGradGradGradGradGradGrad

                          Input orientation:                          
 ---------------------------------------------------------------------
 Center     Atomic      Atomic             Coordinates (Angstroms)
 Number     Number       Type             X           Y           Z
 ---------------------------------------------------------------------
      1          6           0       -2.151063    0.689208    0.000088
      2          6           0       -2.127927   -0.715818    0.000075
      3          6           0       -0.932297   -1.413100   -0.000011
      4          6           0        0.246911   -0.670201   -0.000042
      5          6           0        0.248193    0.748299    0.000000
      6          6           0       -0.979474    1.423526    0.000032
      7          7           0        1.561774   -1.077592   -0.000285
      8          6           0        1.620133    1.162900   -0.000157
      9          6           0        2.382013    0.030806    0.000248
     10          1           0        1.876315   -2.030011    0.000438
     11          1           0        1.992173    2.173010   -0.000348
     12          1           0        3.452549   -0.082425    0.000408
     13          1           0       -3.061594   -1.262020    0.000088
     14          1           0       -0.917252   -2.495342   -0.000073
     15          1           0       -3.104203    1.200785    0.000090
     16          1           0       -1.009348    2.505421   -0.000015
 ---------------------------------------------------------------------
                    Distance matrix (angstroms):
                    1          2          3          4          5
     1  C    0.000000
     2  C    1.405216   0.000000
     3  C    2.430039   1.384100   0.000000
     4  C    2.756496   2.375276   1.393711   0.000000
     5  C    2.399984   2.790983   2.462763   1.418501   0.000000
     6  C    1.382694   2.428114   2.837018   2.426461   1.401106
     7  N    4.111781   3.707395   2.516536   1.376529   2.249305
     8  C    3.800829   4.192557   3.626386   2.290414   1.433218
     9  C    4.580641   4.571324   3.615178   2.247236   2.251218
    10  H    4.859416   4.214387   2.875566   2.122273   3.220216
    11  H    4.400917   5.031953   4.627387   3.336134   2.251948
    12  H    5.656491   5.616307   4.582311   3.259079   3.310287
    13  H    2.153220   1.081698   2.134650   3.361020   3.872476
    14  H    3.415208   2.152310   1.082347   2.164813   3.446661
    15  H    1.081752   2.150926   3.398466   3.838040   3.382795
    16  H    2.145261   3.409927   3.919278   3.415079   2.160761
                    6          7          8          9         10
     6  C    0.000000
     7  N    3.565604   0.000000
     8  C    2.612639   2.241252   0.000000
     9  C    3.638580   1.378890   1.364587   0.000000
    10  H    4.481345   1.003015   3.203172   2.121956   0.000000
    11  H    3.064704   3.278972   1.076446   2.177387   4.204618
    12  H    4.680888   2.136677   2.215532   1.076508   2.505515
    13  H    3.398144   4.627045   5.272457   5.595021   4.997275
    14  H    3.919362   2.855798   4.452085   4.155307   2.832058
    15  H    2.136372   5.192528   4.724488   5.609583   5.936632
    16  H    1.082307   4.410062   2.952378   4.198220   5.375611
                   11         12         13         14         15
    11  H    0.000000
    12  H    2.686947   0.000000
    13  H    6.110646   6.620083   0.000000
    14  H    5.500751   4.991726   2.473719   0.000000
    15  H    5.188282   6.681139   2.463174   4.294661   0.000000
    16  H    3.019872   5.158049   4.290143   5.001611   2.467892
                   16
    16  H    0.000000
 Stoichiometry    C8H7N
 Framework group  C1[X(C8H7N)]
 Deg. of freedom    42
 Full point group                 C1      NOp   1
 Largest Abelian subgroup         C1      NOp   1
 Largest concise Abelian subgroup C1      NOp   1
                         Standard orientation:                         
 ---------------------------------------------------------------------
 Center     Atomic      Atomic             Coordinates (Angstroms)
 Number     Number       Type             X           Y           Z
 ---------------------------------------------------------------------
      1          6           0       -2.151063    0.689208    0.000088
      2          6           0       -2.127927   -0.715818    0.000075
      3          6           0       -0.932297   -1.413100   -0.000011
      4          6           0        0.246911   -0.670201   -0.000042
      5          6           0        0.248193    0.748299    0.000000
      6          6           0       -0.979474    1.423526    0.000032
      7          7           0        1.561774   -1.077592   -0.000285
      8          6           0        1.620133    1.162900   -0.000157
      9          6           0        2.382013    0.030806    0.000248
     10          1           0        1.876315   -2.030011    0.000438
     11          1           0        1.992173    2.173010   -0.000348
     12          1           0        3.452549   -0.082425    0.000408
     13          1           0       -3.061594   -1.262020    0.000088
     14          1           0       -0.917252   -2.495342   -0.000073
     15          1           0       -3.104203    1.200785    0.000090
     16          1           0       -1.009348    2.505421   -0.000015
 ---------------------------------------------------------------------
 Rotational constants (GHZ):           3.9080822           1.6429452           1.1566805
 Standard basis: 6-31+G(d) (6D, 7F)
 There are   185 symmetry adapted cartesian basis functions of A   symmetry.
 There are   185 symmetry adapted basis functions of A   symmetry.
   185 basis functions,   316 primitive gaussians,   185 cartesian basis functions
    31 alpha electrons       31 beta electrons
       nuclear repulsion energy       401.3368668897 Hartrees.
 NAtoms=   16 NActive=   16 NUniq=   16 SFac= 1.00D+00 NAtFMM=   60 NAOKFM=F Big=F
 Integral buffers will be    131072 words long.
 Regular integral format.
 Two-electron integral symmetry is turned on.
 One-electron integrals computed using PRISM.
 NBasis=   185 RedAO= T EigKep=  1.26D-06  NBF=   185
 NBsUse=   185 1.00D-06 EigRej= -1.00D+00 NBFU=   185
 ExpMin= 4.38D-02 ExpMax= 4.17D+03 ExpMxC= 6.27D+02 IAcc=3 IRadAn=         5 AccDes= 0.00D+00
 Harris functional with IExCor= 1009 and IRadAn=       5 diagonalized for initial guess.
 HarFok:  IExCor= 1009 AccDes= 0.00D+00 IRadAn=         5 IDoV= 1 UseB2=F ITyADJ=14
 ICtDFT=  3500011 ScaDFX=  1.000000  1.000000  1.000000  1.000000
 FoFCou: FMM=F IPFlag=           0 FMFlag=      100000 FMFlg1=           0
         NFxFlg=           0 DoJE=T BraDBF=F KetDBF=T FulRan=T
         wScrn=  0.000000 ICntrl=       500 IOpCl=  0 I1Cent=   200000004 NGrid=           0
         NMat0=    1 NMatS0=      1 NMatT0=    0 NMatD0=    1 NMtDS0=    0 NMtDT0=    0
 Petite list used in FoFCou.
 Keep J ints in memory in canonical form, NReq=152071459.
 Requested convergence on RMS density matrix=1.00D-08 within 128 cycles.
 Requested convergence on MAX density matrix=1.00D-06.
 Requested convergence on             energy=1.00D-06.
 No special actions if energy rises.
 SCF Done:  E(RPBE-PBE) =  -363.370217365     A.U. after   15 cycles
            NFock= 15  Conv=0.85D-08     -V/T= 2.0091
 DoSCS=F DFT=T ScalE2(SS,OS)=  1.000000  1.000000
 ExpMin= 4.38D-02 ExpMax= 4.17D+03 ExpMxC= 6.27D+02 IAcc=3 IRadAn=         5 AccDes= 0.00D+00
 HarFok:  IExCor=  205 AccDes= 0.00D+00 IRadAn=         5 IDoV=-2 UseB2=F ITyADJ=14
 ICtDFT= 12500011 ScaDFX=  1.000000  1.000000  1.000000  1.000000
 Range of M.O.s used for correlation:    10   185
 NBasis=   185 NAE=    31 NBE=    31 NFC=     9 NFV=     0
 NROrb=    176 NOA=    22 NOB=    22 NVA=   154 NVB=   154

 **** Warning!!: The largest alpha MO coefficient is  0.19938059D+03

 Keep J ints in memory in canonical form, NReq=168659827.
 Orbital symmetries:
       Occupied  (A) (A) (A) (A) (A) (A) (A) (A) (A) (A) (A) (A)
                 (A) (A) (A) (A) (A) (A) (A) (A) (A) (A) (A) (A)
                 (A) (A) (A) (A) (A) (A) (A)
       Virtual   (A) (A) (A) (A) (A) (A) (A) (A) (A) (A) (A) (A)
                 (A) (A) (A) (A) (A) (A) (A) (A) (A) (A) (A) (A)
                 (A) (A) (A) (A) (A) (A) (A) (A) (A) (A) (A) (A)
                 (A) (A) (A) (A) (A) (A) (A) (A) (A) (A) (A) (A)
                 (A) (A) (A) (A) (A) (A) (A) (A) (A) (A) (A) (A)
                 (A) (A) (A) (A) (A) (A) (A) (A) (A) (A) (A) (A)
                 (A) (A) (A) (A) (A) (A) (A) (A) (A) (A) (A) (A)
                 (A) (A) (A) (A) (A) (A) (A) (A) (A) (A) (A) (A)
                 (A) (A) (A) (A) (A) (A) (A) (A) (A) (A) (A) (A)
                 (A) (A) (A) (A) (A) (A) (A) (A) (A) (A) (A) (A)
                 (A) (A) (A) (A) (A) (A) (A) (A) (A) (A) (A) (A)
                 (A) (A) (A) (A) (A) (A) (A) (A) (A) (A) (A) (A)
                 (A) (A) (A) (A) (A) (A) (A) (A) (A) (A)
    24 initial guesses have been made.
 Convergence on wavefunction:    0.000001000000000
 Iteration     1 Dimension    24 NMult     0 NNew     24
 CISAX will form    24 AO SS matrices at one time.
 New state      1 was old state      3
 New state      2 was old state      1
 New state      3 was old state      2
 New state      4 was old state      5
 New state      5 was old state      6
 New state      6 was old state      8
 Iteration     2 Dimension    48 NMult    24 NNew     24
 New state      1 was old state      2
 New state      2 was old state      1
 Iteration     3 Dimension    54 NMult    48 NNew      6
 Iteration     4 Dimension    60 NMult    54 NNew      6
 Iteration     5 Dimension    66 NMult    60 NNew      6
 Iteration     6 Dimension    72 NMult    66 NNew      6
 Iteration     7 Dimension    78 NMult    72 NNew      6
 Iteration     8 Dimension    84 NMult    78 NNew      6
 Iteration     9 Dimension    90 NMult    84 NNew      6
 Iteration    10 Dimension    96 NMult    90 NNew      6
 Iteration    11 Dimension   102 NMult    96 NNew      6
 Iteration    12 Dimension   108 NMult   102 NNew      6
 Iteration    13 Dimension   114 NMult   108 NNew      6
 Iteration    14 Dimension   120 NMult   114 NNew      6
 Iteration    15 Dimension   126 NMult   120 NNew      6
 Iteration    16 Dimension   129 NMult   126 NNew      3
 Iteration    17 Dimension   134 NMult   129 NNew      5
 Iteration    18 Dimension   138 NMult   134 NNew      4
 Iteration    19 Dimension   139 NMult   138 NNew      1
 Iteration    20 Dimension   140 NMult   139 NNew      1
 Iteration    21 Dimension   141 NMult   140 NNew      1
 ***********************************************************************
 Excited states from <AA,BB:AA,BB> singles matrix:
 ***********************************************************************
 
 Ground to excited state transition densities written to RWF  633
 Ground to excited state transition electric dipole moments (Au):
       state          X           Y           Z        Dip. S.      Osc.
         1        -0.4640      0.5297     -0.0002      0.4958      0.0540
         2         0.0007     -0.0010     -0.1055      0.0111      0.0012
         3        -0.3910     -0.1218     -0.0000      0.1677      0.0193
         4        -0.0002      0.0002     -0.1278      0.0163      0.0020
         5        -0.0003      0.0000     -0.0110      0.0001      0.0000
         6        -0.0004     -0.0001     -0.0975      0.0095      0.0012
 Ground to excited state transition velocity dipole moments (Au):
       state          X           Y           Z        Dip. S.      Osc.
         1         0.0675     -0.0948      0.0000      0.0135      0.0553
         2        -0.0001      0.0002      0.0092      0.0001      0.0003
         3         0.0634      0.0221      0.0000      0.0045      0.0174
         4         0.0000     -0.0000      0.0245      0.0006      0.0022
         5         0.0001     -0.0000      0.0007      0.0000      0.0000
         6         0.0001      0.0000      0.0191      0.0004      0.0012
 Ground to excited state transition magnetic dipole moments (Au):
       state          X           Y           Z
         1         0.0003     -0.0000      0.2138
         2         0.1112     -0.0333     -0.0001
         3        -0.0001     -0.0002      0.0093
         4         0.0078     -0.1802      0.0000
         5        -0.2694      0.0902     -0.0002
         6        -0.0432     -0.3235     -0.0003
 Ground to excited state transition velocity quadrupole moments (Au):
       state          XX          YY          ZZ          XY          XZ          YZ
         1         0.1466     -0.0877      0.0107      0.0701      0.0001      0.0001
         2        -0.0003      0.0001      0.0001     -0.0000      0.0306      0.0503
         3         0.0510     -0.0824      0.0241      0.0103      0.0001     -0.0001
         4        -0.0000      0.0001     -0.0000     -0.0000      0.1131     -0.0468
         5         0.0001      0.0001     -0.0000     -0.0001     -0.1105     -0.2012
         6        -0.0001      0.0001     -0.0000     -0.0001      0.2801      0.0230
 <0|del|b> * <b|rxdel|0> + <0|del|b> * <b|delr+rdel|0>
 Rotatory Strengths (R) in cgs (10**-40 erg-esu-cm/Gauss)
       state          XX          YY          ZZ    R(velocity)    E-M Angle
         1         0.0380      0.0723      0.0238      0.0447       90.00
         2        -0.0267     -0.0350     -0.0138     -0.0252       90.00
         3        -0.0109     -0.0268     -0.0118     -0.0165       90.00
         4         0.0228     -0.0007      0.0101      0.0107       90.00
         5        -0.0040     -0.0504     -0.0069     -0.0204       90.00
         6        -0.0325     -0.0085     -0.0093     -0.0168       90.00
 1/2[<0|r|b>*<b|rxdel|0> + (<0|rxdel|b>*<b|r|0>)*]
 Rotatory Strengths (R) in cgs (10**-40 erg-esu-cm/Gauss)
       state          XX          YY          ZZ     R(length)
         1         0.1141      0.0120      0.0337      0.0533
         2        -0.0561     -0.0231     -0.0066     -0.0286
         3        -0.0362     -0.0153      0.0003     -0.0171
         4         0.0012      0.0267      0.0039      0.0106
         5        -0.0619     -0.0031     -0.0013     -0.0221
         6        -0.0112     -0.0305     -0.0218     -0.0212
  1/2[<0|del|b>*<b|r|0> + (<0|r|b>*<b|del|0>)*] (Au)
       state          X           Y           Z        Dip. S.   Osc.(frdel)
         1        -0.0313     -0.0502     -0.0000      0.0815      0.0543
         2        -0.0000     -0.0000     -0.0010      0.0010      0.0006
         3        -0.0248     -0.0027     -0.0000      0.0275      0.0183
         4        -0.0000     -0.0000     -0.0031      0.0031      0.0021
         5        -0.0000     -0.0000     -0.0000      0.0000      0.0000
         6        -0.0000     -0.0000     -0.0019      0.0019      0.0012

 Excitation energies and oscillator strengths:
 
 Excited State   1:      Singlet-A      4.4430 eV  279.05 nm  f=0.0540  <S**2>=0.000
      29 -> 32         0.13623
      30 -> 34         0.11724
      31 -> 32         0.66186
 This state for optimization and/or second-order correction.
 Total Energy, E(TD-HF/TD-DFT) =  -363.206938670    
 Copying the excited state density for this state as the 1-particle RhoCI density.
 
 Excited State   2:      Singlet-A      4.5725 eV  271.15 nm  f=0.0012  <S**2>=0.000
      31 -> 33         0.70692
 
 Excited State   3:      Singlet-A      4.7004 eV  263.77 nm  f=0.0193  <S**2>=0.000
      30 -> 32         0.55217
      31 -> 34        -0.43453
 
 Excited State   4:      Singlet-A      5.0223 eV  246.87 nm  f=0.0020  <S**2>=0.000
      30 -> 33         0.70671
 
 Excited State   5:      Singlet-A      5.1168 eV  242.31 nm  f=0.0000  <S**2>=0.000
      31 -> 35         0.70668
 
 Excited State   6:      Singlet-A      5.2968 eV  234.07 nm  f=0.0012  <S**2>=0.000
      31 -> 36         0.70686
 SavETr:  write IOETrn=   770 NScale= 10 NData=  16 NLR=1 NState=    6 LETran=     118.
          IDoAtm=1111111111111111
          Differentiating once with respect to electric field.
                with respect to dipole field.
          Differentiating once with respect to nuclear coordinates.
 Keep J ints in memory in canonical form, NReq=152083851.
          There are     1 degrees of freedom in the 1st order CPHF.  IDoFFX=0 NUNeed=     1.
 LinEq1:  Iter=  0 NonCon=     1 RMS=2.19D-02 Max=7.59D-01 NDo=     1
 AX will form     1 AO Fock derivatives at one time.
 LinEq1:  Iter=  1 NonCon=     1 RMS=1.07D-02 Max=2.39D-01 NDo=     1
 LinEq1:  Iter=  2 NonCon=     1 RMS=1.15D-02 Max=4.05D-01 NDo=     1
 LinEq1:  Iter=  3 NonCon=     1 RMS=5.67D-03 Max=1.64D-01 NDo=     1
 LinEq1:  Iter=  4 NonCon=     1 RMS=6.50D-03 Max=1.89D-01 NDo=     1
 LinEq1:  Iter=  5 NonCon=     1 RMS=3.18D-03 Max=8.72D-02 NDo=     1
 LinEq1:  Iter=  6 NonCon=     1 RMS=2.08D-03 Max=3.71D-02 NDo=     1
 LinEq1:  Iter=  7 NonCon=     1 RMS=1.34D-03 Max=2.75D-02 NDo=     1
 LinEq1:  Iter=  8 NonCon=     1 RMS=6.64D-04 Max=1.51D-02 NDo=     1
 LinEq1:  Iter=  9 NonCon=     1 RMS=5.63D-04 Max=1.12D-02 NDo=     1
 LinEq1:  Iter= 10 NonCon=     1 RMS=2.72D-04 Max=4.42D-03 NDo=     1
 LinEq1:  Iter= 11 NonCon=     1 RMS=1.74D-04 Max=2.49D-03 NDo=     1
 LinEq1:  Iter= 12 NonCon=     1 RMS=6.03D-05 Max=1.04D-03 NDo=     1
 LinEq1:  Iter= 13 NonCon=     1 RMS=4.29D-05 Max=1.07D-03 NDo=     1
 LinEq1:  Iter= 14 NonCon=     1 RMS=1.16D-05 Max=1.04D-04 NDo=     1
 LinEq1:  Iter= 15 NonCon=     1 RMS=2.16D-06 Max=4.08D-05 NDo=     1
 LinEq1:  Iter= 16 NonCon=     1 RMS=1.77D-06 Max=3.25D-05 NDo=     1
 LinEq1:  Iter= 17 NonCon=     1 RMS=4.42D-07 Max=3.85D-06 NDo=     1
 LinEq1:  Iter= 18 NonCon=     1 RMS=1.03D-07 Max=1.24D-06 NDo=     1
 LinEq1:  Iter= 19 NonCon=     1 RMS=2.64D-08 Max=3.12D-07 NDo=     1
 LinEq1:  Iter= 20 NonCon=     1 RMS=8.75D-09 Max=7.45D-08 NDo=     1
 LinEq1:  Iter= 21 NonCon=     1 RMS=1.71D-09 Max=1.43D-08 NDo=     1
 LinEq1:  Iter= 22 NonCon=     1 RMS=2.82D-10 Max=2.93D-09 NDo=     1
 LinEq1:  Iter= 23 NonCon=     0 RMS=3.93D-11 Max=4.09D-10 NDo=     1
 Linear equations converged to 1.000D-10 1.000D-09 after    23 iterations.
 End of Minotr F.D. properties file   721 does not exist.
 End of Minotr F.D. properties file   722 does not exist.
 End of Minotr F.D. properties file   788 does not exist.

 **********************************************************************

            Population analysis using the CI Density.

 **********************************************************************

 Orbital symmetries:
       Occupied  (A) (A) (A) (A) (A) (A) (A) (A) (A) (A) (A) (A)
                 (A) (A) (A) (A) (A) (A) (A) (A) (A) (A) (A) (A)
                 (A) (A) (A) (A) (A) (A) (A)
       Virtual   (A) (A) (A) (A) (A) (A) (A) (A) (A) (A) (A) (A)
                 (A) (A) (A) (A) (A) (A) (A) (A) (A) (A) (A) (A)
                 (A) (A) (A) (A) (A) (A) (A) (A) (A) (A) (A) (A)
                 (A) (A) (A) (A) (A) (A) (A) (A) (A) (A) (A) (A)
                 (A) (A) (A) (A) (A) (A) (A) (A) (A) (A) (A) (A)
                 (A) (A) (A) (A) (A) (A) (A) (A) (A) (A) (A) (A)
                 (A) (A) (A) (A) (A) (A) (A) (A) (A) (A) (A) (A)
                 (A) (A) (A) (A) (A) (A) (A) (A) (A) (A) (A) (A)
                 (A) (A) (A) (A) (A) (A) (A) (A) (A) (A) (A) (A)
                 (A) (A) (A) (A) (A) (A) (A) (A) (A) (A) (A) (A)
                 (A) (A) (A) (A) (A) (A) (A) (A) (A) (A) (A) (A)
                 (A) (A) (A) (A) (A) (A) (A) (A) (A) (A) (A) (A)
                 (A) (A) (A) (A) (A) (A) (A) (A) (A) (A)
 The electronic state is 1-A.
 Alpha  occ. eigenvalues --  -14.05708  -9.93305  -9.93169  -9.90258  -9.89891
 Alpha  occ. eigenvalues --   -9.89660  -9.89650  -9.89216  -9.89074  -0.90542
 Alpha  occ. eigenvalues --   -0.76638  -0.71393  -0.66877  -0.65121  -0.56788
 Alpha  occ. eigenvalues --   -0.54022  -0.52668  -0.48949  -0.43484  -0.42254
 Alpha  occ. eigenvalues --   -0.39236  -0.38309  -0.37935  -0.36548  -0.34801
 Alpha  occ. eigenvalues --   -0.31209  -0.29870  -0.29344  -0.24908  -0.20074
 Alpha  occ. eigenvalues --   -0.18387
 Alpha virt. eigenvalues --   -0.04211  -0.01595  -0.00809   0.00434   0.01114
 Alpha virt. eigenvalues --    0.02025   0.02619   0.02835   0.04546   0.04750
 Alpha virt. eigenvalues --    0.05446   0.05703   0.07275   0.07519   0.09505
 Alpha virt. eigenvalues --    0.09813   0.09941   0.11230   0.12031   0.12452
 Alpha virt. eigenvalues --    0.14085   0.14127   0.14704   0.14998   0.15713
 Alpha virt. eigenvalues --    0.16212   0.16922   0.17020   0.18021   0.18244
 Alpha virt. eigenvalues --    0.18410   0.18530   0.20151   0.20566   0.21466
 Alpha virt. eigenvalues --    0.22079   0.22080   0.22764   0.23768   0.24210
 Alpha virt. eigenvalues --    0.25472   0.25822   0.26139   0.27196   0.27539
 Alpha virt. eigenvalues --    0.28344   0.29458   0.30782   0.32512   0.33746
 Alpha virt. eigenvalues --    0.34645   0.36776   0.39105   0.41428   0.47437
 Alpha virt. eigenvalues --    0.53699   0.57742   0.63098   0.63753   0.65603
 Alpha virt. eigenvalues --    0.67255   0.67762   0.68547   0.69290   0.69502
 Alpha virt. eigenvalues --    0.70883   0.70991   0.73257   0.74690   0.75211
 Alpha virt. eigenvalues --    0.76924   0.80767   0.84440   0.85049   0.86178
 Alpha virt. eigenvalues --    0.88594   0.89163   0.90343   0.90717   0.93455
 Alpha virt. eigenvalues --    0.95190   0.98301   1.00176   1.01118   1.05157
 Alpha virt. eigenvalues --    1.06737   1.06947   1.12471   1.13310   1.15802
 Alpha virt. eigenvalues --    1.17607   1.17905   1.20268   1.25946   1.26520
 Alpha virt. eigenvalues --    1.27999   1.31824   1.35102   1.36635   1.39536
 Alpha virt. eigenvalues --    1.39765   1.40341   1.43302   1.43817   1.48540
 Alpha virt. eigenvalues --    1.53232   1.59241   1.72287   1.77738   1.81410
 Alpha virt. eigenvalues --    1.82355   1.85246   1.88117   1.92329   1.92677
 Alpha virt. eigenvalues --    1.93464   1.99070   2.02679   2.07097   2.09959
 Alpha virt. eigenvalues --    2.10142   2.12564   2.17465   2.18719   2.19212
 Alpha virt. eigenvalues --    2.21598   2.24318   2.30602   2.33325   2.37395
 Alpha virt. eigenvalues --    2.47394   2.48075   2.56278   2.58440   2.59238
 Alpha virt. eigenvalues --    2.62189   2.65832   2.73176   2.77050   2.77860
 Alpha virt. eigenvalues --    2.87785   2.90407   3.02962   3.15961   3.36459
 Alpha virt. eigenvalues --    4.05895   4.17268   4.20266   4.23706   4.27257
 Alpha virt. eigenvalues --    4.30762   4.39122   4.43025   4.69885
          Condensed to atoms (all electrons):
               1          2          3          4          5          6
     1  C    5.688430   0.596726   0.139043  -0.866068   0.091248  -0.202209
     2  C    0.596726   6.159172  -0.494589   0.721478  -1.005125   0.618730
     3  C    0.139043  -0.494589  16.115523  -3.951527  -4.455443  -3.447336
     4  C   -0.866068   0.721478  -3.951527  15.828086  -4.075524  -0.760093
     5  C    0.091248  -1.005125  -4.455443  -4.075524  17.569767  -0.926083
     6  C   -0.202209   0.618730  -3.447336  -0.760093  -0.926083  14.627589
     7  N   -0.017791  -0.013304  -0.505063  -0.550797   0.941954   0.145618
     8  C    0.237662  -0.428414   4.357680   1.145697  -6.399452  -4.375502
     9  C   -0.103325   0.061605  -1.592622  -0.376814   2.323860   1.138632
    10  H   -0.001153  -0.012168  -0.131403  -0.071913   0.180582   0.025519
    11  H    0.003055   0.001039   0.005566   0.043301  -0.052132  -0.008134
    12  H    0.000599   0.000907   0.033575   0.102662  -0.093703  -0.025031
    13  H   -0.009806   0.269158  -0.017641   0.029540  -0.001788   0.023439
    14  H    0.029463   0.044017   0.218878   0.002518   0.023335  -0.031162
    15  H    0.284565  -0.015191   0.039830  -0.029206   0.042970  -0.036387
    16  H    0.019479   0.028349  -0.050723   0.042136   0.066724   0.232617
               7          8          9         10         11         12
     1  C   -0.017791   0.237662  -0.103325  -0.001153   0.003055   0.000599
     2  C   -0.013304  -0.428414   0.061605  -0.012168   0.001039   0.000907
     3  C   -0.505063   4.357680  -1.592622  -0.131403   0.005566   0.033575
     4  C   -0.550797   1.145697  -0.376814  -0.071913   0.043301   0.102662
     5  C    0.941954  -6.399452   2.323860   0.180582  -0.052132  -0.093703
     6  C    0.145618  -4.375502   1.138632   0.025519  -0.008134  -0.025031
     7  N    7.256339  -0.694197   0.594289   0.253248   0.007029  -0.058937
     8  C   -0.694197  14.733772  -3.112222   0.016247   0.339078   0.011129
     9  C    0.594289  -3.112222   7.151482  -0.044491  -0.053408   0.332247
    10  H    0.253248   0.016247  -0.044491   0.350633  -0.000068  -0.002471
    11  H    0.007029   0.339078  -0.053408  -0.000068   0.490054  -0.001122
    12  H   -0.058937   0.011129   0.332247  -0.002471  -0.001122   0.483070
    13  H   -0.000633  -0.001447   0.001730  -0.000003  -0.000000  -0.000000
    14  H   -0.011707  -0.008934   0.009555   0.002741   0.000003   0.000004
    15  H    0.000363   0.006029  -0.000234  -0.000000  -0.000002  -0.000000
    16  H   -0.001364  -0.065249   0.004832   0.000006   0.001720  -0.000001
              13         14         15         16
     1  C   -0.009806   0.029463   0.284565   0.019479
     2  C    0.269158   0.044017  -0.015191   0.028349
     3  C   -0.017641   0.218878   0.039830  -0.050723
     4  C    0.029540   0.002518  -0.029206   0.042136
     5  C   -0.001788   0.023335   0.042970   0.066724
     6  C    0.023439  -0.031162  -0.036387   0.232617
     7  N   -0.000633  -0.011707   0.000363  -0.001364
     8  C   -0.001447  -0.008934   0.006029  -0.065249
     9  C    0.001730   0.009555  -0.000234   0.004832
    10  H   -0.000003   0.002741  -0.000000   0.000006
    11  H   -0.000000   0.000003  -0.000002   0.001720
    12  H   -0.000000   0.000004  -0.000000  -0.000001
    13  H    0.539422  -0.005722  -0.005614  -0.000180
    14  H   -0.005722   0.549662  -0.000180   0.000021
    15  H   -0.005614  -0.000180   0.539960  -0.005639
    16  H   -0.000180   0.000021  -0.005639   0.545874
 Mulliken charges:
               1
     1  C    0.110080
     2  C   -0.532391
     3  C   -0.263747
     4  C   -1.233476
     5  C    1.768810
     6  C   -1.000208
     7  N   -0.345047
     8  C    0.238123
     9  C   -0.335116
    10  H    0.434693
    11  H    0.224021
    12  H    0.217071
    13  H    0.179545
    14  H    0.177508
    15  H    0.178737
    16  H    0.181396
 Sum of Mulliken charges =  -0.00000
 Mulliken charges with hydrogens summed into heavy atoms:
               1
     1  C    0.288818
     2  C   -0.352845
     3  C   -0.086239
     4  C   -1.233476
     5  C    1.768810
     6  C   -0.818812
     7  N    0.089647
     8  C    0.462144
     9  C   -0.118045
 Electronic spatial extent (au):  <R**2>=           1008.0353
 Charge=              0.0000 electrons
 Dipole moment (field-independent basis, Debye):
    X=              4.4727    Y=             -1.0877    Z=             -0.0033  Tot=              4.6031
 Quadrupole moment (field-independent basis, Debye-Ang):
   XX=            -45.8406   YY=            -46.5313   ZZ=            -60.0826
   XY=             -2.3522   XZ=             -0.0057   YZ=              0.0041
 Traceless Quadrupole moment (field-independent basis, Debye-Ang):
   XX=              4.9776   YY=              4.2869   ZZ=             -9.2644
   XY=             -2.3522   XZ=             -0.0057   YZ=              0.0041
 Octapole moment (field-independent basis, Debye-Ang**2):
  XXX=             26.0543  YYY=             -8.2782  ZZZ=             -0.0269  XYY=             17.1055
  XXY=             -5.4503  XXZ=             -0.0184  XZZ=              5.3635  YZZ=             -0.6453
  YYZ=             -0.0245  XYZ=              0.0036
 Hexadecapole moment (field-independent basis, Debye-Ang**3):
 XXXX=           -855.6096 YYYY=           -401.4120 ZZZZ=            -86.0266 XXXY=            -16.8396
 XXXZ=             -0.0941 YYYX=            -15.4699 YYYZ=              0.0495 ZZZX=             -0.0395
 ZZZY=              0.0362 XXYY=           -195.4649 XXZZ=           -198.8203 YYZZ=           -103.4740
 XXYZ=              0.0178 YYXZ=             -0.0093 ZZXY=             -1.7646
 N-N= 4.013368668897D+02 E-N=-1.644760602857D+03  KE= 3.602599887838D+02
 Calling FoFJK, ICntrl=  10005527 FMM=F ISym2X=0 I1Cent= 0 IOpClX= 0 NMat=1 NMatS=1 NMatT=0.
 ***** Axes restored to original set *****
 -------------------------------------------------------------------
 Center     Atomic                   Forces (Hartrees/Bohr)
 Number     Number              X              Y              Z
 -------------------------------------------------------------------
      1        6          -0.025927074   -0.033636892   -0.000002500
      2        6          -0.036173120    0.037131211   -0.000000244
      3        6           0.027450057   -0.039834591    0.000003906
      4        6          -0.015389873    0.031672170   -0.000029520
      5        6           0.001973682   -0.025369465   -0.000011118
      6        6           0.011542145    0.037472846    0.000012916
      7        7           0.021646461    0.027147975    0.000039331
      8        6          -0.028916059    0.025041044    0.000010988
      9        6           0.040651638   -0.053155293   -0.000024908
     10        1           0.005758407   -0.014079771    0.000009531
     11        1           0.003950404    0.009194856   -0.000000467
     12        1           0.008994915   -0.001607367   -0.000002940
     13        1          -0.008170611   -0.004145940    0.000000717
     14        1           0.000690641   -0.008999422   -0.000006482
     15        1          -0.008277090    0.004112736    0.000000430
     16        1           0.000195477    0.009055902    0.000000361
 -------------------------------------------------------------------
 Cartesian Forces:  Max     0.053155293 RMS     0.019445885

 GradGradGradGradGradGradGradGradGradGradGradGradGradGradGradGradGradGrad
 Berny optimization.
 FormGI is forming the generalized inverse of G from B-inverse, IUseBI=4.
 Internal  Forces:  Max     0.053085096 RMS     0.012152980
 Search for a local minimum.
 Step number   1 out of a maximum of   94
 All quantities printed in internal units (Hartrees-Bohrs-Radians)
 Mixed Optimization -- RFO/linear search
 Second derivative matrix not updated -- first step.
 ITU=  0
     Eigenvalues ---    0.01853   0.01931   0.01986   0.02012   0.02070
     Eigenvalues ---    0.02113   0.02148   0.02153   0.02172   0.02209
     Eigenvalues ---    0.02233   0.02248   0.02338   0.16000   0.16000
     Eigenvalues ---    0.16000   0.16000   0.16000   0.16000   0.16000
     Eigenvalues ---    0.22000   0.22188   0.22662   0.24011   0.24651
     Eigenvalues ---    0.35712   0.35717   0.35783   0.35790   0.36420
     Eigenvalues ---    0.36427   0.37009   0.38432   0.42633   0.43465
     Eigenvalues ---    0.45769   0.46692   0.47162   0.47468   0.47567
     Eigenvalues ---    0.48125   0.50955
 RFO step:  Lambda=-2.65848008D-02 EMin= 1.85287394D-02
 Linear search not attempted -- first point.
 Iteration  1 RMS(Cart)=  0.04204833 RMS(Int)=  0.00038555
 Iteration  2 RMS(Cart)=  0.00051885 RMS(Int)=  0.00014408
 Iteration  3 RMS(Cart)=  0.00000018 RMS(Int)=  0.00014408
 Variable       Old X    -DE/DX   Delta X   Delta X   Delta X     New X
                                 (Linear)    (Quad)   (Total)
    R1        2.65547  -0.00326   0.00000  -0.00470  -0.00466   2.65081
    R2        2.61291   0.04313   0.00000   0.08508   0.08510   2.69801
    R3        2.04421   0.00924   0.00000   0.02403   0.02403   2.06825
    R4        2.61557   0.05309   0.00000   0.10516   0.10520   2.72077
    R5        2.04411   0.00915   0.00000   0.02379   0.02379   2.06790
    R6        2.63373   0.02370   0.00000   0.04702   0.04701   2.68074
    R7        2.04534   0.00901   0.00000   0.02348   0.02348   2.06882
    R8        2.68058  -0.00511   0.00000  -0.01742  -0.01769   2.66289
    R9        2.60126   0.03538   0.00000   0.06508   0.06533   2.66660
   R10        2.64771   0.02965   0.00000   0.06051   0.06048   2.70819
   R11        2.70839   0.01662   0.00000   0.03905   0.03867   2.74706
   R12        2.04526   0.00905   0.00000   0.02357   0.02357   2.06884
   R13        2.60573  -0.01215   0.00000  -0.02155  -0.02117   2.58455
   R14        1.89542   0.01518   0.00000   0.03046   0.03046   1.92588
   R15        2.57870   0.05203   0.00000   0.09862   0.09861   2.67731
   R16        2.03419   0.00999   0.00000   0.02557   0.02557   2.05976
   R17        2.03430   0.00911   0.00000   0.02332   0.02332   2.05763
    A1        2.11420   0.00058   0.00000   0.00747   0.00747   2.12168
    A2        2.07986  -0.00059   0.00000  -0.00533  -0.00533   2.07453
    A3        2.08912   0.00001   0.00000  -0.00214  -0.00214   2.08698
    A4        2.11523   0.00010   0.00000   0.00580   0.00582   2.12105
    A5        2.08365  -0.00061   0.00000  -0.00589  -0.00591   2.07775
    A6        2.08430   0.00051   0.00000   0.00010   0.00009   2.08439
    A7        2.05144  -0.00592   0.00000  -0.02467  -0.02470   2.02674
    A8        2.11267   0.00354   0.00000   0.01543   0.01545   2.12812
    A9        2.11908   0.00238   0.00000   0.00923   0.00925   2.12833
   A10        2.13389   0.00468   0.00000   0.01664   0.01654   2.15042
   A11        2.27895  -0.00717   0.00000  -0.01672  -0.01667   2.26228
   A12        1.87035   0.00248   0.00000   0.00008   0.00013   1.87048
   A13        2.07274   0.00679   0.00000   0.02130   0.02147   2.09421
   A14        1.86517  -0.00442   0.00000  -0.01955  -0.02009   1.84508
   A15        2.34527  -0.00236   0.00000  -0.00174  -0.00138   2.34389
   A16        2.07887  -0.00623   0.00000  -0.02653  -0.02660   2.05227
   A17        2.10306   0.00357   0.00000   0.01571   0.01574   2.11880
   A18        2.10125   0.00266   0.00000   0.01083   0.01086   2.11211
   A19        1.90743   0.01256   0.00000   0.04763   0.04817   1.95559
   A20        2.19023  -0.00528   0.00000  -0.01847  -0.01874   2.17149
   A21        2.18553  -0.00728   0.00000  -0.02916  -0.02943   2.15610
   A22        1.86968   0.00804   0.00000   0.03893   0.03855   1.90823
   A23        2.21717  -0.00348   0.00000  -0.01658  -0.01639   2.20078
   A24        2.19633  -0.00456   0.00000  -0.02235  -0.02216   2.17418
   A25        1.91215  -0.01866   0.00000  -0.06709  -0.06675   1.84539
   A26        2.10250   0.00867   0.00000   0.02999   0.02982   2.13232
   A27        2.26854   0.00999   0.00000   0.03710   0.03693   2.30547
    D1       -0.00001   0.00000   0.00000   0.00001   0.00000  -0.00001
    D2       -3.14156  -0.00000   0.00000  -0.00003  -0.00003  -3.14159
    D3        3.14152   0.00000   0.00000   0.00002   0.00002   3.14154
    D4       -0.00002  -0.00000   0.00000  -0.00002  -0.00002  -0.00004
    D5       -0.00003   0.00000   0.00000   0.00006   0.00006   0.00003
    D6        3.14153  -0.00000   0.00000  -0.00001  -0.00001   3.14152
    D7       -3.14157   0.00000   0.00000   0.00005   0.00005  -3.14152
    D8       -0.00001  -0.00000   0.00000  -0.00003  -0.00003  -0.00003
    D9        0.00003  -0.00000   0.00000  -0.00005  -0.00005  -0.00002
   D10       -3.14154  -0.00000   0.00000  -0.00001  -0.00001  -3.14155
   D11        3.14158   0.00000   0.00000  -0.00001  -0.00001   3.14156
   D12        0.00001   0.00000   0.00000   0.00002   0.00002   0.00003
   D13       -0.00001  -0.00000   0.00000   0.00003   0.00003   0.00002
   D14       -3.14144  -0.00001   0.00000  -0.00009  -0.00009  -3.14153
   D15        3.14156  -0.00000   0.00000  -0.00001  -0.00001   3.14155
   D16        0.00013  -0.00001   0.00000  -0.00013  -0.00013   0.00000
   D17       -0.00004   0.00000   0.00000   0.00004   0.00003  -0.00000
   D18       -3.14151   0.00001   0.00000   0.00003   0.00002  -3.14149
   D19        3.14143   0.00001   0.00000   0.00013   0.00013   3.14156
   D20       -0.00005   0.00001   0.00000   0.00013   0.00012   0.00007
   D21       -3.14124  -0.00000   0.00000  -0.00020  -0.00022  -3.14146
   D22       -0.00113   0.00001   0.00000   0.00013   0.00012  -0.00101
   D23        0.00049  -0.00001   0.00000  -0.00031  -0.00033   0.00017
   D24        3.14060   0.00001   0.00000   0.00002   0.00001   3.14062
   D25        0.00005  -0.00001   0.00000  -0.00008  -0.00008  -0.00003
   D26       -3.14151  -0.00000   0.00000  -0.00001  -0.00001  -3.14152
   D27        3.14150  -0.00001   0.00000  -0.00007  -0.00007   3.14143
   D28       -0.00007  -0.00000   0.00000   0.00000   0.00001  -0.00006
   D29       -0.00041   0.00001   0.00000   0.00013   0.00014  -0.00027
   D30        3.14139  -0.00000   0.00000  -0.00006  -0.00006   3.14133
   D31        3.14132   0.00001   0.00000   0.00012   0.00012   3.14144
   D32       -0.00006  -0.00000   0.00000  -0.00008  -0.00008  -0.00014
   D33       -0.00077   0.00003   0.00000   0.00045   0.00044  -0.00033
   D34        3.14133   0.00001   0.00000   0.00024   0.00024   3.14157
   D35       -3.14089   0.00001   0.00000   0.00011   0.00010  -3.14079
   D36        0.00121  -0.00000   0.00000  -0.00010  -0.00010   0.00111
   D37        0.00072  -0.00002   0.00000  -0.00036  -0.00035   0.00037
   D38       -3.14144  -0.00001   0.00000  -0.00013  -0.00013  -3.14158
   D39       -3.14107  -0.00001   0.00000  -0.00016  -0.00016  -3.14123
   D40       -0.00005   0.00000   0.00000   0.00006   0.00006   0.00001
         Item               Value     Threshold  Converged?
 Maximum Force            0.053085     0.000450     NO 
 RMS     Force            0.012153     0.000300     NO 
 Maximum Displacement     0.164763     0.001800     NO 
 RMS     Displacement     0.041943     0.001200     NO 
 Predicted change in Energy=-1.410018D-02
 GradGradGradGradGradGradGradGradGradGradGradGradGradGradGradGradGradGrad

                          Input orientation:                          
 ---------------------------------------------------------------------
 Center     Atomic      Atomic             Coordinates (Angstroms)
 Number     Number       Type             X           Y           Z
 ---------------------------------------------------------------------
      1          6           0       -2.205523    0.690360    0.000064
      2          6           0       -2.175532   -0.712070    0.000010
      3          6           0       -0.932472   -1.438522   -0.000018
      4          6           0        0.249453   -0.654020   -0.000010
      5          6           0        0.240501    0.755093    0.000050
      6          6           0       -1.005265    1.463522    0.000105
      7          7           0        1.600282   -1.062027   -0.000099
      8          6           0        1.637310    1.157719   -0.000104
      9          6           0        2.458282    0.003058    0.000113
     10          1           0        1.908621   -2.033397    0.000666
     11          1           0        2.010388    2.181859   -0.000342
     12          1           0        3.539738   -0.123613    0.000105
     13          1           0       -3.120611   -1.263692   -0.000022
     14          1           0       -0.901336   -2.532849   -0.000100
     15          1           0       -3.175120    1.198043    0.000036
     16          1           0       -1.031814    2.557983    0.000080
 ---------------------------------------------------------------------
                    Distance matrix (angstroms):
                    1          2          3          4          5
     1  C    0.000000
     2  C    1.402751   0.000000
     3  C    2.480483   1.439767   0.000000
     4  C    2.798975   2.425679   1.418588   0.000000
     5  C    2.446880   2.826621   2.487532   1.409142   0.000000
     6  C    1.427725   2.470370   2.902957   2.461362   1.433110
     7  N    4.189870   3.791997   2.560585   1.411102   2.269566
     8  C    3.871149   4.246631   3.652979   2.282225   1.453679
     9  C    4.714176   4.688671   3.684477   2.304491   2.341817
    10  H    4.934068   4.292576   2.902703   2.157665   3.249353
    11  H    4.471965   5.088885   4.665574   3.338128   2.273358
    12  H    5.802635   5.745484   4.661507   3.332763   3.414247
    13  H    2.157709   1.094286   2.195112   3.424767   3.920787
    14  H    3.477065   2.222344   1.094770   2.203250   3.480568
    15  H    1.094468   2.155855   3.461350   3.893307   3.444223
    16  H    2.205813   3.464295   3.997740   3.458122   2.206626
                    6          7          8          9         10
     6  C    0.000000
     7  N    3.628674   0.000000
     8  C    2.660210   2.220055   0.000000
     9  C    3.758870   1.367687   1.416769   0.000000
    10  H    4.551832   1.019133   3.202629   2.109331   0.000000
    11  H    3.100027   3.269706   1.089976   2.224361   4.216484
    12  H    4.814151   2.154555   2.293696   1.088849   2.511537
    13  H    3.451433   4.725199   5.338637   5.720900   5.087791
    14  H    3.997723   2.901967   4.479399   4.209258   2.853998
    15  H    2.186035   5.283217   4.812599   5.758750   6.023838
    16  H    1.094783   4.475757   3.014127   4.325321   5.452240
                   11         12         13         14         15
    11  H    0.000000
    12  H    2.766607   0.000000
    13  H    6.180531   6.757220   0.000000
    14  H    5.541354   5.052480   2.556549   0.000000
    15  H    5.278009   6.843690   2.462339   4.369171   0.000000
    16  H    3.065364   5.300004   4.355259   5.092504   2.538345
                   16
    16  H    0.000000
 Stoichiometry    C8H7N
 Framework group  C1[X(C8H7N)]
 Deg. of freedom    42
 Full point group                 C1      NOp   1
 Largest Abelian subgroup         C1      NOp   1
 Largest concise Abelian subgroup C1      NOp   1
                         Standard orientation:                         
 ---------------------------------------------------------------------
 Center     Atomic      Atomic             Coordinates (Angstroms)
 Number     Number       Type             X           Y           Z
 ---------------------------------------------------------------------
      1          6           0       -2.213448    0.663884    0.000048
      2          6           0       -2.168100   -0.738133   -0.000006
      3          6           0       -0.917159   -1.450928   -0.000034
      4          6           0        0.256104   -0.653529   -0.000026
      5          6           0        0.231720    0.755402    0.000034
      6          6           0       -1.021730    1.450145    0.000089
      7          7           0        1.611320   -1.046716   -0.000115
      8          6           0        1.624036    1.173302   -0.000120
      9          6           0        2.457603    0.027702    0.000097
     10          1           0        1.930279   -2.014651    0.000650
     11          1           0        1.985874    2.201466   -0.000358
     12          1           0        3.540382   -0.087118    0.000089
     13          1           0       -3.107081   -1.300073   -0.000038
     14          1           0       -0.874039   -2.544848   -0.000116
     15          1           0       -3.188548    1.160918    0.000020
     16          1           0       -1.060264    2.544250    0.000064
 ---------------------------------------------------------------------
 Rotational constants (GHZ):           3.8501237           1.5696304           1.1150453
 Standard basis: 6-31+G(d) (6D, 7F)
 There are   185 symmetry adapted cartesian basis functions of A   symmetry.
 There are   185 symmetry adapted basis functions of A   symmetry.
   185 basis functions,   316 primitive gaussians,   185 cartesian basis functions
    31 alpha electrons       31 beta electrons
       nuclear repulsion energy       394.8397266908 Hartrees.
 NAtoms=   16 NActive=   16 NUniq=   16 SFac= 1.00D+00 NAtFMM=   60 NAOKFM=F Big=F
 Integral buffers will be    131072 words long.
 Regular integral format.
 Two-electron integral symmetry is turned on.
 One-electron integrals computed using PRISM.
 NBasis=   185 RedAO= T EigKep=  1.44D-06  NBF=   185
 NBsUse=   185 1.00D-06 EigRej= -1.00D+00 NBFU=   185
 Initial guess from the checkpoint file:  "FuncsPBEPBE-V-1st.chk"
 B after Tr=     0.000000   -0.000000    0.000000
         Rot=    0.999985    0.000000    0.000004   -0.005567 Ang=   0.64 deg.
 ExpMin= 4.38D-02 ExpMax= 4.17D+03 ExpMxC= 6.27D+02 IAcc=3 IRadAn=         5 AccDes= 0.00D+00
 Harris functional with IExCor= 1009 and IRadAn=       5 diagonalized for initial guess.
 HarFok:  IExCor= 1009 AccDes= 0.00D+00 IRadAn=         5 IDoV= 1 UseB2=F ITyADJ=14
 ICtDFT=  3500011 ScaDFX=  1.000000  1.000000  1.000000  1.000000
 FoFCou: FMM=F IPFlag=           0 FMFlag=      100000 FMFlg1=           0
         NFxFlg=           0 DoJE=T BraDBF=F KetDBF=T FulRan=T
         wScrn=  0.000000 ICntrl=       500 IOpCl=  0 I1Cent=   200000004 NGrid=           0
         NMat0=    1 NMatS0=      1 NMatT0=    0 NMatD0=    1 NMtDS0=    0 NMtDT0=    0
 Petite list used in FoFCou.
 Keep J ints in memory in canonical form, NReq=152071459.
 Requested convergence on RMS density matrix=1.00D-08 within 128 cycles.
 Requested convergence on MAX density matrix=1.00D-06.
 Requested convergence on             energy=1.00D-06.
 No special actions if energy rises.
 SCF Done:  E(RPBE-PBE) =  -363.365840871     A.U. after   13 cycles
            NFock= 13  Conv=0.52D-08     -V/T= 2.0110
 DoSCS=F DFT=T ScalE2(SS,OS)=  1.000000  1.000000
 ExpMin= 4.38D-02 ExpMax= 4.17D+03 ExpMxC= 6.27D+02 IAcc=3 IRadAn=         5 AccDes= 0.00D+00
 HarFok:  IExCor=  205 AccDes= 0.00D+00 IRadAn=         5 IDoV=-2 UseB2=F ITyADJ=14
 ICtDFT= 12500011 ScaDFX=  1.000000  1.000000  1.000000  1.000000
 Range of M.O.s used for correlation:    10   185
 NBasis=   185 NAE=    31 NBE=    31 NFC=     9 NFV=     0
 NROrb=    176 NOA=    22 NOB=    22 NVA=   154 NVB=   154

 **** Warning!!: The largest alpha MO coefficient is  0.18646880D+03

 Keep J ints in memory in canonical form, NReq=156218803.
 Orbital symmetries:
       Occupied  (A) (A) (A) (A) (A) (A) (A) (A) (A) (A) (A) (A)
                 (A) (A) (A) (A) (A) (A) (A) (A) (A) (A) (A) (A)
                 (A) (A) (A) (A) (A) (A) (A)
       Virtual   (A) (A) (A) (A) (A) (A) (A) (A) (A) (A) (A) (A)
                 (A) (A) (A) (A) (A) (A) (A) (A) (A) (A) (A) (A)
                 (A) (A) (A) (A) (A) (A) (A) (A) (A) (A) (A) (A)
                 (A) (A) (A) (A) (A) (A) (A) (A) (A) (A) (A) (A)
                 (A) (A) (A) (A) (A) (A) (A) (A) (A) (A) (A) (A)
                 (A) (A) (A) (A) (A) (A) (A) (A) (A) (A) (A) (A)
                 (A) (A) (A) (A) (A) (A) (A) (A) (A) (A) (A) (A)
                 (A) (A) (A) (A) (A) (A) (A) (A) (A) (A) (A) (A)
                 (A) (A) (A) (A) (A) (A) (A) (A) (A) (A) (A) (A)
                 (A) (A) (A) (A) (A) (A) (A) (A) (A) (A) (A) (A)
                 (A) (A) (A) (A) (A) (A) (A) (A) (A) (A) (A) (A)
                 (A) (A) (A) (A) (A) (A) (A) (A) (A) (A) (A) (A)
                 (A) (A) (A) (A) (A) (A) (A) (A) (A) (A)
 Generating guess from densities on rwf.
 Convergence on wavefunction:    0.000001000000000
 Iteration     1 Dimension     6 NMult     0 NNew      6
 CISAX will form     6 AO SS matrices at one time.
 New state      2 was old state      3
 New state      3 was old state      2
 New state      4 was old state      5
 New state      5 was old state      4
 Iteration     2 Dimension    12 NMult     6 NNew      6
 New state      2 was old state      3
 New state      3 was old state      2
 Iteration     3 Dimension    18 NMult    12 NNew      6
 Iteration     4 Dimension    24 NMult    18 NNew      6
 Iteration     5 Dimension    30 NMult    24 NNew      6
 Iteration     6 Dimension    36 NMult    30 NNew      6
 Iteration     7 Dimension    42 NMult    36 NNew      6
 Iteration     8 Dimension    48 NMult    42 NNew      6
 Iteration     9 Dimension    54 NMult    48 NNew      6
 Iteration    10 Dimension    60 NMult    54 NNew      6
 Iteration    11 Dimension    66 NMult    60 NNew      6
 Iteration    12 Dimension    72 NMult    66 NNew      6
 Iteration    13 Dimension    78 NMult    72 NNew      6
 Iteration    14 Dimension    84 NMult    78 NNew      6
 Iteration    15 Dimension    90 NMult    84 NNew      6
 Iteration    16 Dimension    96 NMult    90 NNew      6
 Iteration    17 Dimension   102 NMult    96 NNew      6
 Iteration    18 Dimension   108 NMult   102 NNew      6
 Iteration    19 Dimension   114 NMult   108 NNew      6
 Iteration    20 Dimension   119 NMult   114 NNew      5
 Iteration    21 Dimension   124 NMult   119 NNew      5
 Iteration    22 Dimension   129 NMult   124 NNew      5
 Iteration    23 Dimension   134 NMult   129 NNew      5
 Iteration    24 Dimension   138 NMult   134 NNew      4
 Iteration    25 Dimension   142 NMult   138 NNew      4
 Iteration    26 Dimension   147 NMult   142 NNew      5
 Iteration    27 Dimension   152 NMult   147 NNew      5
 Iteration    28 Dimension   156 NMult   152 NNew      4
 Iteration    29 Dimension   160 NMult   156 NNew      4
 Iteration    30 Dimension   164 NMult   160 NNew      4
 Iteration    31 Dimension   167 NMult   164 NNew      3
 Iteration    32 Dimension   170 NMult   167 NNew      3
 Iteration    33 Dimension   172 NMult   170 NNew      2
 Iteration    34 Dimension   174 NMult   172 NNew      2
 Iteration    35 Dimension   176 NMult   174 NNew      2
 Iteration    36 Dimension   178 NMult   176 NNew      2
 Iteration    37 Dimension   180 NMult   178 NNew      2
 Iteration    38 Dimension   181 NMult   180 NNew      1
 Iteration    39 Dimension   182 NMult   181 NNew      1
 Iteration    40 Dimension   183 NMult   182 NNew      1
 Iteration    41 Dimension   184 NMult   183 NNew      1
 Iteration    42 Dimension   185 NMult   184 NNew      1
 Iteration    43 Dimension   186 NMult   185 NNew      1
 Iteration    44 Dimension   187 NMult   186 NNew      1
 Iteration    45 Dimension   188 NMult   187 NNew      1
 Iteration    46 Dimension   189 NMult   188 NNew      1
 Iteration    47 Dimension   190 NMult   189 NNew      1
 Iteration    48 Dimension   192 NMult   190 NNew      2
 Iteration    49 Dimension   194 NMult   192 NNew      2
 Iteration    50 Dimension   195 NMult   194 NNew      1
 Iteration    51 Dimension   196 NMult   195 NNew      1
 Iteration    52 Dimension   197 NMult   196 NNew      1
 Iteration    53 Dimension   198 NMult   197 NNew      1
 Iteration    54 Dimension   199 NMult   198 NNew      1
 Iteration    55 Dimension   200 NMult   199 NNew      1
 Iteration    56 Dimension   201 NMult   200 NNew      1
 Iteration    57 Dimension   203 NMult   201 NNew      2
 Iteration    58 Dimension   204 NMult   203 NNew      1
 Iteration    59 Dimension   205 NMult   204 NNew      1
 Iteration    60 Dimension   206 NMult   205 NNew      1
 Iteration    61 Dimension   207 NMult   206 NNew      1
 Iteration    62 Dimension   208 NMult   207 NNew      1
 Iteration    63 Dimension   210 NMult   208 NNew      2
 Iteration    64 Dimension   212 NMult   210 NNew      2
 Iteration    65 Dimension   213 NMult   212 NNew      1
 Iteration    66 Dimension   214 NMult   213 NNew      1
 Iteration    67 Dimension   215 NMult   214 NNew      1
 Iteration    68 Dimension   216 NMult   215 NNew      1
 Iteration    69 Dimension   217 NMult   216 NNew      1
 Iteration    70 Dimension   218 NMult   217 NNew      1
 Iteration    71 Dimension   219 NMult   218 NNew      1
 Iteration    72 Dimension   220 NMult   219 NNew      1
 Iteration    73 Dimension   221 NMult   220 NNew      1
 Iteration    74 Dimension   222 NMult   221 NNew      1
 Iteration    75 Dimension   223 NMult   222 NNew      1
 Iteration    76 Dimension   224 NMult   223 NNew      1
 Iteration    77 Dimension   225 NMult   224 NNew      1
 Iteration    78 Dimension   226 NMult   225 NNew      1
 Iteration    79 Dimension   227 NMult   226 NNew      1
 Iteration    80 Dimension   228 NMult   227 NNew      1
 Iteration    81 Dimension   229 NMult   228 NNew      1
 Iteration    82 Dimension   230 NMult   229 NNew      1
 Iteration    83 Dimension   231 NMult   230 NNew      1
 Iteration    84 Dimension   232 NMult   231 NNew      1
 Iteration    85 Dimension   233 NMult   232 NNew      1
 Iteration    86 Dimension   235 NMult   233 NNew      2
 Iteration    87 Dimension   236 NMult   235 NNew      1
 Iteration    88 Dimension   237 NMult   236 NNew      1
 Iteration    89 Dimension   238 NMult   237 NNew      1
 Iteration    90 Dimension   239 NMult   238 NNew      1
 Iteration    91 Dimension   240 NMult   239 NNew      1
 Iteration    92 Dimension   241 NMult   240 NNew      1
 Iteration    93 Dimension   242 NMult   241 NNew      1
 Iteration    94 Dimension   243 NMult   242 NNew      1
 Iteration    95 Dimension   244 NMult   243 NNew      1
 Iteration    96 Dimension   245 NMult   244 NNew      1
 Iteration    97 Dimension   246 NMult   245 NNew      1
 Iteration    98 Dimension   247 NMult   246 NNew      1
 Iteration    99 Dimension   248 NMult   247 NNew      1
 Iteration   100 Dimension   249 NMult   248 NNew      1
 Iteration   101 Dimension   250 NMult   249 NNew      1
 Iteration   102 Dimension   251 NMult   250 NNew      1
 Iteration   103 Dimension   252 NMult   251 NNew      1
 Iteration   104 Dimension   253 NMult   252 NNew      1
 Iteration   105 Dimension   254 NMult   253 NNew      1
 Iteration   106 Dimension   255 NMult   254 NNew      1
 Iteration   107 Dimension   256 NMult   255 NNew      1
 Iteration   108 Dimension   257 NMult   256 NNew      1
 Iteration   109 Dimension   258 NMult   257 NNew      1
 Iteration   110 Dimension   259 NMult   258 NNew      1
 Iteration   111 Dimension   260 NMult   259 NNew      1
 Iteration   112 Dimension   261 NMult   260 NNew      1
 Iteration   113 Dimension   262 NMult   261 NNew      1
 Iteration   114 Dimension   263 NMult   262 NNew      1
 Iteration   115 Dimension   264 NMult   263 NNew      1
 Iteration   116 Dimension   265 NMult   264 NNew      1
 Iteration   117 Dimension   266 NMult   265 NNew      1
 Iteration   118 Dimension   267 NMult   266 NNew      1
 Iteration   119 Dimension   268 NMult   267 NNew      1
 Iteration   120 Dimension   269 NMult   268 NNew      1
 Iteration   121 Dimension   270 NMult   269 NNew      1
 Iteration   122 Dimension   272 NMult   270 NNew      2
 Iteration   123 Dimension   274 NMult   272 NNew      2
 Iteration   124 Dimension   275 NMult   274 NNew      1
 Iteration   125 Dimension   276 NMult   275 NNew      1
 Iteration   126 Dimension   277 NMult   276 NNew      1
 Iteration   127 Dimension   278 NMult   277 NNew      1
 Iteration   128 Dimension   279 NMult   278 NNew      1
 Iteration   129 Dimension   280 NMult   279 NNew      1
 Iteration   130 Dimension   281 NMult   280 NNew      1
 Iteration   131 Dimension   282 NMult   281 NNew      1
 Iteration   132 Dimension   283 NMult   282 NNew      1
 Iteration   133 Dimension   284 NMult   283 NNew      1
 Iteration   134 Dimension   285 NMult   284 NNew      1
 Iteration   135 Dimension   286 NMult   285 NNew      1
 Iteration   136 Dimension   287 NMult   286 NNew      1
 Iteration   137 Dimension   288 NMult   287 NNew      1
 Iteration   138 Dimension   289 NMult   288 NNew      1
 Iteration   139 Dimension   290 NMult   289 NNew      1
 Iteration   140 Dimension   291 NMult   290 NNew      1
 Iteration   141 Dimension   292 NMult   291 NNew      1
 Iteration   142 Dimension   293 NMult   292 NNew      1
 Iteration   143 Dimension   294 NMult   293 NNew      1
 Iteration   144 Dimension   295 NMult   294 NNew      1
 Iteration   145 Dimension   296 NMult   295 NNew      1
 Iteration   146 Dimension   297 NMult   296 NNew      1
 Iteration   147 Dimension   298 NMult   297 NNew      1
 ***********************************************************************
 Excited states from <AA,BB:AA,BB> singles matrix:
 ***********************************************************************
 
 Ground to excited state transition densities written to RWF  633
 Ground to excited state transition electric dipole moments (Au):
       state          X           Y           Z        Dip. S.      Osc.
         1        -0.5261      0.5364     -0.0001      0.5645      0.0543
         2         0.0003     -0.0003     -0.1033      0.0107      0.0011
         3        -0.1678     -0.1574      0.0000      0.0529      0.0058
         4        -0.0003      0.0000     -0.0080      0.0001      0.0000
         5        -0.0001     -0.0001     -0.1073      0.0115      0.0014
         6        -0.0004     -0.0000     -0.1140      0.0130      0.0016
 Ground to excited state transition velocity dipole moments (Au):
       state          X           Y           Z        Dip. S.      Osc.
         1         0.0674     -0.0860      0.0000      0.0119      0.0551
         2        -0.0000      0.0001      0.0084      0.0001      0.0003
         3         0.0256      0.0278      0.0000      0.0014      0.0058
         4         0.0001     -0.0000     -0.0001      0.0000      0.0000
         5         0.0000      0.0000      0.0196      0.0004      0.0014
         6         0.0001      0.0000      0.0234      0.0005      0.0019
 Ground to excited state transition magnetic dipole moments (Au):
       state          X           Y           Z
         1         0.0001     -0.0000      0.2090
         2         0.1291     -0.0406      0.0002
         3        -0.0001     -0.0001      0.0746
         4        -0.2618      0.0750     -0.0001
         5        -0.0331     -0.3113     -0.0002
         6         0.0165     -0.1917     -0.0000
 Ground to excited state transition velocity quadrupole moments (Au):
       state          XX          YY          ZZ          XY          XZ          YZ
         1         0.1316     -0.0856      0.0086      0.0709      0.0000      0.0000
         2        -0.0001      0.0000      0.0001      0.0001      0.0334      0.0554
         3         0.0075     -0.0569      0.0210      0.0101      0.0000     -0.0000
         4         0.0001      0.0001     -0.0000     -0.0001     -0.0970     -0.1853
         5        -0.0001      0.0001     -0.0000     -0.0001      0.2835      0.0372
         6         0.0000     -0.0000     -0.0000     -0.0000      0.1205     -0.0354
 <0|del|b> * <b|rxdel|0> + <0|del|b> * <b|delr+rdel|0>
 Rotatory Strengths (R) in cgs (10**-40 erg-esu-cm/Gauss)
       state          XX          YY          ZZ    R(velocity)    E-M Angle
         1         0.0106      0.0215      0.0114      0.0145       90.00
         2        -0.0050     -0.0130     -0.0069     -0.0083       90.00
         3        -0.0052     -0.0072     -0.0076     -0.0067       90.00
         4        -0.0003     -0.0469     -0.0080     -0.0184       90.00
         5        -0.0223     -0.0032     -0.0024     -0.0093       90.00
         6        -0.0019     -0.0038      0.0084      0.0009       90.00
 1/2[<0|r|b>*<b|rxdel|0> + (<0|rxdel|b>*<b|r|0>)*]
 Rotatory Strengths (R) in cgs (10**-40 erg-esu-cm/Gauss)
       state          XX          YY          ZZ     R(length)
         1         0.0432      0.0033      0.0074      0.0180
         2        -0.0266     -0.0095      0.0127     -0.0078
         3        -0.0133     -0.0087     -0.0001     -0.0074
         4        -0.0585     -0.0007     -0.0008     -0.0200
         5        -0.0019     -0.0235     -0.0119     -0.0124
         6         0.0052     -0.0003     -0.0013      0.0012
  1/2[<0|del|b>*<b|r|0> + (<0|r|b>*<b|del|0>)*] (Au)
       state          X           Y           Z        Dip. S.   Osc.(frdel)
         1        -0.0355     -0.0461     -0.0000      0.0816      0.0544
         2        -0.0000     -0.0000     -0.0009      0.0009      0.0006
         3        -0.0043     -0.0044      0.0000      0.0087      0.0058
         4        -0.0000     -0.0000      0.0000     -0.0000     -0.0000
         5        -0.0000     -0.0000     -0.0021      0.0021      0.0014
         6        -0.0000     -0.0000     -0.0027      0.0027      0.0018

 Excitation energies and oscillator strengths:
 
 Excited State   1:      Singlet-A      3.9300 eV  315.48 nm  f=0.0543  <S**2>=0.000
      29 -> 32         0.15522
      31 -> 32         0.66882
 This state for optimization and/or second-order correction.
 Total Energy, E(TD-HF/TD-DFT) =  -363.221415250    
 Copying the excited state density for this state as the 1-particle RhoCI density.
 
 Excited State   2:      Singlet-A      4.3531 eV  284.82 nm  f=0.0011  <S**2>=0.000
      31 -> 33         0.70693
 
 Excited State   3:      Singlet-A      4.4999 eV  275.53 nm  f=0.0058  <S**2>=0.000
      30 -> 32         0.52966
      31 -> 34        -0.45963
 
 Excited State   4:      Singlet-A      4.8995 eV  253.06 nm  f=0.0000  <S**2>=0.000
      31 -> 35         0.70691
 
 Excited State   5:      Singlet-A      5.1081 eV  242.72 nm  f=0.0014  <S**2>=0.000
      31 -> 36         0.70649
 
 Excited State   6:      Singlet-A      5.1629 eV  240.15 nm  f=0.0016  <S**2>=0.000
      30 -> 33         0.70653
 SavETr:  write IOETrn=   770 NScale= 10 NData=  16 NLR=1 NState=    6 LETran=     118.
          IDoAtm=1111111111111111
          Differentiating once with respect to electric field.
                with respect to dipole field.
          Differentiating once with respect to nuclear coordinates.
 Keep J ints in memory in canonical form, NReq=152083851.
          There are     1 degrees of freedom in the 1st order CPHF.  IDoFFX=0 NUNeed=     1.
 LinEq1:  Iter=  0 NonCon=     1 RMS=2.76D-02 Max=9.89D-01 NDo=     1
 AX will form     1 AO Fock derivatives at one time.
 LinEq1:  Iter=  1 NonCon=     1 RMS=1.28D-02 Max=3.15D-01 NDo=     1
 LinEq1:  Iter=  2 NonCon=     1 RMS=1.57D-02 Max=6.47D-01 NDo=     1
 LinEq1:  Iter=  3 NonCon=     1 RMS=8.53D-03 Max=2.06D-01 NDo=     1
 LinEq1:  Iter=  4 NonCon=     1 RMS=1.07D-02 Max=2.86D-01 NDo=     1
 LinEq1:  Iter=  5 NonCon=     1 RMS=4.71D-03 Max=1.23D-01 NDo=     1
 LinEq1:  Iter=  6 NonCon=     1 RMS=3.17D-03 Max=5.23D-02 NDo=     1
 LinEq1:  Iter=  7 NonCon=     1 RMS=1.53D-03 Max=3.29D-02 NDo=     1
 LinEq1:  Iter=  8 NonCon=     1 RMS=8.13D-04 Max=1.19D-02 NDo=     1
 LinEq1:  Iter=  9 NonCon=     1 RMS=4.86D-04 Max=6.25D-03 NDo=     1
 LinEq1:  Iter= 10 NonCon=     1 RMS=2.45D-04 Max=5.58D-03 NDo=     1
 LinEq1:  Iter= 11 NonCon=     1 RMS=2.36D-04 Max=5.74D-03 NDo=     1
 LinEq1:  Iter= 12 NonCon=     1 RMS=1.21D-04 Max=2.67D-03 NDo=     1
 LinEq1:  Iter= 13 NonCon=     1 RMS=9.52D-05 Max=1.96D-03 NDo=     1
 LinEq1:  Iter= 14 NonCon=     1 RMS=1.92D-05 Max=1.79D-04 NDo=     1
 LinEq1:  Iter= 15 NonCon=     1 RMS=4.48D-06 Max=1.07D-04 NDo=     1
 LinEq1:  Iter= 16 NonCon=     1 RMS=3.49D-06 Max=8.05D-05 NDo=     1
 LinEq1:  Iter= 17 NonCon=     1 RMS=7.95D-07 Max=9.12D-06 NDo=     1
 LinEq1:  Iter= 18 NonCon=     1 RMS=1.64D-07 Max=1.71D-06 NDo=     1
 LinEq1:  Iter= 19 NonCon=     1 RMS=2.93D-08 Max=2.81D-07 NDo=     1
 LinEq1:  Iter= 20 NonCon=     1 RMS=8.84D-09 Max=1.17D-07 NDo=     1
 LinEq1:  Iter= 21 NonCon=     1 RMS=2.96D-09 Max=2.65D-08 NDo=     1
 LinEq1:  Iter= 22 NonCon=     1 RMS=5.20D-10 Max=4.68D-09 NDo=     1
 LinEq1:  Iter= 23 NonCon=     0 RMS=7.43D-11 Max=7.99D-10 NDo=     1
 Linear equations converged to 1.000D-10 1.000D-09 after    23 iterations.
 End of Minotr F.D. properties file   721 does not exist.
 End of Minotr F.D. properties file   722 does not exist.
 End of Minotr F.D. properties file   788 does not exist.
 Calling FoFJK, ICntrl=  10005527 FMM=F ISym2X=0 I1Cent= 0 IOpClX= 0 NMat=1 NMatS=1 NMatT=0.
 ***** Axes restored to original set *****
 -------------------------------------------------------------------
 Center     Atomic                   Forces (Hartrees/Bohr)
 Number     Number              X              Y              Z
 -------------------------------------------------------------------
      1        6          -0.001245713   -0.012010344   -0.000004702
      2        6           0.000308594    0.012089041    0.000000948
      3        6           0.001947933   -0.014472211   -0.000006124
      4        6          -0.010095981    0.017903850    0.000004241
      5        6          -0.000327346   -0.014545710   -0.000008745
      6        6           0.004501265    0.011680158    0.000000874
      7        7           0.015493282    0.005541640    0.000033967
      8        6          -0.006963000    0.012452442    0.000005744
      9        6          -0.002504991   -0.018199090   -0.000020563
     10        1          -0.000665250   -0.001689943   -0.000011676
     11        1           0.000867548    0.000944502    0.000002191
     12        1          -0.000883498    0.000709172    0.000001599
     13        1           0.000245736   -0.001320132    0.000000270
     14        1          -0.000790564    0.000896227   -0.000001578
     15        1           0.000029140    0.000969091    0.000000934
     16        1           0.000082846   -0.000948693    0.000002619
 -------------------------------------------------------------------
 Cartesian Forces:  Max     0.018199090 RMS     0.006644571

 GradGradGradGradGradGradGradGradGradGradGradGradGradGradGradGradGradGrad
 Berny optimization.
 Using GEDIIS/GDIIS optimizer.
 FormGI is forming the generalized inverse of G from B-inverse, IUseBI=4.
 Internal  Forces:  Max     0.010749652 RMS     0.002708301
 Search for a local minimum.
 Step number   2 out of a maximum of   94
 All quantities printed in internal units (Hartrees-Bohrs-Radians)
 Mixed Optimization -- RFO/linear search
 Update second derivatives using D2CorX and points    1    2
 DE= -1.45D-02 DEPred=-1.41D-02 R= 1.03D+00
 TightC=F SS=  1.41D+00  RLast= 2.47D-01 DXNew= 5.0454D-01 7.4032D-01
 Trust test= 1.03D+00 RLast= 2.47D-01 DXMaxT set to 5.05D-01
 ITU=  1  0
 Use linear search instead of GDIIS.
     Eigenvalues ---    0.01852   0.01931   0.01986   0.02011   0.02069
     Eigenvalues ---    0.02113   0.02146   0.02150   0.02172   0.02209
     Eigenvalues ---    0.02233   0.02248   0.02341   0.15981   0.16000
     Eigenvalues ---    0.16000   0.16000   0.16000   0.16000   0.16020
     Eigenvalues ---    0.20693   0.22003   0.23638   0.24178   0.24669
[...]
 ! D9    D(1,2,3,4)             -0.0004         -DE/DX =    0.0                 !
 ! D10   D(1,2,3,14)          -179.9858         -DE/DX =    0.0                 !
 ! D11   D(13,2,3,4)           179.9934         -DE/DX =    0.0                 !
 ! D12   D(13,2,3,14)            0.008          -DE/DX =    0.0                 !
 ! D13   D(2,3,4,5)              0.0054         -DE/DX =    0.0                 !
 ! D14   D(2,3,4,7)           -179.9893         -DE/DX =    0.0                 !
 ! D15   D(14,3,4,5)           179.9907         -DE/DX =    0.0                 !
 ! D16   D(14,3,4,7)            -0.0041         -DE/DX =    0.0                 !
 ! D17   D(3,4,5,6)             -0.0078         -DE/DX =    0.0                 !
 ! D18   D(3,4,5,8)           -180.0127         -DE/DX =    0.0                 !
 ! D19   D(7,4,5,6)           -180.0121         -DE/DX =    0.0                 !
 ! D20   D(7,4,5,8)             -0.017          -DE/DX =    0.0                 !
 ! D21   D(3,4,7,9)            180.0142         -DE/DX =    0.0                 !
 ! D22   D(3,4,7,10)            -0.0067         -DE/DX =    0.0                 !
 ! D23   D(5,4,7,9)              0.0187         -DE/DX =    0.0                 !
 ! D24   D(5,4,7,10)           179.9978         -DE/DX =    0.0                 !
 ! D25   D(4,5,6,1)              0.0045         -DE/DX =    0.0                 !
 ! D26   D(4,5,6,16)           179.9959         -DE/DX =    0.0                 !
 ! D27   D(8,5,6,1)            180.0108         -DE/DX =    0.0                 !
 ! D28   D(8,5,6,16)             0.0023         -DE/DX =    0.0                 !
 ! D29   D(4,5,8,9)              0.0105         -DE/DX =    0.0                 !
 ! D30   D(4,5,8,11)           180.0067         -DE/DX =    0.0                 !
 ! D31   D(6,5,8,9)            180.0049         -DE/DX =    0.0                 !
 ! D32   D(6,5,8,11)             0.0011         -DE/DX =    0.0                 !
 ! D33   D(4,7,9,8)             -0.0117         -DE/DX =    0.0                 !
 ! D34   D(4,7,9,12)           179.9871         -DE/DX =    0.0                 !
 ! D35   D(10,7,9,8)          -179.9906         -DE/DX =    0.0                 !
 ! D36   D(10,7,9,12)            0.0081         -DE/DX =    0.0                 !
 ! D37   D(5,8,9,7)              0.0007         -DE/DX =    0.0                 !
 ! D38   D(5,8,9,12)          -179.9979         -DE/DX =    0.0                 !
 ! D39   D(11,8,9,7)           180.0044         -DE/DX =    0.0                 !
 ! D40   D(11,8,9,12)            0.0057         -DE/DX =    0.0                 !
 --------------------------------------------------------------------------------
 GradGradGradGradGradGradGradGradGradGradGradGradGradGradGradGradGradGrad

                          Input orientation:                          
 ---------------------------------------------------------------------
 Center     Atomic      Atomic             Coordinates (Angstroms)
 Number     Number       Type             X           Y           Z
 ---------------------------------------------------------------------
      1          6           0       -2.193540    0.687767   -0.000061
      2          6           0       -2.159360   -0.707599    0.000151
      3          6           0       -0.932756   -1.465790    0.000233
      4          6           0        0.235659   -0.645168    0.000065
      5          6           0        0.228906    0.747318   -0.000048
      6          6           0       -0.998815    1.486021   -0.000169
      7          7           0        1.608780   -1.059916   -0.000123
      8          6           0        1.624919    1.165403    0.000106
      9          6           0        2.448501   -0.008262    0.000062
     10          1           0        1.903944   -2.036654   -0.000059
     11          1           0        2.004201    2.188353    0.000178
     12          1           0        3.531230   -0.117443    0.000171
     13          1           0       -3.107375   -1.257955    0.000158
     14          1           0       -0.909611   -2.556748    0.000172
     15          1           0       -3.166895    1.190610   -0.000106
     16          1           0       -1.020886    2.577509   -0.000193
 ---------------------------------------------------------------------
                    Distance matrix (angstroms):
                    1          2          3          4          5
     1  C    0.000000
     2  C    1.395784   0.000000
     3  C    2.495473   1.442017   0.000000
     4  C    2.770871   2.395833   1.427800   0.000000
     5  C    2.423178   2.796533   2.499461   1.392502   0.000000
     6  C    1.436864   2.481699   2.952550   2.462904   1.432823
     7  N    4.184738   3.784575   2.573740   1.434390   2.273796
     8  C    3.848216   4.222429   3.669452   2.282150   1.457274
     9  C    4.693932   4.660628   3.682022   2.302676   2.344675
    10  H    4.920553   4.275141   2.893571   2.172420   3.249039
    11  H    4.457891   5.071664   4.688121   3.340147   2.286538
    12  H    5.781121   5.721110   4.663176   3.337556   3.413672
    13  H    2.149635   1.096186   2.184528   3.398733   3.892543
    14  H    3.489320   2.231867   1.091204   2.228404   3.494721
    15  H    1.095569   2.149029   3.471000   3.866194   3.424614
    16  H    2.224015   3.476788   4.044259   3.458982   2.216209
                    6          7          8          9         10
     6  C    0.000000
     7  N    3.644358   0.000000
     8  C    2.643251   2.225378   0.000000
     9  C    3.757242   1.345774   1.433798   0.000000
    10  H    4.564565   1.020362   3.214191   2.100218   0.000000
    11  H    3.084052   3.272249   1.091001   2.241099   4.226197
    12  H    4.805456   2.141045   2.297763   1.088220   2.516234
    13  H    3.460553   4.720310   5.316697   5.694689   5.071458
    14  H    4.043754   2.929641   4.503138   4.215649   2.861221
    15  H    2.188113   5.279388   4.791881   5.741948   6.010711
    16  H    1.091711   4.488430   2.999055   4.326992   5.463070
                   11         12         13         14         15
    11  H    0.000000
    12  H    2.765595   0.000000
    13  H    6.164840   6.735863   0.000000
    14  H    5.568329   5.066683   2.552847   0.000000
    15  H    5.266472   6.824653   2.449289   4.374704   0.000000
    16  H    3.050016   5.290041   4.366260   5.135463   2.555160
                   16
    16  H    0.000000
 Stoichiometry    C8H7N
 Framework group  C1[X(C8H7N)]
 Deg. of freedom    42
 Full point group                 C1      NOp   1
 Largest Abelian subgroup         C1      NOp   1
 Largest concise Abelian subgroup C1      NOp   1
                         Standard orientation:                         
 ---------------------------------------------------------------------
 Center     Atomic      Atomic             Coordinates (Angstroms)
 Number     Number       Type             X           Y           Z
 ---------------------------------------------------------------------
      1          6           0       -2.202052    0.658803   -0.000085
      2          6           0       -2.150782   -0.736040    0.000127
      3          6           0       -0.914982   -1.479148    0.000209
      4          6           0        0.243293   -0.644275    0.000041
      5          6           0        0.219483    0.748024   -0.000072
      6          6           0       -1.017196    1.471632   -0.000193
      7          7           0        1.621391   -1.042171   -0.000147
      8          6           0        1.610269    1.183179    0.000082
      9          6           0        2.448167    0.019690    0.000038
     10          1           0        1.928498   -2.015220   -0.000083
     11          1           0        1.976992    2.210699    0.000153
     12          1           0        3.532152   -0.076218    0.000146
     13          1           0       -3.091983   -1.297968    0.000134
     14          1           0       -0.878474   -2.569741    0.000148
     15          1           0       -3.181495    1.149684   -0.000130
     16          1           0       -1.052636    2.562768   -0.000217
 ---------------------------------------------------------------------
 Rotational constants (GHZ):           3.8001577           1.5828353           1.1174125

 **********************************************************************

            Population analysis using the CI Density.

 **********************************************************************

 Orbital symmetries:
       Occupied  (A) (A) (A) (A) (A) (A) (A) (A) (A) (A) (A) (A)
                 (A) (A) (A) (A) (A) (A) (A) (A) (A) (A) (A) (A)
                 (A) (A) (A) (A) (A) (A) (A)
       Virtual   (A) (A) (A) (A) (A) (A) (A) (A) (A) (A) (A) (A)
                 (A) (A) (A) (A) (A) (A) (A) (A) (A) (A) (A) (A)
                 (A) (A) (A) (A) (A) (A) (A) (A) (A) (A) (A) (A)
                 (A) (A) (A) (A) (A) (A) (A) (A) (A) (A) (A) (A)
                 (A) (A) (A) (A) (A) (A) (A) (A) (A) (A) (A) (A)
                 (A) (A) (A) (A) (A) (A) (A) (A) (A) (A) (A) (A)
                 (A) (A) (A) (A) (A) (A) (A) (A) (A) (A) (A) (A)
                 (A) (A) (A) (A) (A) (A) (A) (A) (A) (A) (A) (A)
                 (A) (A) (A) (A) (A) (A) (A) (A) (A) (A) (A) (A)
                 (A) (A) (A) (A) (A) (A) (A) (A) (A) (A) (A) (A)
                 (A) (A) (A) (A) (A) (A) (A) (A) (A) (A) (A) (A)
                 (A) (A) (A) (A) (A) (A) (A) (A) (A) (A) (A) (A)
                 (A) (A) (A) (A) (A) (A) (A) (A) (A) (A)
 The electronic state is 1-A.
 Alpha  occ. eigenvalues --  -14.05995  -9.94088  -9.94061  -9.91821  -9.91080
 Alpha  occ. eigenvalues --   -9.90687  -9.90679  -9.90385  -9.89615  -0.89813
 Alpha  occ. eigenvalues --   -0.76092  -0.70009  -0.66904  -0.64113  -0.56757
 Alpha  occ. eigenvalues --   -0.53503  -0.51877  -0.48805  -0.43202  -0.42320
 Alpha  occ. eigenvalues --   -0.38975  -0.38612  -0.37332  -0.35618  -0.34625
 Alpha  occ. eigenvalues --   -0.31109  -0.30057  -0.29711  -0.24014  -0.20918
 Alpha  occ. eigenvalues --   -0.17380
 Alpha virt. eigenvalues --   -0.05535  -0.01751  -0.01160   0.00253   0.01093
 Alpha virt. eigenvalues --    0.01197   0.02424   0.02686   0.04479   0.04792
 Alpha virt. eigenvalues --    0.05165   0.05428   0.07074   0.07430   0.09292
 Alpha virt. eigenvalues --    0.09451   0.09619   0.11069   0.11830   0.12231
 Alpha virt. eigenvalues --    0.13342   0.13714   0.14300   0.14557   0.15349
 Alpha virt. eigenvalues --    0.15596   0.16398   0.16537   0.17511   0.17955
 Alpha virt. eigenvalues --    0.18361   0.18447   0.19526   0.19828   0.20956
 Alpha virt. eigenvalues --    0.21606   0.21859   0.21909   0.23127   0.23770
 Alpha virt. eigenvalues --    0.25054   0.25286   0.25793   0.26243   0.26853
 Alpha virt. eigenvalues --    0.27649   0.29074   0.30444   0.31439   0.31672
 Alpha virt. eigenvalues --    0.32486   0.35649   0.37038   0.40665   0.45378
 Alpha virt. eigenvalues --    0.52273   0.54334   0.62943   0.62974   0.65488
 Alpha virt. eigenvalues --    0.66904   0.67839   0.67971   0.68265   0.68939
 Alpha virt. eigenvalues --    0.70170   0.70861   0.72644   0.73279   0.74319
 Alpha virt. eigenvalues --    0.75826   0.80205   0.83383   0.83980   0.84503
 Alpha virt. eigenvalues --    0.88093   0.89436   0.89977   0.90416   0.92522
 Alpha virt. eigenvalues --    0.94475   0.97877   0.99349   1.00159   1.04448
 Alpha virt. eigenvalues --    1.06520   1.07399   1.11769   1.12378   1.15847
 Alpha virt. eigenvalues --    1.17407   1.17921   1.19398   1.25647   1.25769
 Alpha virt. eigenvalues --    1.28484   1.30183   1.33047   1.33884   1.37037
 Alpha virt. eigenvalues --    1.40001   1.40926   1.41957   1.43104   1.48012
 Alpha virt. eigenvalues --    1.50967   1.55435   1.71578   1.73681   1.77973
 Alpha virt. eigenvalues --    1.81692   1.81933   1.83691   1.90022   1.90498
 Alpha virt. eigenvalues --    1.92202   1.94438   1.97377   2.03379   2.07115
 Alpha virt. eigenvalues --    2.08559   2.10798   2.12964   2.15353   2.18250
 Alpha virt. eigenvalues --    2.18504   2.21092   2.26831   2.30095   2.36476
 Alpha virt. eigenvalues --    2.41823   2.43955   2.52301   2.53900   2.56255
 Alpha virt. eigenvalues --    2.57621   2.64539   2.69321   2.72819   2.74315
 Alpha virt. eigenvalues --    2.83858   2.88577   2.94935   3.10982   3.27585
 Alpha virt. eigenvalues --    4.03982   4.13974   4.18898   4.22175   4.25194
 Alpha virt. eigenvalues --    4.29876   4.37419   4.42099   4.66392
          Condensed to atoms (all electrons):
               1          2          3          4          5          6
     1  C    5.599407   0.481593   0.306446  -0.361557  -0.291079  -0.127436
     2  C    0.481593   5.794104  -0.259766   0.129366  -0.498880   0.705402
     3  C    0.306446  -0.259766  14.266996  -0.958714  -5.496235  -3.202216
     4  C   -0.361557   0.129366  -0.958714  16.193287  -6.887809  -2.627176
     5  C   -0.291079  -0.498880  -5.496235  -6.887809  19.463089   0.867874
     6  C   -0.127436   0.705402  -3.202216  -2.627176   0.867874  13.853381
     7  N   -0.024303   0.001654  -0.443851  -0.571220   1.010595   0.115357
     8  C    0.195057  -0.366056   3.420489   3.275933  -6.372249  -4.071839
     9  C   -0.083489   0.044600  -1.171825  -0.950061   2.099957   1.015266
    10  H   -0.003922  -0.004161  -0.136294  -0.095463   0.209638   0.023497
    11  H    0.002141   0.000937   0.007243   0.040385  -0.067218   0.004613
    12  H    0.000929   0.000096   0.029619   0.109154  -0.106481  -0.018609
    13  H    0.007975   0.264384  -0.023966   0.016942   0.004810   0.020583
    14  H    0.022642   0.025830   0.253066  -0.005786   0.020266  -0.021617
    15  H    0.275065   0.006178   0.028734  -0.021460   0.038233  -0.039275
    16  H    0.010363   0.021940  -0.037951   0.029448   0.057187   0.261611
               7          8          9         10         11         12
     1  C   -0.024303   0.195057  -0.083489  -0.003922   0.002141   0.000929
     2  C    0.001654  -0.366056   0.044600  -0.004161   0.000937   0.000096
     3  C   -0.443851   3.420489  -1.171825  -0.136294   0.007243   0.029619
     4  C   -0.571220   3.275933  -0.950061  -0.095463   0.040385   0.109154
     5  C    1.010595  -6.372249   2.099957   0.209638  -0.067218  -0.106481
     6  C    0.115357  -4.071839   1.015266   0.023497   0.004613  -0.018609
     7  N    7.143929  -0.705578   0.596822   0.255932   0.007885  -0.054243
     8  C   -0.705578  12.483757  -2.142591  -0.002199   0.349187   0.019071
     9  C    0.596822  -2.142591   6.532304  -0.029982  -0.056340   0.328676
    10  H    0.255932  -0.002199  -0.029982   0.348293  -0.000085  -0.002744
    11  H    0.007885   0.349187  -0.056340  -0.000085   0.482616  -0.000799
    12  H   -0.054243   0.019071   0.328676  -0.002744  -0.000799   0.469910
    13  H   -0.000492  -0.001154   0.001585  -0.000002  -0.000000  -0.000000
    14  H   -0.007325  -0.007478   0.007391   0.002256   0.000002   0.000001
    15  H    0.000271   0.005137  -0.000170  -0.000000  -0.000002  -0.000000
    16  H   -0.000918  -0.059510   0.003827   0.000004   0.001517  -0.000001
              13         14         15         16
     1  C    0.007975   0.022642   0.275065   0.010363
     2  C    0.264384   0.025830   0.006178   0.021940
     3  C   -0.023966   0.253066   0.028734  -0.037951
     4  C    0.016942  -0.005786  -0.021460   0.029448
     5  C    0.004810   0.020266   0.038233   0.057187
     6  C    0.020583  -0.021617  -0.039275   0.261611
     7  N   -0.000492  -0.007325   0.000271  -0.000918
     8  C   -0.001154  -0.007478   0.005137  -0.059510
     9  C    0.001585   0.007391  -0.000170   0.003827
    10  H   -0.000002   0.002256  -0.000000   0.000004
    11  H   -0.000000   0.000002  -0.000002   0.001517
    12  H   -0.000000   0.000001  -0.000000  -0.000001
    13  H    0.541643  -0.004212  -0.006063  -0.000138
    14  H   -0.004212   0.534957  -0.000129   0.000012
    15  H   -0.006063  -0.000129   0.540980  -0.003941
    16  H   -0.000138   0.000012  -0.003941   0.534100
 Mulliken charges:
               1
     1  C   -0.009834
     2  C   -0.347223
     3  C   -0.581775
     4  C   -1.315270
     5  C    1.948301
     6  C   -0.759417
     7  N   -0.324517
     8  C   -0.019978
     9  C   -0.195971
    10  H    0.435231
    11  H    0.227916
    12  H    0.225419
    13  H    0.178104
    14  H    0.180125
    15  H    0.176442
    16  H    0.182449
 Sum of Mulliken charges =  -0.00000
 Mulliken charges with hydrogens summed into heavy atoms:
               1
     1  C    0.166609
     2  C   -0.169120
     3  C   -0.401650
     4  C   -1.315270
     5  C    1.948301
     6  C   -0.576968
     7  N    0.110713
     8  C    0.207938
     9  C    0.029447
 Electronic spatial extent (au):  <R**2>=           1038.1738
 Charge=             -0.0000 electrons
 Dipole moment (field-independent basis, Debye):
    X=              5.4131    Y=             -1.0286    Z=             -0.0000  Tot=              5.5100
 Quadrupole moment (field-independent basis, Debye-Ang):
   XX=            -43.5049   YY=            -47.1816   ZZ=            -60.3547
   XY=             -2.0865   XZ=              0.0008   YZ=              0.0013
 Traceless Quadrupole moment (field-independent basis, Debye-Ang):
   XX=              6.8421   YY=              3.1655   ZZ=            -10.0076
   XY=             -2.0865   XZ=              0.0008   YZ=              0.0013
 Octapole moment (field-independent basis, Debye-Ang**2):
  XXX=             35.3696  YYY=             -7.8145  ZZZ=             -0.0012  XYY=             18.4274
  XXY=             -6.5382  XXZ=              0.0017  XZZ=              7.2084  YZZ=             -0.8344
  YYZ=             -0.0014  XYZ=              0.0007
 Hexadecapole moment (field-independent basis, Debye-Ang**3):
 XXXX=           -847.7065 YYYY=           -413.5999 ZZZZ=            -83.8538 XXXY=            -16.7022
 XXXZ=              0.0081 YYYX=            -15.5445 YYYZ=              0.0170 ZZZX=             -0.0000
 ZZZY=              0.0196 XXYY=           -203.0090 XXZZ=           -200.2894 YYZZ=           -107.1084
 XXYZ=              0.0054 YYXZ=              0.0011 ZZXY=             -1.8702
 N-N= 3.947700669452D+02 E-N=-1.631190594469D+03  KE= 3.595472525857D+02
 Unable to Open any file for archive entry.
 1\1\GINC-EXP-1-09\FOpt\RPBEPBE TD-FC\6-31+G(d)\C8H7N1\SCAPARAS\28-Jun-
 2021\0\\# td= (nstates=6, root=1) PBEPBE/6-31+G* Opt density=current\\
 FuncsPBEPBE-V-1st\\0,1\C,-2.1935398236,0.687767039,-0.0000610286\C,-2.
 1593600563,-0.7075985676,0.0001512269\C,-0.9327559395,-1.4657898278,0.
 0002325908\C,0.2356592013,-0.645167984,0.0000646703\C,0.228906419,0.74
 73180891,-0.0000482063\C,-0.9988151207,1.4860211552,-0.0001685989\N,1.
 6087797119,-1.0599162179,-0.0001232481\C,1.6249191876,1.1654028043,0.0
 001062649\C,2.4485008462,-0.008262483,0.0000621429\H,1.9039438122,-2.0
 366542518,-0.0000589435\H,2.0042011128,2.188353454,0.0001775028\H,3.53
 12304008,-0.1174428447,0.0001705169\H,-3.1073745011,-1.2579553634,0.00
 01575946\H,-0.9096106458,-2.5567484284,0.0001717418\H,-3.1668954309,1.
 1906101772,-0.0001056348\H,-1.0208861738,2.5775092496,-0.0001925918\\V
 ersion=ES64L-G16RevC.01\State=1-A\HF=-363.3605111\RMSD=6.662e-09\RMSF=
 4.801e-05\Dipole=2.1296873,-0.4046738,-0.0000043\Quadrupole=5.0869615,
 2.3534478,-7.4404093,-1.5512479,0.0005636,0.0009694\PG=C01 [X(C8H7N1)]
 \\@
 The archive entry for this job was punched.


 TIME IS NATURE'S WAY OF MAKING SURE EVERYTHING
 DOESN'T HAPPEN AT ONCE.
                     - WOODY ALLEN
 Job cpu time:       0 days  3 hours 38 minutes 50.9 seconds.
 Elapsed time:       0 days  0 hours 56 minutes  7.5 seconds.
 File lengths (MBytes):  RWF=    241 Int=      0 D2E=      0 Chk=     11 Scr=      1
 Normal termination of Gaussian 16 at Mon Jun 28 13:27:38 2021.
