 Entering Gaussian System, Link 0=/cm/shared/apps/spack/cpu/opt/spack/linux-centos8-zen/gcc-8.3.1/gaussian-16.C.01-po5bqktfeugvmjyga3v7eigbecnokxng/g16/g16
 Initial command:
 /cm/shared/apps/spack/cpu/opt/spack/linux-centos8-zen/gcc-8.3.1/gaussian-16.C.01-po5bqktfeugvmjyga3v7eigbecnokxng/g16/l1.exe "/scratch/scaparas/job_3431617/Gau-37939.inp" -scrdir="/scratch/scaparas/job_3431617/"
 Entering Link 1 = /cm/shared/apps/spack/cpu/opt/spack/linux-centos8-zen/gcc-8.3.1/gaussian-16.C.01-po5bqktfeugvmjyga3v7eigbecnokxng/g16/l1.exe PID=     37940.
  
 Copyright (c) 1988-2019, Gaussian, Inc.  All Rights Reserved.
  
 This is part of the Gaussian(R) 16 program.  It is based on
 the Gaussian(R) 09 system (copyright 2009, Gaussian, Inc.),
 the Gaussian(R) 03 system (copyright 2003, Gaussian, Inc.),
 the Gaussian(R) 98 system (copyright 1998, Gaussian, Inc.),
 the Gaussian(R) 94 system (copyright 1995, Gaussian, Inc.),
 the Gaussian 92(TM) system (copyright 1992, Gaussian, Inc.),
 the Gaussian 90(TM) system (copyright 1990, Gaussian, Inc.),
 the Gaussian 88(TM) system (copyright 1988, Gaussian, Inc.),
 the Gaussian 86(TM) system (copyright 1986, Carnegie Mellon
 University), and the Gaussian 82(TM) system (copyright 1983,
 Carnegie Mellon University). Gaussian is a federally registered
 trademark of Gaussian, Inc.
  
 This software contains proprietary and confidential information,
 including trade secrets, belonging to Gaussian, Inc.
  
 This software is provided under written license and may be
 used, copied, transmitted, or stored only in accord with that
 written license.
  
 The following legend is applicable only to US Government
 contracts under FAR:
  
                    RESTRICTED RIGHTS LEGEND
  
 Use, reproduction and disclosure by the US Government is
 subject to restrictions as set forth in subparagraphs (a)
 and (c) of the Commercial Computer Software - Restricted
 Rights clause in FAR 52.227-19.
  
 Gaussian, Inc.
 340 Quinnipiac St., Bldg. 40, Wallingford CT 06492
  
  
 ---------------------------------------------------------------
 Warning -- This program may not be used in any manner that
 competes with the business of Gaussian, Inc. or will provide
 assistance to any competitor of Gaussian, Inc.  The licensee
 of this program is prohibited from giving any competitor of
 Gaussian, Inc. access to this program.  By using this program,
 the user acknowledges that Gaussian, Inc. is engaged in the
 business of creating and licensing software in the field of
 computational chemistry and represents and warrants to the
 licensee that it is not a competitor of Gaussian, Inc. and that
 it will not use this program in any manner prohibited above.
 ---------------------------------------------------------------
  

 Cite this work as:
 Gaussian 16, Revision C.01,
 M. J. Frisch, G. W. Trucks, H. B. Schlegel, G. E. Scuseria, 
 M. A. Robb, J. R. Cheeseman, G. Scalmani, V. Barone, 
 G. A. Petersson, H. Nakatsuji, X. Li, M. Caricato, A. V. Marenich, 
 J. Bloino, B. G. Janesko, R. Gomperts, B. Mennucci, H. P. Hratchian, 
 J. V. Ortiz, A. F. Izmaylov, J. L. Sonnenberg, D. Williams-Young, 
 F. Ding, F. Lipparini, F. Egidi, J. Goings, B. Peng, A. Petrone, 
 T. Henderson, D. Ranasinghe, V. G. Zakrzewski, J. Gao, N. Rega, 
 G. Zheng, W. Liang, M. Hada, M. Ehara, K. Toyota, R. Fukuda, 
 J. Hasegawa, M. Ishida, T. Nakajima, Y. Honda, O. Kitao, H. Nakai, 
 T. Vreven, K. Throssell, J. A. Montgomery, Jr., J. E. Peralta, 
 F. Ogliaro, M. J. Bearpark, J. J. Heyd, E. N. Brothers, K. N. Kudin, 
 V. N. Staroverov, T. A. Keith, R. Kobayashi, J. Normand, 
 K. Raghavachari, A. P. Rendell, J. C. Burant, S. S. Iyengar, 
 J. Tomasi, M. Cossi, J. M. Millam, M. Klene, C. Adamo, R. Cammi, 
 J. W. Ochterski, R. L. Martin, K. Morokuma, O. Farkas, 
 J. B. Foresman, and D. J. Fox, Gaussian, Inc., Wallingford CT, 2019.
 
 ******************************************
 Gaussian 16:  AS64L-G16RevC.01  3-Jul-2019
                15-Jun-2021 
 ******************************************
 %nprocshared=4
 Will use up to    4 processors via shared memory.
 %chk=FuncsAPFD-V-1st.chk
 %Mem=3GB
 ----------------------------------------------------------
 # td= (nstates=6, root=1) APFD/6-31+G* Opt density=current
 ----------------------------------------------------------
 1/18=20,19=15,26=3,38=1/1,3;
 2/9=110,12=2,17=6,18=5,40=1/2;
 3/5=1,6=6,7=11,11=9,25=1,30=1,71=1,74=-44/1,2,3,8;
 4//1;
 5/5=2,38=5/2;
 8/6=1,10=2,107=1,108=6/1;
 9/8=1,15=2,41=6,42=1,70=2/14;
 10/5=4,28=1/2;
 6/7=2,8=2,9=2,10=2,22=-1/1;
 7/12=6,13=5,14=1/1,2,3,16;
 1/18=20,19=15,26=3/3(2);
 2/9=110/2;
 99//99;
 2/9=110/2;
 3/5=1,6=6,7=11,11=9,25=1,30=1,71=1,74=-44/1,2,3,8;
 4/5=5,16=3,69=1/1;
 5/5=2,38=5/2;
 8/6=1,10=2,107=1,108=6/1;
 9/8=1,15=2,41=6,42=1,49=4,70=2/14;
 10/5=4,28=1/2;
 7/12=6,13=5,14=1/1,2,3,16;
 1/18=20,19=15,26=3/3(-8);
 2/9=110/2;
 6/7=2,8=2,9=2,10=2,22=-1/1;
 99/9=10/99;
 ---------------
 FuncsAPFD-V-1st
 ---------------
 Symbolic Z-matrix:
 Charge =  0 Multiplicity = 1
 C                    -2.15106   0.68921   0.00009 
 C                    -2.12793  -0.71582   0.00008 
 C                    -0.9323   -1.4131   -0.00001 
 C                     0.24691  -0.6702   -0.00004 
 C                     0.24819   0.7483    0. 
 C                    -0.97947   1.42353   0.00003 
 N                     1.56177  -1.07759  -0.00029 
 C                     1.62013   1.1629   -0.00016 
 C                     2.38201   0.03081   0.00025 
 H                     1.87632  -2.03001   0.00044 
 H                     1.99217   2.17301  -0.00035 
 H                     3.45255  -0.08243   0.00041 
 H                    -3.06159  -1.26202   0.00009 
 H                    -0.91725  -2.49534  -0.00007 
 H                    -3.1042    1.20079   0.00009 
 H                    -1.00935   2.50542  -0.00002 
 

 GradGradGradGradGradGradGradGradGradGradGradGradGradGradGradGradGradGrad
 Berny optimization.
 Initialization pass.
                           ----------------------------
                           !    Initial Parameters    !
                           ! (Angstroms and Degrees)  !
 --------------------------                            --------------------------
 ! Name  Definition              Value          Derivative Info.                !
 --------------------------------------------------------------------------------
 ! R1    R(1,2)                  1.4052         estimate D2E/DX2                !
 ! R2    R(1,6)                  1.3827         estimate D2E/DX2                !
 ! R3    R(1,15)                 1.0818         estimate D2E/DX2                !
 ! R4    R(2,3)                  1.3841         estimate D2E/DX2                !
 ! R5    R(2,13)                 1.0817         estimate D2E/DX2                !
 ! R6    R(3,4)                  1.3937         estimate D2E/DX2                !
 ! R7    R(3,14)                 1.0823         estimate D2E/DX2                !
 ! R8    R(4,5)                  1.4185         estimate D2E/DX2                !
 ! R9    R(4,7)                  1.3765         estimate D2E/DX2                !
 ! R10   R(5,6)                  1.4011         estimate D2E/DX2                !
 ! R11   R(5,8)                  1.4332         estimate D2E/DX2                !
 ! R12   R(6,16)                 1.0823         estimate D2E/DX2                !
 ! R13   R(7,9)                  1.3789         estimate D2E/DX2                !
 ! R14   R(7,10)                 1.003          estimate D2E/DX2                !
 ! R15   R(8,9)                  1.3646         estimate D2E/DX2                !
 ! R16   R(8,11)                 1.0764         estimate D2E/DX2                !
 ! R17   R(9,12)                 1.0765         estimate D2E/DX2                !
 ! A1    A(2,1,6)              121.1349         estimate D2E/DX2                !
 ! A2    A(2,1,15)             119.1671         estimate D2E/DX2                !
 ! A3    A(6,1,15)             119.698          estimate D2E/DX2                !
 ! A4    A(1,2,3)              121.1938         estimate D2E/DX2                !
 ! A5    A(1,2,13)             119.3846         estimate D2E/DX2                !
 ! A6    A(3,2,13)             119.4217         estimate D2E/DX2                !
 ! A7    A(2,3,4)              117.5387         estimate D2E/DX2                !
 ! A8    A(2,3,14)             121.0469         estimate D2E/DX2                !
 ! A9    A(4,3,14)             121.4144         estimate D2E/DX2                !
 ! A10   A(3,4,5)              122.2626         estimate D2E/DX2                !
 ! A11   A(3,4,7)              130.5743         estimate D2E/DX2                !
 ! A12   A(5,4,7)              107.163          estimate D2E/DX2                !
 ! A13   A(4,5,6)              118.7594         estimate D2E/DX2                !
 ! A14   A(4,5,8)              106.8666         estimate D2E/DX2                !
 ! A15   A(6,5,8)              134.374          estimate D2E/DX2                !
 ! A16   A(1,6,5)              119.1105         estimate D2E/DX2                !
 ! A17   A(1,6,16)             120.4966         estimate D2E/DX2                !
 ! A18   A(5,6,16)             120.3928         estimate D2E/DX2                !
 ! A19   A(4,7,9)              109.2874         estimate D2E/DX2                !
 ! A20   A(4,7,10)             125.4909         estimate D2E/DX2                !
 ! A21   A(9,7,10)             125.2217         estimate D2E/DX2                !
 ! A22   A(5,8,9)              107.125          estimate D2E/DX2                !
 ! A23   A(5,8,11)             127.0344         estimate D2E/DX2                !
 ! A24   A(9,8,11)             125.8405         estimate D2E/DX2                !
 ! A25   A(7,9,8)              109.5578         estimate D2E/DX2                !
 ! A26   A(7,9,12)             120.4645         estimate D2E/DX2                !
 ! A27   A(8,9,12)             129.9776         estimate D2E/DX2                !
 ! D1    D(6,1,2,3)             -0.0008         estimate D2E/DX2                !
 ! D2    D(6,1,2,13)          -179.9981         estimate D2E/DX2                !
 ! D3    D(15,1,2,3)           179.996          estimate D2E/DX2                !
 ! D4    D(15,1,2,13)           -0.0013         estimate D2E/DX2                !
 ! D5    D(2,1,6,5)             -0.0018         estimate D2E/DX2                !
 ! D6    D(2,1,6,16)           179.9965         estimate D2E/DX2                !
 ! D7    D(15,1,6,5)          -179.9986         estimate D2E/DX2                !
 ! D8    D(15,1,6,16)           -0.0003         estimate D2E/DX2                !
 ! D9    D(1,2,3,4)              0.002          estimate D2E/DX2                !
 ! D10   D(1,2,3,14)          -179.9968         estimate D2E/DX2                !
 ! D11   D(13,2,3,4)           179.9992         estimate D2E/DX2                !
 ! D12   D(13,2,3,14)            0.0005         estimate D2E/DX2                !
 ! D13   D(2,3,4,5)             -0.0005         estimate D2E/DX2                !
 ! D14   D(2,3,4,7)           -179.9911         estimate D2E/DX2                !
 ! D15   D(14,3,4,5)           179.9982         estimate D2E/DX2                !
 ! D16   D(14,3,4,7)             0.0076         estimate D2E/DX2                !
 ! D17   D(3,4,5,6)             -0.002          estimate D2E/DX2                !
 ! D18   D(3,4,5,8)           -179.9955         estimate D2E/DX2                !
 ! D19   D(7,4,5,6)            179.9905         estimate D2E/DX2                !
 ! D20   D(7,4,5,8)             -0.003          estimate D2E/DX2                !
 ! D21   D(3,4,7,9)           -179.98           estimate D2E/DX2                !
 ! D22   D(3,4,7,10)            -0.0649         estimate D2E/DX2                !
 ! D23   D(5,4,7,9)              0.0284         estimate D2E/DX2                !
 ! D24   D(5,4,7,10)           179.9434         estimate D2E/DX2                !
 ! D25   D(4,5,6,1)              0.0031         estimate D2E/DX2                !
 ! D26   D(4,5,6,16)          -179.9951         estimate D2E/DX2                !
 ! D27   D(8,5,6,1)            179.9944         estimate D2E/DX2                !
 ! D28   D(8,5,6,16)            -0.0038         estimate D2E/DX2                !
 ! D29   D(4,5,8,9)             -0.0234         estimate D2E/DX2                !
 ! D30   D(4,5,8,11)           179.9883         estimate D2E/DX2                !
 ! D31   D(6,5,8,9)            179.9846         estimate D2E/DX2                !
 ! D32   D(6,5,8,11)            -0.0037         estimate D2E/DX2                !
 ! D33   D(4,7,9,8)             -0.0444         estimate D2E/DX2                !
 ! D34   D(4,7,9,12)           179.9847         estimate D2E/DX2                !
 ! D35   D(10,7,9,8)          -179.9597         estimate D2E/DX2                !
 ! D36   D(10,7,9,12)            0.0693         estimate D2E/DX2                !
 ! D37   D(5,8,9,7)              0.0414         estimate D2E/DX2                !
 ! D38   D(5,8,9,12)          -179.9913         estimate D2E/DX2                !
 ! D39   D(11,8,9,7)          -179.9702         estimate D2E/DX2                !
 ! D40   D(11,8,9,12)           -0.0029         estimate D2E/DX2                !
 --------------------------------------------------------------------------------
 Trust Radius=3.00D-01 FncErr=1.00D-07 GrdErr=1.00D-06 EigMax=2.50D+02 EigMin=1.00D-04
 Number of steps in this run=     94 maximum allowed number of steps=    100.
 GradGradGradGradGradGradGradGradGradGradGradGradGradGradGradGradGradGrad

                          Input orientation:                          
 ---------------------------------------------------------------------
 Center     Atomic      Atomic             Coordinates (Angstroms)
 Number     Number       Type             X           Y           Z
 ---------------------------------------------------------------------
      1          6           0       -2.151063    0.689208    0.000088
      2          6           0       -2.127927   -0.715818    0.000075
      3          6           0       -0.932297   -1.413100   -0.000011
      4          6           0        0.246911   -0.670201   -0.000042
      5          6           0        0.248193    0.748299    0.000000
      6          6           0       -0.979474    1.423526    0.000032
      7          7           0        1.561774   -1.077592   -0.000285
      8          6           0        1.620133    1.162900   -0.000157
      9          6           0        2.382013    0.030806    0.000248
     10          1           0        1.876315   -2.030011    0.000438
     11          1           0        1.992173    2.173010   -0.000348
     12          1           0        3.452549   -0.082425    0.000408
     13          1           0       -3.061594   -1.262020    0.000088
     14          1           0       -0.917252   -2.495342   -0.000073
     15          1           0       -3.104203    1.200785    0.000090
     16          1           0       -1.009348    2.505421   -0.000015
 ---------------------------------------------------------------------
                    Distance matrix (angstroms):
                    1          2          3          4          5
     1  C    0.000000
     2  C    1.405216   0.000000
     3  C    2.430039   1.384100   0.000000
     4  C    2.756496   2.375276   1.393711   0.000000
     5  C    2.399984   2.790983   2.462763   1.418501   0.000000
     6  C    1.382694   2.428114   2.837018   2.426461   1.401106
     7  N    4.111781   3.707395   2.516536   1.376529   2.249305
     8  C    3.800829   4.192557   3.626386   2.290414   1.433218
     9  C    4.580641   4.571324   3.615178   2.247236   2.251218
    10  H    4.859416   4.214387   2.875566   2.122273   3.220216
    11  H    4.400917   5.031953   4.627387   3.336134   2.251948
    12  H    5.656491   5.616307   4.582311   3.259079   3.310287
    13  H    2.153220   1.081698   2.134650   3.361020   3.872476
    14  H    3.415208   2.152310   1.082347   2.164813   3.446661
    15  H    1.081752   2.150926   3.398466   3.838040   3.382795
    16  H    2.145261   3.409927   3.919278   3.415079   2.160761
                    6          7          8          9         10
     6  C    0.000000
     7  N    3.565604   0.000000
     8  C    2.612639   2.241252   0.000000
     9  C    3.638580   1.378890   1.364587   0.000000
    10  H    4.481345   1.003015   3.203172   2.121956   0.000000
    11  H    3.064704   3.278972   1.076446   2.177387   4.204618
    12  H    4.680888   2.136677   2.215532   1.076508   2.505515
    13  H    3.398144   4.627045   5.272457   5.595021   4.997275
    14  H    3.919362   2.855798   4.452085   4.155307   2.832058
    15  H    2.136372   5.192528   4.724488   5.609583   5.936632
    16  H    1.082307   4.410062   2.952378   4.198220   5.375611
                   11         12         13         14         15
    11  H    0.000000
    12  H    2.686947   0.000000
    13  H    6.110646   6.620083   0.000000
    14  H    5.500751   4.991726   2.473719   0.000000
    15  H    5.188282   6.681139   2.463174   4.294661   0.000000
    16  H    3.019872   5.158049   4.290143   5.001611   2.467892
                   16
    16  H    0.000000
 Stoichiometry    C8H7N
 Framework group  C1[X(C8H7N)]
 Deg. of freedom    42
 Full point group                 C1      NOp   1
 Largest Abelian subgroup         C1      NOp   1
 Largest concise Abelian subgroup C1      NOp   1
                         Standard orientation:                         
 ---------------------------------------------------------------------
 Center     Atomic      Atomic             Coordinates (Angstroms)
 Number     Number       Type             X           Y           Z
 ---------------------------------------------------------------------
      1          6           0       -2.151063    0.689208    0.000088
      2          6           0       -2.127927   -0.715818    0.000075
      3          6           0       -0.932297   -1.413100   -0.000011
      4          6           0        0.246911   -0.670201   -0.000042
      5          6           0        0.248193    0.748299    0.000000
      6          6           0       -0.979474    1.423526    0.000032
      7          7           0        1.561774   -1.077592   -0.000285
      8          6           0        1.620133    1.162900   -0.000157
      9          6           0        2.382013    0.030806    0.000248
     10          1           0        1.876315   -2.030011    0.000438
     11          1           0        1.992173    2.173010   -0.000348
     12          1           0        3.452549   -0.082425    0.000408
     13          1           0       -3.061594   -1.262020    0.000088
     14          1           0       -0.917252   -2.495342   -0.000073
     15          1           0       -3.104203    1.200785    0.000090
     16          1           0       -1.009348    2.505421   -0.000015
 ---------------------------------------------------------------------
 Rotational constants (GHZ):           3.9080822           1.6429452           1.1566805
 Standard basis: 6-31+G(d) (6D, 7F)
 There are   185 symmetry adapted cartesian basis functions of A   symmetry.
 There are   185 symmetry adapted basis functions of A   symmetry.
   185 basis functions,   316 primitive gaussians,   185 cartesian basis functions
    31 alpha electrons       31 beta electrons
       nuclear repulsion energy       401.3368668897 Hartrees.
 NAtoms=   16 NActive=   16 NUniq=   16 SFac= 1.00D+00 NAtFMM=   60 NAOKFM=F Big=F
 Integral buffers will be    131072 words long.
 Regular integral format.
 Two-electron integral symmetry is turned on.
 R6APFD:  NTU= -4 IXU= 1 FactS= 1.050
 Nuclear repulsion after empirical dispersion term =      401.3295037918 Hartrees.
 One-electron integrals computed using PRISM.
 NBasis=   185 RedAO= T EigKep=  1.26D-06  NBF=   185
 NBsUse=   185 1.00D-06 EigRej= -1.00D+00 NBFU=   185
 ExpMin= 4.38D-02 ExpMax= 4.17D+03 ExpMxC= 6.27D+02 IAcc=3 IRadAn=         5 AccDes= 0.00D+00
 Harris functional with IExCor= 3731 and IRadAn=       5 diagonalized for initial guess.
 HarFok:  IExCor= 3731 AccDes= 0.00D+00 IRadAn=         5 IDoV= 1 UseB2=F ITyADJ=14
 ICtDFT=  3500011 ScaDFX=  1.000000  1.000000  1.000000  1.000000
 FoFCou: FMM=F IPFlag=           0 FMFlag=      100000 FMFlg1=           0
         NFxFlg=           0 DoJE=T BraDBF=F KetDBF=T FulRan=T
         wScrn=  0.000000 ICntrl=       500 IOpCl=  0 I1Cent=   200000004 NGrid=           0
         NMat0=    1 NMatS0=      1 NMatT0=    0 NMatD0=    1 NMtDS0=    0 NMtDT0=    0
 Petite list used in FoFCou.
 Keep R1 ints in memory in canonical form, NReq=152071459.
 Requested convergence on RMS density matrix=1.00D-08 within 128 cycles.
 Requested convergence on MAX density matrix=1.00D-06.
 Requested convergence on             energy=1.00D-06.
 No special actions if energy rises.
 SCF Done:  E(RAPFD) =  -363.529671794     A.U. after   14 cycles
            NFock= 14  Conv=0.56D-08     -V/T= 2.0089
 DoSCS=F DFT=T ScalE2(SS,OS)=  1.000000  1.000000
 ExpMin= 4.38D-02 ExpMax= 4.17D+03 ExpMxC= 6.27D+02 IAcc=3 IRadAn=         5 AccDes= 0.00D+00
 HarFok:  IExCor=  205 AccDes= 0.00D+00 IRadAn=         5 IDoV=-2 UseB2=F ITyADJ=14
 ICtDFT= 12500011 ScaDFX=  1.000000  1.000000  1.000000  1.000000
 Range of M.O.s used for correlation:    10   185
 NBasis=   185 NAE=    31 NBE=    31 NFC=     9 NFV=     0
 NROrb=    176 NOA=    22 NOB=    22 NVA=   154 NVB=   154

 **** Warning!!: The largest alpha MO coefficient is  0.17258467D+03

 Orbital symmetries:
       Occupied  (A) (A) (A) (A) (A) (A) (A) (A) (A) (A) (A) (A)
                 (A) (A) (A) (A) (A) (A) (A) (A) (A) (A) (A) (A)
                 (A) (A) (A) (A) (A) (A) (A)
       Virtual   (A) (A) (A) (A) (A) (A) (A) (A) (A) (A) (A) (A)
                 (A) (A) (A) (A) (A) (A) (A) (A) (A) (A) (A) (A)
                 (A) (A) (A) (A) (A) (A) (A) (A) (A) (A) (A) (A)
                 (A) (A) (A) (A) (A) (A) (A) (A) (A) (A) (A) (A)
                 (A) (A) (A) (A) (A) (A) (A) (A) (A) (A) (A) (A)
                 (A) (A) (A) (A) (A) (A) (A) (A) (A) (A) (A) (A)
                 (A) (A) (A) (A) (A) (A) (A) (A) (A) (A) (A) (A)
                 (A) (A) (A) (A) (A) (A) (A) (A) (A) (A) (A) (A)
                 (A) (A) (A) (A) (A) (A) (A) (A) (A) (A) (A) (A)
                 (A) (A) (A) (A) (A) (A) (A) (A) (A) (A) (A) (A)
                 (A) (A) (A) (A) (A) (A) (A) (A) (A) (A) (A) (A)
                 (A) (A) (A) (A) (A) (A) (A) (A) (A) (A) (A) (A)
                 (A) (A) (A) (A) (A) (A) (A) (A) (A) (A)
    24 initial guesses have been made.
 Convergence on wavefunction:    0.000001000000000
 Iteration     1 Dimension    24 NMult     0 NNew     24
 CISAX will form    24 AO SS matrices at one time.
 New state      1 was old state      3
 New state      3 was old state      1
 New state      4 was old state      5
 New state      5 was old state      6
 New state      6 was old state      7
 Iteration     2 Dimension    36 NMult    24 NNew     12
 New state      1 was old state      3
 New state      3 was old state      1
 Iteration     3 Dimension    48 NMult    36 NNew     12
 Iteration     4 Dimension    60 NMult    48 NNew     12
 Iteration     5 Dimension    72 NMult    60 NNew     12
 Iteration     6 Dimension    84 NMult    72 NNew     12
 Iteration     7 Dimension    96 NMult    84 NNew     12
 Iteration     8 Dimension   108 NMult    96 NNew     12
 Iteration     9 Dimension   118 NMult   108 NNew     10
 Iteration    10 Dimension   122 NMult   118 NNew      4
 Iteration    11 Dimension   126 NMult   122 NNew      4
 ***********************************************************************
 Excited states from <AA,BB:AA,BB> singles matrix:
 ***********************************************************************
 
 Ground to excited state transition densities written to RWF  633
 Ground to excited state transition electric dipole moments (Au):
       state          X           Y           Z        Dip. S.      Osc.
         1        -0.5342      0.6272     -0.0002      0.6788      0.0807
         2        -0.5560     -0.0946     -0.0002      0.3181      0.0389
         3         0.0008     -0.0004     -0.1277      0.0163      0.0021
         4        -0.0004      0.0001     -0.1406      0.0198      0.0027
         5         0.0005     -0.0000      0.0190      0.0004      0.0001
         6         0.0007      0.0003      0.1050      0.0110      0.0016
 Ground to excited state transition velocity dipole moments (Au):
       state          X           Y           Z        Dip. S.      Osc.
         1         0.0864     -0.1211      0.0000      0.0221      0.0827
         2         0.0963      0.0179      0.0000      0.0096      0.0348
         3        -0.0001      0.0001      0.0158      0.0002      0.0009
         4         0.0001     -0.0000      0.0304      0.0009      0.0030
         5        -0.0001      0.0000     -0.0029      0.0000      0.0000
         6        -0.0001     -0.0000     -0.0224      0.0005      0.0016
 Ground to excited state transition magnetic dipole moments (Au):
       state          X           Y           Z
         1         0.0003     -0.0000      0.1804
         2        -0.0000     -0.0002     -0.0259
         3         0.1231     -0.0694      0.0001
         4         0.0530     -0.2349     -0.0000
         5         0.3122     -0.1306      0.0002
         6         0.0988      0.3650      0.0006
 Ground to excited state transition velocity quadrupole moments (Au):
       state          XX          YY          ZZ          XY          XZ          YZ
         1         0.1913     -0.1086      0.0099      0.0460      0.0001      0.0001
         2         0.0763     -0.1145      0.0253      0.0017      0.0001     -0.0000
         3        -0.0003      0.0001      0.0001      0.0000      0.0606      0.0546
         4        -0.0000      0.0000     -0.0000     -0.0000      0.1655     -0.0050
         5        -0.0002     -0.0000      0.0000      0.0002      0.1657      0.2635
         6         0.0001     -0.0001      0.0001      0.0003     -0.3240      0.0061
 <0|del|b> * <b|rxdel|0> + <0|del|b> * <b|delr+rdel|0>
 Rotatory Strengths (R) in cgs (10**-40 erg-esu-cm/Gauss)
       state          XX          YY          ZZ    R(velocity)    E-M Angle
         1         0.0432      0.0678      0.0223      0.0444       90.00
         2        -0.0130     -0.0049     -0.0017     -0.0065       90.00
         3        -0.0187     -0.0449     -0.0194     -0.0277       90.00
         4         0.0133      0.0081      0.0119      0.0111       90.00
         5        -0.0032     -0.1081     -0.0090     -0.0401       90.00
         6        -0.0783     -0.0361     -0.0252     -0.0465       90.00
 1/2[<0|r|b>*<b|rxdel|0> + (<0|rxdel|b>*<b|r|0>)*]
 Rotatory Strengths (R) in cgs (10**-40 erg-esu-cm/Gauss)
       state          XX          YY          ZZ     R(length)
         1         0.1083      0.0201      0.0193      0.0493
         2        -0.0021     -0.0147     -0.0029     -0.0065
         3        -0.0731     -0.0213      0.0080     -0.0288
         4         0.0163      0.0150     -0.0006      0.0102
         5        -0.1211     -0.0010     -0.0033     -0.0418
         6        -0.0504     -0.0647     -0.0421     -0.0524
  1/2[<0|del|b>*<b|r|0> + (<0|r|b>*<b|del|0>)*] (Au)
       state          X           Y           Z        Dip. S.   Osc.(frdel)
         1        -0.0461     -0.0760     -0.0000      0.1221      0.0814
         2        -0.0535     -0.0017     -0.0000      0.0552      0.0368
         3        -0.0000     -0.0000     -0.0020      0.0020      0.0013
         4        -0.0000     -0.0000     -0.0043      0.0043      0.0029
         5        -0.0000     -0.0000     -0.0001      0.0001      0.0000
         6        -0.0000     -0.0000     -0.0024      0.0024      0.0016

 Excitation energies and oscillator strengths:
 
 Excited State   1:      Singlet-A      4.8538 eV  255.44 nm  f=0.0807  <S**2>=0.000
      30 -> 32        -0.14553
      30 -> 34         0.15438
      31 -> 32         0.66078
 This state for optimization and/or second-order correction.
 Total Energy, E(TD-HF/TD-DFT) =  -363.351296791    
 Copying the excited state density for this state as the 1-particle RhoCI density.
 
 Excited State   2:      Singlet-A      4.9922 eV  248.36 nm  f=0.0389  <S**2>=0.000
      30 -> 32         0.56231
      31 -> 32         0.12547
      31 -> 34        -0.39945
 
 Excited State   3:      Singlet-A      5.1504 eV  240.73 nm  f=0.0021  <S**2>=0.000
      31 -> 33         0.70305
 
 Excited State   4:      Singlet-A      5.6253 eV  220.40 nm  f=0.0027  <S**2>=0.000
      30 -> 33         0.68846
      31 -> 35         0.12839
 
 Excited State   5:      Singlet-A      5.7301 eV  216.37 nm  f=0.0001  <S**2>=0.000
      30 -> 33        -0.13100
      31 -> 35         0.68832
 
 Excited State   6:      Singlet-A      5.8466 eV  212.06 nm  f=0.0016  <S**2>=0.000
      31 -> 36         0.69611
 SavETr:  write IOETrn=   770 NScale= 10 NData=  16 NLR=1 NState=    6 LETran=     118.
          IDoAtm=1111111111111111
          Differentiating once with respect to electric field.
                with respect to dipole field.
          Differentiating once with respect to nuclear coordinates.
 Keep R1 ints in memory in canonical form, NReq=152083851.
          There are     1 degrees of freedom in the 1st order CPHF.  IDoFFX=0 NUNeed=     1.
 LinEq1:  Iter=  0 NonCon=     1 RMS=1.14D-02 Max=3.26D-01 NDo=     1
 AX will form     1 AO Fock derivatives at one time.
 LinEq1:  Iter=  1 NonCon=     1 RMS=4.35D-03 Max=9.65D-02 NDo=     1
 LinEq1:  Iter=  2 NonCon=     1 RMS=3.48D-03 Max=1.02D-01 NDo=     1
 LinEq1:  Iter=  3 NonCon=     1 RMS=1.42D-03 Max=3.56D-02 NDo=     1
 LinEq1:  Iter=  4 NonCon=     1 RMS=9.58D-04 Max=3.45D-02 NDo=     1
 LinEq1:  Iter=  5 NonCon=     1 RMS=4.45D-04 Max=7.89D-03 NDo=     1
 LinEq1:  Iter=  6 NonCon=     1 RMS=2.79D-04 Max=9.58D-03 NDo=     1
 LinEq1:  Iter=  7 NonCon=     1 RMS=1.46D-04 Max=3.80D-03 NDo=     1
 LinEq1:  Iter=  8 NonCon=     1 RMS=8.55D-05 Max=1.64D-03 NDo=     1
 LinEq1:  Iter=  9 NonCon=     1 RMS=3.83D-05 Max=8.70D-04 NDo=     1
 LinEq1:  Iter= 10 NonCon=     1 RMS=2.26D-05 Max=6.72D-04 NDo=     1
 LinEq1:  Iter= 11 NonCon=     1 RMS=8.41D-06 Max=1.51D-04 NDo=     1
 LinEq1:  Iter= 12 NonCon=     1 RMS=5.08D-06 Max=8.87D-05 NDo=     1
 LinEq1:  Iter= 13 NonCon=     1 RMS=1.55D-06 Max=2.49D-05 NDo=     1
 LinEq1:  Iter= 14 NonCon=     1 RMS=8.74D-07 Max=2.26D-05 NDo=     1
 LinEq1:  Iter= 15 NonCon=     1 RMS=2.31D-07 Max=4.39D-06 NDo=     1
 LinEq1:  Iter= 16 NonCon=     1 RMS=4.19D-08 Max=5.26D-07 NDo=     1
 LinEq1:  Iter= 17 NonCon=     1 RMS=2.29D-08 Max=5.15D-07 NDo=     1
 LinEq1:  Iter= 18 NonCon=     1 RMS=1.01D-08 Max=1.11D-07 NDo=     1
 LinEq1:  Iter= 19 NonCon=     1 RMS=1.85D-09 Max=2.88D-08 NDo=     1
 LinEq1:  Iter= 20 NonCon=     1 RMS=3.03D-10 Max=4.00D-09 NDo=     1
 LinEq1:  Iter= 21 NonCon=     0 RMS=7.70D-11 Max=9.07D-10 NDo=     1
 Linear equations converged to 1.000D-10 1.000D-09 after    21 iterations.
 End of Minotr F.D. properties file   721 does not exist.
 End of Minotr F.D. properties file   722 does not exist.
 End of Minotr F.D. properties file   788 does not exist.

 **********************************************************************

            Population analysis using the CI Density.

 **********************************************************************

 Orbital symmetries:
       Occupied  (A) (A) (A) (A) (A) (A) (A) (A) (A) (A) (A) (A)
                 (A) (A) (A) (A) (A) (A) (A) (A) (A) (A) (A) (A)
                 (A) (A) (A) (A) (A) (A) (A)
       Virtual   (A) (A) (A) (A) (A) (A) (A) (A) (A) (A) (A) (A)
                 (A) (A) (A) (A) (A) (A) (A) (A) (A) (A) (A) (A)
                 (A) (A) (A) (A) (A) (A) (A) (A) (A) (A) (A) (A)
                 (A) (A) (A) (A) (A) (A) (A) (A) (A) (A) (A) (A)
                 (A) (A) (A) (A) (A) (A) (A) (A) (A) (A) (A) (A)
                 (A) (A) (A) (A) (A) (A) (A) (A) (A) (A) (A) (A)
                 (A) (A) (A) (A) (A) (A) (A) (A) (A) (A) (A) (A)
                 (A) (A) (A) (A) (A) (A) (A) (A) (A) (A) (A) (A)
                 (A) (A) (A) (A) (A) (A) (A) (A) (A) (A) (A) (A)
                 (A) (A) (A) (A) (A) (A) (A) (A) (A) (A) (A) (A)
                 (A) (A) (A) (A) (A) (A) (A) (A) (A) (A) (A) (A)
                 (A) (A) (A) (A) (A) (A) (A) (A) (A) (A) (A) (A)
                 (A) (A) (A) (A) (A) (A) (A) (A) (A) (A)
 The electronic state is 1-A.
 Alpha  occ. eigenvalues --  -14.42116 -10.24728 -10.24538 -10.21513 -10.21124
 Alpha  occ. eigenvalues --  -10.20971 -10.20964 -10.20459 -10.20233  -1.00531
 Alpha  occ. eigenvalues --   -0.85993  -0.80223  -0.75386  -0.73534  -0.64053
 Alpha  occ. eigenvalues --   -0.61066  -0.59700  -0.55445  -0.49596  -0.48358
 Alpha  occ. eigenvalues --   -0.44944  -0.44071  -0.43528  -0.42235  -0.40260
 Alpha  occ. eigenvalues --   -0.36507  -0.34616  -0.34440  -0.28962  -0.23270
 Alpha  occ. eigenvalues --   -0.21571
 Alpha virt. eigenvalues --   -0.01450   0.00674   0.02216   0.02535   0.03119
 Alpha virt. eigenvalues --    0.04642   0.04740   0.05114   0.06779   0.06958
 Alpha virt. eigenvalues --    0.07535   0.07574   0.09470   0.09778   0.11597
 Alpha virt. eigenvalues --    0.11618   0.12036   0.13503   0.14424   0.14790
 Alpha virt. eigenvalues --    0.16304   0.16616   0.17487   0.17560   0.17972
 Alpha virt. eigenvalues --    0.18836   0.19544   0.19808   0.20572   0.20708
 Alpha virt. eigenvalues --    0.20950   0.21126   0.22700   0.23282   0.23955
 Alpha virt. eigenvalues --    0.24480   0.24621   0.25417   0.26478   0.26898
 Alpha virt. eigenvalues --    0.27957   0.28108   0.28675   0.30499   0.30996
 Alpha virt. eigenvalues --    0.31787   0.32495   0.34091   0.35972   0.37538
 Alpha virt. eigenvalues --    0.38716   0.40792   0.44336   0.45880   0.52305
 Alpha virt. eigenvalues --    0.59069   0.63576   0.68540   0.68545   0.71084
 Alpha virt. eigenvalues --    0.72737   0.73262   0.74143   0.74850   0.75360
 Alpha virt. eigenvalues --    0.76481   0.76916   0.78955   0.80416   0.81192
 Alpha virt. eigenvalues --    0.82598   0.86526   0.90565   0.91282   0.92446
 Alpha virt. eigenvalues --    0.94746   0.95472   0.96376   0.97155   0.99509
 Alpha virt. eigenvalues --    1.01450   1.04191   1.05852   1.07546   1.10420
 Alpha virt. eigenvalues --    1.12291   1.12628   1.18074   1.18907   1.21467
 Alpha virt. eigenvalues --    1.23435   1.24005   1.26197   1.32595   1.32799
 Alpha virt. eigenvalues --    1.34642   1.37862   1.42025   1.42708   1.46206
 Alpha virt. eigenvalues --    1.46614   1.47310   1.50411   1.50979   1.54906
 Alpha virt. eigenvalues --    1.59927   1.65966   1.79628   1.85454   1.89390
 Alpha virt. eigenvalues --    1.90044   1.93253   1.95359   2.00581   2.00851
 Alpha virt. eigenvalues --    2.01429   2.07432   2.11105   2.15311   2.18336
 Alpha virt. eigenvalues --    2.18394   2.20977   2.25871   2.27065   2.27586
 Alpha virt. eigenvalues --    2.29735   2.32624   2.39172   2.41957   2.45856
 Alpha virt. eigenvalues --    2.56084   2.56993   2.64994   2.67159   2.68190
 Alpha virt. eigenvalues --    2.71345   2.74992   2.82362   2.86093   2.87213
 Alpha virt. eigenvalues --    2.96921   2.99410   3.12760   3.25812   3.46396
 Alpha virt. eigenvalues --    4.17079   4.28241   4.31217   4.34687   4.38268
 Alpha virt. eigenvalues --    4.41812   4.50151   4.54072   4.81069
          Condensed to atoms (all electrons):
               1          2          3          4          5          6
     1  C    5.786291   0.420173   0.287408  -0.823899   0.203014  -0.306890
     2  C    0.420173   6.272008  -0.430139   0.523790  -1.007991   0.747869
     3  C    0.287408  -0.430139  14.012682  -2.111308  -3.977532  -3.318487
     4  C   -0.823899   0.523790  -2.111308  13.423104  -4.068591  -0.757562
     5  C    0.203014  -1.007991  -3.977532  -4.068591  15.616931  -0.373836
     6  C   -0.306890   0.747869  -3.318487  -0.757562  -0.373836  13.813093
     7  N   -0.024592   0.000630  -0.614403  -0.424618   1.035911   0.169650
     8  C    0.138365  -0.342460   3.508549   2.016303  -5.091412  -4.305595
     9  C   -0.088814   0.032145  -1.263413  -0.689808   1.818428   1.133473
    10  H   -0.001402  -0.009095  -0.121663  -0.052228   0.154963   0.021912
    11  H    0.003534   0.001244   0.002672   0.006375   0.012651   0.020364
    12  H    0.001199   0.000311   0.039055   0.108047  -0.120910  -0.023398
    13  H    0.028009   0.245813   0.015447   0.006730   0.016655  -0.007850
    14  H    0.013143   0.066902   0.186517   0.053325  -0.001053  -0.021161
    15  H    0.255805   0.023717   0.022282  -0.022990   0.031189  -0.013871
    16  H    0.038423   0.007703  -0.028428   0.026849   0.093689   0.186512
               7          8          9         10         11         12
     1  C   -0.024592   0.138365  -0.088814  -0.001402   0.003534   0.001199
     2  C    0.000630  -0.342460   0.032145  -0.009095   0.001244   0.000311
     3  C   -0.614403   3.508549  -1.263413  -0.121663   0.002672   0.039055
     4  C   -0.424618   2.016303  -0.689808  -0.052228   0.006375   0.108047
     5  C    1.035911  -5.091412   1.818428   0.154963   0.012651  -0.120910
     6  C    0.169650  -4.305595   1.133473   0.021912   0.020364  -0.023398
     7  N    7.205295  -0.808053   0.625194   0.264816   0.005364  -0.057931
     8  C   -0.808053  12.605564  -2.198025  -0.003485   0.261386   0.069095
     9  C    0.625194  -2.198025   6.689961  -0.022930  -0.014109   0.299796
    10  H    0.264816  -0.003485  -0.022930   0.315293  -0.000062  -0.001955
    11  H    0.005364   0.261386  -0.014109  -0.000062   0.458355  -0.000658
    12  H   -0.057931   0.069095   0.299796  -0.001955  -0.000658   0.454131
    13  H   -0.000538   0.000836   0.001166  -0.000002  -0.000000  -0.000000
    14  H   -0.009480  -0.004295   0.007338   0.002171   0.000002   0.000003
    15  H    0.000334   0.009131  -0.000189  -0.000000  -0.000002  -0.000000
    16  H   -0.001141  -0.036026   0.004175   0.000004   0.001366  -0.000001
              13         14         15         16
     1  C    0.028009   0.013143   0.255805   0.038423
     2  C    0.245813   0.066902   0.023717   0.007703
     3  C    0.015447   0.186517   0.022282  -0.028428
     4  C    0.006730   0.053325  -0.022990   0.026849
     5  C    0.016655  -0.001053   0.031189   0.093689
     6  C   -0.007850  -0.021161  -0.013871   0.186512
     7  N   -0.000538  -0.009480   0.000334  -0.001141
     8  C    0.000836  -0.004295   0.009131  -0.036026
     9  C    0.001166   0.007338  -0.000189   0.004175
    10  H   -0.000002   0.002171  -0.000000   0.000004
    11  H   -0.000000   0.000002  -0.000002   0.001366
    12  H   -0.000000   0.000003  -0.000000  -0.000001
    13  H    0.502798  -0.004246  -0.004180  -0.000151
    14  H   -0.004246   0.511303  -0.000153   0.000018
    15  H   -0.004180  -0.000153   0.503357  -0.004131
    16  H   -0.000151   0.000018  -0.004131   0.506247
 Mulliken charges:
               1
     1  C    0.070232
     2  C   -0.552617
     3  C   -0.209240
     4  C   -1.213518
     5  C    1.657894
     6  C   -0.964223
     7  N   -0.366436
     8  C    0.180120
     9  C   -0.334387
    10  H    0.453663
    11  H    0.241519
    12  H    0.233215
    13  H    0.199515
    14  H    0.199666
    15  H    0.199702
    16  H    0.204894
 Sum of Mulliken charges =  -0.00000
 Mulliken charges with hydrogens summed into heavy atoms:
               1
     1  C    0.269934
     2  C   -0.353102
     3  C   -0.009574
     4  C   -1.213518
     5  C    1.657894
     6  C   -0.759329
     7  N    0.087227
     8  C    0.421639
     9  C   -0.101173
 Electronic spatial extent (au):  <R**2>=           1007.2170
 Charge=             -0.0000 electrons
 Dipole moment (field-independent basis, Debye):
    X=              4.0388    Y=             -1.1335    Z=             -0.0013  Tot=              4.1948
 Quadrupole moment (field-independent basis, Debye-Ang):
   XX=            -45.7057   YY=            -45.4336   ZZ=            -60.2145
   XY=             -2.6644   XZ=             -0.0016   YZ=              0.0003
 Traceless Quadrupole moment (field-independent basis, Debye-Ang):
   XX=              4.7456   YY=              5.0177   ZZ=             -9.7632
   XY=             -2.6644   XZ=             -0.0016   YZ=              0.0003
 Octapole moment (field-independent basis, Debye-Ang**2):
  XXX=             23.9985  YYY=             -8.7590  ZZZ=             -0.0154  XYY=             15.8563
  XXY=             -5.4240  XXZ=             -0.0058  XZZ=              4.6354  YZZ=             -0.7861
  YYZ=             -0.0105  XYZ=             -0.0011
 Hexadecapole moment (field-independent basis, Debye-Ang**3):
 XXXX=           -845.4739 YYYY=           -386.9963 ZZZZ=            -85.0833 XXXY=            -19.4513
 XXXZ=             -0.0306 YYYX=            -15.8564 YYYZ=              0.0130 ZZZX=             -0.0183
 ZZZY=              0.0163 XXYY=           -191.5865 XXZZ=           -199.3320 YYZZ=           -101.7219
 XXYZ=              0.0018 YYXZ=              0.0003 ZZXY=             -2.1427
 N-N= 4.013295037918D+02 E-N=-1.644869767600D+03  KE= 3.604423743423D+02
 R6APFD:  NTU= -4 IXU= 1 FactS= 1.050
 Calling FoFJK, ICntrl=  10005127 FMM=F ISym2X=0 I1Cent= 0 IOpClX= 0 NMat=1 NMatS=1 NMatT=0.
 ***** Axes restored to original set *****
 -------------------------------------------------------------------
 Center     Atomic                   Forces (Hartrees/Bohr)
 Number     Number              X              Y              Z
 -------------------------------------------------------------------
      1        6          -0.025252796   -0.037387472   -0.000003311
      2        6          -0.040940404    0.041463758    0.000002295
      3        6           0.038333826   -0.033110036    0.000007265
      4        6          -0.011501532    0.018671771   -0.000020632
      5        6           0.012922477   -0.018673325   -0.000026122
      6        6           0.013151466    0.033802251    0.000000934
      7        7           0.011690462    0.029894760    0.000056813
      8        6          -0.036042054    0.019547460    0.000021800
      9        6           0.035356349   -0.050733388   -0.000034874
     10        1           0.002925951   -0.006900838   -0.000001182
     11        1           0.001959436    0.004088015    0.000002672
     12        1           0.003370681   -0.001025933   -0.000005079
     13        1          -0.003607657   -0.001364223    0.000000079
     14        1           0.000829588   -0.003829229   -0.000004344
     15        1          -0.003612469    0.001688435    0.000000975
     16        1           0.000416676    0.003867993    0.000002711
 -------------------------------------------------------------------
 Cartesian Forces:  Max     0.050733388 RMS     0.018816362

 GradGradGradGradGradGradGradGradGradGradGradGradGradGradGradGradGradGrad
 Berny optimization.
 FormGI is forming the generalized inverse of G from B-inverse, IUseBI=4.
 Internal  Forces:  Max     0.051116598 RMS     0.009927848
 Search for a local minimum.
 Step number   1 out of a maximum of   94
 All quantities printed in internal units (Hartrees-Bohrs-Radians)
 Mixed Optimization -- RFO/linear search
 Second derivative matrix not updated -- first step.
 ITU=  0
     Eigenvalues ---    0.01853   0.01931   0.01986   0.02012   0.02070
     Eigenvalues ---    0.02113   0.02148   0.02153   0.02172   0.02209
     Eigenvalues ---    0.02233   0.02248   0.02338   0.16000   0.16000
     Eigenvalues ---    0.16000   0.16000   0.16000   0.16000   0.16000
     Eigenvalues ---    0.22000   0.22188   0.22662   0.24011   0.24651
     Eigenvalues ---    0.35712   0.35717   0.35783   0.35790   0.36420
     Eigenvalues ---    0.36427   0.37009   0.38432   0.42633   0.43465
     Eigenvalues ---    0.45769   0.46692   0.47162   0.47468   0.47567
     Eigenvalues ---    0.48125   0.50955
 RFO step:  Lambda=-1.81885837D-02 EMin= 1.85287394D-02
 Linear search not attempted -- first point.
 Iteration  1 RMS(Cart)=  0.03069202 RMS(Int)=  0.00032786
 Iteration  2 RMS(Cart)=  0.00041191 RMS(Int)=  0.00014119
 Iteration  3 RMS(Cart)=  0.00000009 RMS(Int)=  0.00014119
 Variable       Old X    -DE/DX   Delta X   Delta X   Delta X     New X
                                 (Linear)    (Quad)   (Total)
    R1        2.65547  -0.01311   0.00000  -0.02588  -0.02585   2.62963
    R2        2.61291   0.03742   0.00000   0.07534   0.07536   2.68827
    R3        2.04421   0.00398   0.00000   0.01059   0.01059   2.05480
    R4        2.61557   0.05112   0.00000   0.10289   0.10290   2.71847
    R5        2.04411   0.00380   0.00000   0.01011   0.01011   2.05422
    R6        2.63373   0.00890   0.00000   0.01715   0.01713   2.65087
    R7        2.04534   0.00384   0.00000   0.01023   0.01023   2.05557
    R8        2.68058  -0.00719   0.00000  -0.02230  -0.02255   2.65803
    R9        2.60126   0.01736   0.00000   0.03087   0.03111   2.63238
   R10        2.64771   0.02165   0.00000   0.04478   0.04476   2.69247
   R11        2.70839   0.00046   0.00000   0.00219   0.00182   2.71021
   R12        2.04526   0.00385   0.00000   0.01027   0.01027   2.05553
   R13        2.60573  -0.01790   0.00000  -0.03352  -0.03315   2.57258
   R14        1.89542   0.00747   0.00000   0.01525   0.01525   1.91067
   R15        2.57870   0.04248   0.00000   0.08251   0.08250   2.66120
   R16        2.03419   0.00451   0.00000   0.01180   0.01180   2.04599
   R17        2.03430   0.00346   0.00000   0.00905   0.00905   2.04335
    A1        2.11420   0.00046   0.00000   0.00763   0.00763   2.12183
    A2        2.07986  -0.00045   0.00000  -0.00508  -0.00508   2.07478
    A3        2.08912  -0.00000   0.00000  -0.00255  -0.00255   2.08658
    A4        2.11523  -0.00144   0.00000  -0.00063  -0.00063   2.11460
    A5        2.08365   0.00006   0.00000  -0.00338  -0.00338   2.08028
    A6        2.08430   0.00138   0.00000   0.00401   0.00401   2.08831
    A7        2.05144  -0.00388   0.00000  -0.01764  -0.01769   2.03375
    A8        2.11267   0.00273   0.00000   0.01327   0.01330   2.12597
    A9        2.11908   0.00115   0.00000   0.00436   0.00439   2.12347
   A10        2.13389   0.00472   0.00000   0.01698   0.01689   2.15078
   A11        2.27895  -0.00641   0.00000  -0.01406  -0.01401   2.26494
   A12        1.87035   0.00169   0.00000  -0.00292  -0.00288   1.86747
   A13        2.07274   0.00510   0.00000   0.01521   0.01541   2.08816
   A14        1.86517  -0.00311   0.00000  -0.01422  -0.01476   1.85042
   A15        2.34527  -0.00199   0.00000  -0.00100  -0.00066   2.34461
   A16        2.07887  -0.00496   0.00000  -0.02157  -0.02161   2.05726
   A17        2.10306   0.00301   0.00000   0.01379   0.01381   2.11687
   A18        2.10125   0.00194   0.00000   0.00778   0.00780   2.10905
   A19        1.90743   0.01230   0.00000   0.04688   0.04741   1.95484
   A20        2.19023  -0.00557   0.00000  -0.02017  -0.02044   2.16979
   A21        2.18553  -0.00673   0.00000  -0.02671  -0.02697   2.15856
   A22        1.86968   0.00655   0.00000   0.03506   0.03469   1.90438
   A23        2.21717  -0.00284   0.00000  -0.01510  -0.01492   2.20225
   A24        2.19633  -0.00371   0.00000  -0.01996  -0.01978   2.17656
   A25        1.91215  -0.01743   0.00000  -0.06480  -0.06447   1.84768
   A26        2.10250   0.00804   0.00000   0.02860   0.02844   2.13094
   A27        2.26854   0.00939   0.00000   0.03620   0.03603   2.30457
    D1       -0.00001   0.00000   0.00000   0.00001   0.00001  -0.00001
    D2       -3.14156  -0.00000   0.00000  -0.00002  -0.00002  -3.14158
    D3        3.14152   0.00000   0.00000   0.00005   0.00005   3.14158
    D4       -0.00002   0.00000   0.00000   0.00003   0.00003   0.00000
    D5       -0.00003   0.00000   0.00000   0.00006   0.00006   0.00003
    D6        3.14153   0.00000   0.00000   0.00006   0.00006   3.14159
    D7       -3.14157   0.00000   0.00000   0.00002   0.00002  -3.14155
    D8       -0.00001   0.00000   0.00000   0.00001   0.00001   0.00001
    D9        0.00003  -0.00000   0.00000  -0.00006  -0.00006  -0.00002
   D10       -3.14154  -0.00000   0.00000   0.00001   0.00001  -3.14153
   D11        3.14158  -0.00000   0.00000  -0.00003  -0.00003   3.14155
   D12        0.00001   0.00000   0.00000   0.00004   0.00004   0.00004
   D13       -0.00001  -0.00000   0.00000   0.00003   0.00004   0.00003
   D14       -3.14144  -0.00000   0.00000  -0.00004  -0.00004  -3.14147
   D15        3.14156  -0.00000   0.00000  -0.00003  -0.00003   3.14153
   D16        0.00013  -0.00000   0.00000  -0.00010  -0.00010   0.00003
   D17       -0.00004   0.00000   0.00000   0.00003   0.00003  -0.00001
   D18       -3.14151   0.00000   0.00000  -0.00004  -0.00005  -3.14156
   D19        3.14143   0.00000   0.00000   0.00009   0.00009   3.14151
   D20       -0.00005   0.00000   0.00000   0.00001   0.00001  -0.00004
   D21       -3.14124  -0.00000   0.00000  -0.00025  -0.00026  -3.14151
   D22       -0.00113   0.00001   0.00000   0.00021   0.00020  -0.00093
   D23        0.00049  -0.00001   0.00000  -0.00031  -0.00033   0.00017
   D24        3.14060   0.00001   0.00000   0.00014   0.00013   3.14074
   D25        0.00005  -0.00000   0.00000  -0.00008  -0.00008  -0.00002
   D26       -3.14151  -0.00000   0.00000  -0.00008  -0.00008  -3.14159
   D27        3.14150  -0.00000   0.00000   0.00002   0.00003   3.14152
   D28       -0.00007  -0.00000   0.00000   0.00002   0.00003  -0.00004
   D29       -0.00041   0.00001   0.00000   0.00032   0.00032  -0.00009
   D30        3.14139   0.00000   0.00000   0.00001   0.00001   3.14140
   D31        3.14132   0.00001   0.00000   0.00022   0.00022   3.14155
   D32       -0.00006  -0.00000   0.00000  -0.00008  -0.00008  -0.00015
   D33       -0.00077   0.00003   0.00000   0.00057   0.00056  -0.00022
   D34        3.14133   0.00001   0.00000   0.00029   0.00029  -3.14157
   D35       -3.14089   0.00001   0.00000   0.00010   0.00009  -3.14080
   D36        0.00121  -0.00000   0.00000  -0.00017  -0.00018   0.00103
   D37        0.00072  -0.00002   0.00000  -0.00054  -0.00054   0.00018
   D38       -3.14144  -0.00001   0.00000  -0.00024  -0.00024   3.14150
   D39       -3.14107  -0.00001   0.00000  -0.00024  -0.00023  -3.14131
   D40       -0.00005   0.00000   0.00000   0.00007   0.00006   0.00001
         Item               Value     Threshold  Converged?
 Maximum Force            0.051117     0.000450     NO 
 RMS     Force            0.009928     0.000300     NO 
 Maximum Displacement     0.111125     0.001800     NO 
 RMS     Displacement     0.030657     0.001200     NO 
 Predicted change in Energy=-9.487039D-03
 GradGradGradGradGradGradGradGradGradGradGradGradGradGradGradGradGradGrad

                          Input orientation:                          
 ---------------------------------------------------------------------
 Center     Atomic      Atomic             Coordinates (Angstroms)
 Number     Number       Type             X           Y           Z
 ---------------------------------------------------------------------
      1          6           0       -2.192080    0.684473    0.000019
      2          6           0       -2.165177   -0.706806    0.000018
      3          6           0       -0.919978   -1.427166    0.000037
      4          6           0        0.250791   -0.654453    0.000029
      5          6           0        0.246014    0.752106    0.000038
      6          6           0       -0.994699    1.452580    0.000049
      7          7           0        1.584307   -1.057153   -0.000084
      8          6           0        1.623138    1.152605   -0.000015
      9          6           0        2.437473    0.003688    0.000061
     10          1           0        1.888622   -2.021355    0.000598
     11          1           0        1.992803    2.170233   -0.000190
     12          1           0        3.511354   -0.122725   -0.000017
     13          1           0       -3.103741   -1.255233   -0.000019
     14          1           0       -0.886587   -2.514415   -0.000025
     15          1           0       -3.154215    1.191066   -0.000012
     16          1           0       -1.021123    2.540002    0.000049
 ---------------------------------------------------------------------
                    Distance matrix (angstroms):
                    1          2          3          4          5
     1  C    0.000000
     2  C    1.391539   0.000000
     3  C    2.465210   1.438554   0.000000
     4  C    2.785739   2.416535   1.402778   0.000000
     5  C    2.439032   2.818203   2.471592   1.406567   0.000000
     6  C    1.422572   2.456210   2.880716   2.447618   1.424793
     7  N    4.158649   3.765816   2.531473   1.392994   2.250432
     8  C    3.843831   4.220040   3.622521   2.269096   1.434179
     9  C    4.679341   4.657165   3.649633   2.283578   2.315733
    10  H    4.896288   4.261611   2.870766   2.133287   3.223390
    11  H    4.440803   5.056298   4.628777   3.318653   2.249968
    12  H    5.760271   5.706500   4.619337   3.303635   3.380499
    13  H    2.143264   1.087049   2.190521   3.407906   3.905159
    14  H    3.455025   2.214101   1.087761   2.180157   3.457303
    15  H    1.087355   2.140121   3.441940   3.872984   3.428447
    16  H    2.194112   3.442473   3.968457   3.438358   2.191394
                    6          7          8          9         10
     6  C    0.000000
     7  N    3.598616   0.000000
     8  C    2.634968   2.210099   0.000000
     9  C    3.725466   1.361350   1.408244   0.000000
    10  H    4.514617   1.011085   3.185043   2.098103   0.000000
    11  H    3.072490   3.253135   1.082691   2.211707   4.192882
    12  H    4.773479   2.141649   2.278557   1.081296   2.497609
    13  H    3.432246   4.692231   5.304816   5.682423   5.050806
    14  H    3.968468   2.868611   4.443619   4.170158   2.818669
    15  H    2.175293   5.244815   4.777508   5.716366   5.979118
    16  H    1.087742   4.441597   2.986133   4.288913   5.410415
                   11         12         13         14         15
    11  H    0.000000
    12  H    2.750210   0.000000
    13  H    6.140731   6.711338   0.000000
    14  H    5.498801   5.006202   2.549767   0.000000
    15  H    5.239329   6.793810   2.446819   4.344275   0.000000
    16  H    3.036524   5.256754   4.329099   5.056207   2.523828
                   16
    16  H    0.000000
 Stoichiometry    C8H7N
 Framework group  C1[X(C8H7N)]
 Deg. of freedom    42
 Full point group                 C1      NOp   1
 Largest Abelian subgroup         C1      NOp   1
 Largest concise Abelian subgroup C1      NOp   1
                         Standard orientation:                         
 ---------------------------------------------------------------------
 Center     Atomic      Atomic             Coordinates (Angstroms)
 Number     Number       Type             X           Y           Z
 ---------------------------------------------------------------------
      1          6           0       -2.199672    0.659117   -0.000000
      2          6           0       -2.158032   -0.731799   -0.000002
      3          6           0       -0.905273   -1.438928    0.000017
      4          6           0        0.257245   -0.653856    0.000010
      5          6           0        0.237569    0.752573    0.000018
      6          6           0       -1.010495    1.439866    0.000029
      7          7           0        1.594953   -1.042407   -0.000103
      8          6           0        1.610373    1.167638   -0.000035
      9          6           0        2.436833    0.027412    0.000042
     10          1           0        1.909464   -2.003331    0.000578
     11          1           0        1.969238    2.189125   -0.000210
     12          1           0        3.511993   -0.087619   -0.000036
     13          1           0       -3.090735   -1.290137   -0.000039
     14          1           0       -0.860366   -2.525762   -0.000045
     15          1           0       -3.167119    1.155490   -0.000032
     16          1           0       -1.048436    2.526946    0.000029
 ---------------------------------------------------------------------
 Rotational constants (GHZ):           3.8981271           1.5937280           1.1312306
 Standard basis: 6-31+G(d) (6D, 7F)
 There are   185 symmetry adapted cartesian basis functions of A   symmetry.
 There are   185 symmetry adapted basis functions of A   symmetry.
   185 basis functions,   316 primitive gaussians,   185 cartesian basis functions
    31 alpha electrons       31 beta electrons
       nuclear repulsion energy       397.6015919481 Hartrees.
 NAtoms=   16 NActive=   16 NUniq=   16 SFac= 1.00D+00 NAtFMM=   60 NAOKFM=F Big=F
 Integral buffers will be    131072 words long.
 Regular integral format.
 Two-electron integral symmetry is turned on.
 R6APFD:  NTU= -4 IXU= 1 FactS= 1.050
 Nuclear repulsion after empirical dispersion term =      397.5941065396 Hartrees.
 One-electron integrals computed using PRISM.
 NBasis=   185 RedAO= T EigKep=  1.32D-06  NBF=   185
 NBsUse=   185 1.00D-06 EigRej= -1.00D+00 NBFU=   185
 Initial guess from the checkpoint file:  "FuncsAPFD-V-1st.chk"
 B after Tr=     0.000000   -0.000000    0.000000
         Rot=    0.999986    0.000005    0.000006   -0.005360 Ang=   0.61 deg.
 ExpMin= 4.38D-02 ExpMax= 4.17D+03 ExpMxC= 6.27D+02 IAcc=3 IRadAn=         5 AccDes= 0.00D+00
 Harris functional with IExCor= 3731 and IRadAn=       5 diagonalized for initial guess.
 HarFok:  IExCor= 3731 AccDes= 0.00D+00 IRadAn=         5 IDoV= 1 UseB2=F ITyADJ=14
 ICtDFT=  3500011 ScaDFX=  1.000000  1.000000  1.000000  1.000000
 FoFCou: FMM=F IPFlag=           0 FMFlag=      100000 FMFlg1=           0
         NFxFlg=           0 DoJE=T BraDBF=F KetDBF=T FulRan=T
         wScrn=  0.000000 ICntrl=       500 IOpCl=  0 I1Cent=   200000004 NGrid=           0
         NMat0=    1 NMatS0=      1 NMatT0=    0 NMatD0=    1 NMtDS0=    0 NMtDT0=    0
 Petite list used in FoFCou.
 Keep R1 ints in memory in canonical form, NReq=152071459.
 Requested convergence on RMS density matrix=1.00D-08 within 128 cycles.
 Requested convergence on MAX density matrix=1.00D-06.
 Requested convergence on             energy=1.00D-06.
 No special actions if energy rises.
 SCF Done:  E(RAPFD) =  -363.523006743     A.U. after   13 cycles
            NFock= 13  Conv=0.57D-08     -V/T= 2.0101
 DoSCS=F DFT=T ScalE2(SS,OS)=  1.000000  1.000000
 ExpMin= 4.38D-02 ExpMax= 4.17D+03 ExpMxC= 6.27D+02 IAcc=3 IRadAn=         5 AccDes= 0.00D+00
 HarFok:  IExCor=  205 AccDes= 0.00D+00 IRadAn=         5 IDoV=-2 UseB2=F ITyADJ=14
 ICtDFT= 12500011 ScaDFX=  1.000000  1.000000  1.000000  1.000000
 Range of M.O.s used for correlation:    10   185
 NBasis=   185 NAE=    31 NBE=    31 NFC=     9 NFV=     0
 NROrb=    176 NOA=    22 NOB=    22 NVA=   154 NVB=   154

 **** Warning!!: The largest alpha MO coefficient is  0.18538870D+03

 Orbital symmetries:
       Occupied  (A) (A) (A) (A) (A) (A) (A) (A) (A) (A) (A) (A)
                 (A) (A) (A) (A) (A) (A) (A) (A) (A) (A) (A) (A)
                 (A) (A) (A) (A) (A) (A) (A)
       Virtual   (A) (A) (A) (A) (A) (A) (A) (A) (A) (A) (A) (A)
                 (A) (A) (A) (A) (A) (A) (A) (A) (A) (A) (A) (A)
                 (A) (A) (A) (A) (A) (A) (A) (A) (A) (A) (A) (A)
                 (A) (A) (A) (A) (A) (A) (A) (A) (A) (A) (A) (A)
                 (A) (A) (A) (A) (A) (A) (A) (A) (A) (A) (A) (A)
                 (A) (A) (A) (A) (A) (A) (A) (A) (A) (A) (A) (A)
                 (A) (A) (A) (A) (A) (A) (A) (A) (A) (A) (A) (A)
                 (A) (A) (A) (A) (A) (A) (A) (A) (A) (A) (A) (A)
                 (A) (A) (A) (A) (A) (A) (A) (A) (A) (A) (A) (A)
                 (A) (A) (A) (A) (A) (A) (A) (A) (A) (A) (A) (A)
                 (A) (A) (A) (A) (A) (A) (A) (A) (A) (A) (A) (A)
                 (A) (A) (A) (A) (A) (A) (A) (A) (A) (A) (A) (A)
                 (A) (A) (A) (A) (A) (A) (A) (A) (A) (A)
 Generating guess from densities on rwf.
 Convergence on wavefunction:    0.000001000000000
 Iteration     1 Dimension    12 NMult     0 NNew     12
 CISAX will form    12 AO SS matrices at one time.
 New state      4 was old state      5
 New state      5 was old state      4
 Iteration     2 Dimension    24 NMult    12 NNew     12
 New state      5 was old state      6
 New state      6 was old state      5
 Iteration     3 Dimension    36 NMult    24 NNew     12
 Iteration     4 Dimension    48 NMult    36 NNew     12
 Iteration     5 Dimension    60 NMult    48 NNew     12
 Iteration     6 Dimension    72 NMult    60 NNew     12
 Iteration     7 Dimension    84 NMult    72 NNew     12
 Iteration     8 Dimension    96 NMult    84 NNew     12
 Iteration     9 Dimension   108 NMult    96 NNew     12
 Iteration    10 Dimension   116 NMult   108 NNew      8
 Iteration    11 Dimension   120 NMult   116 NNew      4
 ***********************************************************************
 Excited states from <AA,BB:AA,BB> singles matrix:
 ***********************************************************************
 
 Ground to excited state transition densities written to RWF  633
 Ground to excited state transition electric dipole moments (Au):
       state          X           Y           Z        Dip. S.      Osc.
         1        -0.6807      0.6792     -0.0001      0.9248      0.0996
         2        -0.3286     -0.1685     -0.0001      0.1364      0.0162
         3         0.0005     -0.0001     -0.1310      0.0172      0.0021
         4         0.0002     -0.0000     -0.0168      0.0003      0.0000
         5         0.0002      0.0001      0.1384      0.0191      0.0026
         6        -0.0008     -0.0001     -0.1137      0.0129      0.0018
 Ground to excited state transition velocity dipole moments (Au):
       state          X           Y           Z        Dip. S.      Osc.
         1         0.1001     -0.1194      0.0000      0.0243      0.1002
         2         0.0549      0.0319      0.0000      0.0040      0.0151
         3        -0.0001      0.0000      0.0156      0.0002      0.0009
         4        -0.0000     -0.0000      0.0051      0.0000      0.0001
         5        -0.0000     -0.0000     -0.0281      0.0008      0.0025
         6         0.0002      0.0000      0.0260      0.0007      0.0021
 Ground to excited state transition magnetic dipole moments (Au):
       state          X           Y           Z
         1         0.0001      0.0000      0.1580
         2         0.0000     -0.0001      0.0409
         3         0.1328     -0.0713      0.0001
         4         0.3143     -0.1565      0.0001
         5         0.0867      0.3843      0.0002
         6         0.0020     -0.1360     -0.0002
 Ground to excited state transition velocity quadrupole moments (Au):
       state          XX          YY          ZZ          XY          XZ          YZ
         1         0.1789     -0.1182      0.0109      0.0664      0.0000     -0.0000
         2         0.0350     -0.0843      0.0259      0.0064      0.0001      0.0000
         3        -0.0001      0.0001      0.0000      0.0000      0.0640      0.0525
         4         0.0000     -0.0001      0.0000      0.0000      0.1815      0.2458
         5         0.0000     -0.0001      0.0000      0.0001     -0.3395     -0.0038
         6         0.0001     -0.0001     -0.0000     -0.0001      0.0665     -0.0606
 <0|del|b> * <b|rxdel|0> + <0|del|b> * <b|delr+rdel|0>
 Rotatory Strengths (R) in cgs (10**-40 erg-esu-cm/Gauss)
       state          XX          YY          ZZ    R(velocity)    E-M Angle
         1         0.0043      0.0169      0.0037      0.0083       90.00
         2        -0.0105      0.0068     -0.0030     -0.0022       90.00
         3         0.0011     -0.0274     -0.0127     -0.0130       90.00
         4         0.0019     -0.0374     -0.0047     -0.0134       90.00
         5        -0.0269     -0.0116     -0.0079     -0.0155       90.00
         6        -0.0225     -0.0219      0.0152     -0.0097       90.00
 1/2[<0|r|b>*<b|rxdel|0> + (<0|rxdel|b>*<b|r|0>)*]
 Rotatory Strengths (R) in cgs (10**-40 erg-esu-cm/Gauss)
       state          XX          YY          ZZ     R(length)
         1         0.0373     -0.0115      0.0062      0.0107
         2         0.0063     -0.0144      0.0035     -0.0015
         3        -0.0471     -0.0026      0.0084     -0.0138
         4        -0.0463     -0.0002      0.0016     -0.0150
         5        -0.0146     -0.0220     -0.0183     -0.0183
         6         0.0012     -0.0111     -0.0172     -0.0091
  1/2[<0|del|b>*<b|r|0> + (<0|r|b>*<b|del|0>)*] (Au)
       state          X           Y           Z        Dip. S.   Osc.(frdel)
         1        -0.0681     -0.0811     -0.0000      0.1493      0.0995
         2        -0.0180     -0.0054     -0.0000      0.0234      0.0156
         3        -0.0000     -0.0000     -0.0020      0.0020      0.0014
         4        -0.0000      0.0000     -0.0001      0.0001      0.0001
         5        -0.0000     -0.0000     -0.0039      0.0039      0.0026
         6        -0.0000     -0.0000     -0.0030      0.0030      0.0020

 Excitation energies and oscillator strengths:
 
 Excited State   1:      Singlet-A      4.3945 eV  282.14 nm  f=0.0996  <S**2>=0.000
      29 -> 32         0.10684
      30 -> 34         0.10581
      31 -> 32         0.68235
 This state for optimization and/or second-order correction.
 Total Energy, E(TD-HF/TD-DFT) =  -363.361512191    
 Copying the excited state density for this state as the 1-particle RhoCI density.
 
 Excited State   2:      Singlet-A      4.8474 eV  255.78 nm  f=0.0162  <S**2>=0.000
      30 -> 32         0.55739
      31 -> 34        -0.42338
 
 Excited State   3:      Singlet-A      4.9089 eV  252.57 nm  f=0.0021  <S**2>=0.000
      31 -> 33         0.70334
 
 Excited State   4:      Singlet-A      5.5055 eV  225.20 nm  f=0.0000  <S**2>=0.000
      31 -> 35         0.69782
 
 Excited State   5:      Singlet-A      5.6320 eV  220.14 nm  f=0.0026  <S**2>=0.000
      31 -> 36        -0.69423
 
 Excited State   6:      Singlet-A      5.7957 eV  213.92 nm  f=0.0018  <S**2>=0.000
      30 -> 33         0.69486
 SavETr:  write IOETrn=   770 NScale= 10 NData=  16 NLR=1 NState=    6 LETran=     118.
          IDoAtm=1111111111111111
          Differentiating once with respect to electric field.
                with respect to dipole field.
          Differentiating once with respect to nuclear coordinates.
 Keep R1 ints in memory in canonical form, NReq=152083851.
          There are     1 degrees of freedom in the 1st order CPHF.  IDoFFX=0 NUNeed=     1.
 LinEq1:  Iter=  0 NonCon=     1 RMS=1.40D-02 Max=4.37D-01 NDo=     1
 AX will form     1 AO Fock derivatives at one time.
 LinEq1:  Iter=  1 NonCon=     1 RMS=5.17D-03 Max=1.05D-01 NDo=     1
 LinEq1:  Iter=  2 NonCon=     1 RMS=4.41D-03 Max=1.54D-01 NDo=     1
 LinEq1:  Iter=  3 NonCon=     1 RMS=1.87D-03 Max=4.18D-02 NDo=     1
 LinEq1:  Iter=  4 NonCon=     1 RMS=1.33D-03 Max=4.22D-02 NDo=     1
 LinEq1:  Iter=  5 NonCon=     1 RMS=6.14D-04 Max=1.28D-02 NDo=     1
 LinEq1:  Iter=  6 NonCon=     1 RMS=4.37D-04 Max=1.52D-02 NDo=     1
 LinEq1:  Iter=  7 NonCon=     1 RMS=1.86D-04 Max=4.66D-03 NDo=     1
 LinEq1:  Iter=  8 NonCon=     1 RMS=1.12D-04 Max=2.05D-03 NDo=     1
 LinEq1:  Iter=  9 NonCon=     1 RMS=5.23D-05 Max=1.39D-03 NDo=     1
 LinEq1:  Iter= 10 NonCon=     1 RMS=3.01D-05 Max=6.75D-04 NDo=     1
 LinEq1:  Iter= 11 NonCon=     1 RMS=1.50D-05 Max=3.19D-04 NDo=     1
 LinEq1:  Iter= 12 NonCon=     1 RMS=8.06D-06 Max=1.59D-04 NDo=     1
 LinEq1:  Iter= 13 NonCon=     1 RMS=2.63D-06 Max=6.01D-05 NDo=     1
 LinEq1:  Iter= 14 NonCon=     1 RMS=1.50D-06 Max=1.94D-05 NDo=     1
 LinEq1:  Iter= 15 NonCon=     1 RMS=3.02D-07 Max=6.31D-06 NDo=     1
 LinEq1:  Iter= 16 NonCon=     1 RMS=6.83D-08 Max=1.33D-06 NDo=     1
 LinEq1:  Iter= 17 NonCon=     1 RMS=4.39D-08 Max=9.00D-07 NDo=     1
 LinEq1:  Iter= 18 NonCon=     1 RMS=1.49D-08 Max=4.07D-07 NDo=     1
 LinEq1:  Iter= 19 NonCon=     1 RMS=2.80D-09 Max=4.25D-08 NDo=     1
 LinEq1:  Iter= 20 NonCon=     1 RMS=5.39D-10 Max=6.60D-09 NDo=     1
 LinEq1:  Iter= 21 NonCon=     1 RMS=8.90D-11 Max=1.07D-09 NDo=     1
 LinEq1:  Iter= 22 NonCon=     0 RMS=2.65D-11 Max=3.95D-10 NDo=     1
 Linear equations converged to 1.000D-10 1.000D-09 after    22 iterations.
 End of Minotr F.D. properties file   721 does not exist.
 End of Minotr F.D. properties file   722 does not exist.
 End of Minotr F.D. properties file   788 does not exist.
 R6APFD:  NTU= -4 IXU= 1 FactS= 1.050
 Calling FoFJK, ICntrl=  10005127 FMM=F ISym2X=0 I1Cent= 0 IOpClX= 0 NMat=1 NMatS=1 NMatT=0.
 ***** Axes restored to original set *****
 -------------------------------------------------------------------
 Center     Atomic                   Forces (Hartrees/Bohr)
 Number     Number              X              Y              Z
 -------------------------------------------------------------------
      1        6          -0.000772947   -0.011649775   -0.000001205
      2        6          -0.001822097    0.013548148    0.000000460
      3        6           0.006654571   -0.011649598    0.000002539
      4        6          -0.009432179    0.010707552   -0.000003780
      5        6           0.004855294   -0.008400506   -0.000004645
      6        6           0.003214689    0.009507229   -0.000001096
      7        7           0.013792081    0.006118773    0.000031291
      8        6          -0.012870517    0.012606194   -0.000004993
      9        6          -0.002632690   -0.020386110   -0.000012432
     10        1          -0.000771481   -0.001125802   -0.000013764
     11        1           0.000696929    0.000512264    0.000003621
     12        1          -0.001142993    0.000732213    0.000003010
     13        1           0.000875868   -0.001348070    0.000000420
     14        1          -0.001033114    0.001014567   -0.000001508
     15        1           0.000475458    0.000988602    0.000000279
     16        1          -0.000086874   -0.001175681    0.000001802
 -------------------------------------------------------------------
 Cartesian Forces:  Max     0.020386110 RMS     0.006271872

 GradGradGradGradGradGradGradGradGradGradGradGradGradGradGradGradGradGrad
 Berny optimization.
 Using GEDIIS/GDIIS optimizer.
 FormGI is forming the generalized inverse of G from B-inverse, IUseBI=4.
 Internal  Forces:  Max     0.012084422 RMS     0.002675191
 Search for a local minimum.
 Step number   2 out of a maximum of   94
 All quantities printed in internal units (Hartrees-Bohrs-Radians)
 Mixed Optimization -- RFO/linear search
 Update second derivatives using D2CorX and points    1    2
 DE= -1.02D-02 DEPred=-9.49D-03 R= 1.08D+00
 TightC=F SS=  1.41D+00  RLast= 2.08D-01 DXNew= 5.0454D-01 6.2399D-01
 Trust test= 1.08D+00 RLast= 2.08D-01 DXMaxT set to 5.05D-01
 ITU=  1  0
 Use linear search instead of GDIIS.
     Eigenvalues ---    0.01852   0.01931   0.01986   0.02011   0.02069
     Eigenvalues ---    0.02113   0.02146   0.02150   0.02172   0.02210
     Eigenvalues ---    0.02234   0.02248   0.02341   0.15958   0.16000
     Eigenvalues ---    0.16000   0.16000   0.16000   0.16000   0.16024
     Eigenvalues ---    0.20527   0.22006   0.23962   0.24446   0.24706
     Eigenvalues ---    0.35600   0.35714   0.35787   0.35869   0.36025
     Eigenvalues ---    0.36484   0.36541   0.38675   0.40238   0.42781
     Eigenvalues ---    0.43959   0.46036   0.46999   0.47170   0.47662
     Eigenvalues ---    0.49059   0.53564
 RFO step:  Lambda=-1.76487929D-03 EMin= 1.85229977D-02
 Quartic linear search produced a step of  0.15058.
 Iteration  1 RMS(Cart)=  0.00987603 RMS(Int)=  0.00006478
 Iteration  2 RMS(Cart)=  0.00011177 RMS(Int)=  0.00001949
 Iteration  3 RMS(Cart)=  0.00000000 RMS(Int)=  0.00001949
 Variable       Old X    -DE/DX   Delta X   Delta X   Delta X     New X
                                 (Linear)    (Quad)   (Total)
    R1        2.62963  -0.00601  -0.00389  -0.01404  -0.01795   2.61167
    R2        2.68827   0.00260   0.01135   0.00185   0.01317   2.70144
    R3        2.05480   0.00004   0.00159  -0.00047   0.00112   2.05592
    R4        2.71847   0.00408   0.01549   0.00392   0.01942   2.73789
    R5        2.05422  -0.00008   0.00152  -0.00082   0.00071   2.05493
    R6        2.65087  -0.00129   0.00258  -0.00404  -0.00143   2.64943
    R7        2.05557  -0.00105   0.00154  -0.00393  -0.00239   2.05318
    R8        2.65803  -0.00292  -0.00340  -0.00680  -0.01018   2.64784
    R9        2.63238   0.00510   0.00469   0.00931   0.01403   2.64640
   R10        2.69247  -0.00082   0.00674  -0.00455   0.00220   2.69466
   R11        2.71021  -0.00646   0.00027  -0.01767  -0.01744   2.69277
   R12        2.05553  -0.00117   0.00155  -0.00434  -0.00280   2.05274
   R13        2.57258  -0.01194  -0.00499  -0.02609  -0.03105   2.54153
   R14        1.91067   0.00084   0.00230   0.00119   0.00349   1.91416
   R15        2.66120   0.01208   0.01242   0.02264   0.03505   2.69625
   R16        2.04599   0.00072   0.00178   0.00159   0.00337   2.04936
   R17        2.04335  -0.00122   0.00136  -0.00435  -0.00299   2.04036
    A1        2.12183   0.00185   0.00115   0.00925   0.01035   2.13218
    A2        2.07478   0.00020  -0.00077   0.00346   0.00272   2.07750
    A3        2.08658  -0.00205  -0.00038  -0.01271  -0.01307   2.07351
    A4        2.11460   0.00274  -0.00010   0.01449   0.01436   2.12896
    A5        2.08028   0.00028  -0.00051   0.00472   0.00422   2.08450
    A6        2.08831  -0.00302   0.00060  -0.01920  -0.01858   2.06973
    A7        2.03375  -0.00553  -0.00266  -0.02688  -0.02953   2.00422
    A8        2.12597   0.00173   0.00200   0.00585   0.00784   2.13381
    A9        2.12347   0.00379   0.00066   0.02104   0.02169   2.14516
   A10        2.15078   0.00312   0.00254   0.01486   0.01744   2.16821
   A11        2.26494  -0.00395  -0.00211  -0.01693  -0.01907   2.24587
   A12        1.86747   0.00083  -0.00043   0.00207   0.00164   1.86911
   A13        2.08816   0.00220   0.00232   0.00937   0.01174   2.09990
   A14        1.85042   0.00154  -0.00222   0.00850   0.00622   1.85663
   A15        2.34461  -0.00374  -0.00010  -0.01787  -0.01796   2.32665
   A16        2.05726  -0.00438  -0.00325  -0.02109  -0.02436   2.03290
   A17        2.11687   0.00207   0.00208   0.00951   0.01160   2.12847
   A18        2.10905   0.00231   0.00117   0.01157   0.01276   2.12181
   A19        1.95484  -0.00091   0.00714  -0.00901  -0.00180   1.95304
   A20        2.16979  -0.00057  -0.00308  -0.00300  -0.00611   2.16368
   A21        2.15856   0.00148  -0.00406   0.01201   0.00791   2.16647
   A22        1.90438  -0.00293   0.00522  -0.01432  -0.00914   1.89524
   A23        2.20225   0.00196  -0.00225   0.01050   0.00828   2.21053
   A24        2.17656   0.00098  -0.00298   0.00382   0.00086   2.17742
   A25        1.84768   0.00148  -0.00971   0.01276   0.00309   1.85076
   A26        2.13094  -0.00013   0.00428  -0.00183   0.00243   2.13337
   A27        2.30457  -0.00135   0.00543  -0.01093  -0.00552   2.29905
    D1       -0.00001   0.00000   0.00000   0.00001   0.00001   0.00000
    D2       -3.14158  -0.00000  -0.00000  -0.00000  -0.00001  -3.14158
    D3        3.14158   0.00000   0.00001   0.00002   0.00003  -3.14158
    D4        0.00000   0.00000   0.00000   0.00001   0.00001   0.00002
    D5        0.00003   0.00000   0.00001   0.00000   0.00001   0.00004
    D6        3.14159   0.00000   0.00001   0.00003   0.00004  -3.14155
    D7       -3.14155  -0.00000   0.00000  -0.00001  -0.00001  -3.14156
    D8        0.00001   0.00000   0.00000   0.00002   0.00002   0.00003
    D9       -0.00002   0.00000  -0.00001   0.00001   0.00000  -0.00002
   D10       -3.14153   0.00000   0.00000   0.00001   0.00001  -3.14151
   D11        3.14155   0.00000  -0.00000   0.00002   0.00002   3.14156
   D12        0.00004   0.00000   0.00001   0.00002   0.00003   0.00007
   D13        0.00003  -0.00000   0.00001  -0.00004  -0.00003  -0.00001
   D14       -3.14147  -0.00000  -0.00001  -0.00005  -0.00005  -3.14153
   D15        3.14153  -0.00000  -0.00000  -0.00004  -0.00004   3.14149
   D16        0.00003  -0.00000  -0.00002  -0.00005  -0.00006  -0.00003
   D17       -0.00001   0.00000   0.00000   0.00005   0.00006   0.00005
   D18       -3.14156   0.00000  -0.00001   0.00003   0.00002  -3.14154
   D19        3.14151   0.00000   0.00001   0.00006   0.00007   3.14159
   D20       -0.00004   0.00000   0.00000   0.00004   0.00004  -0.00001
   D21       -3.14151  -0.00000  -0.00004  -0.00007  -0.00011   3.14157
   D22       -0.00093   0.00001   0.00003   0.00028   0.00030  -0.00063
   D23        0.00017  -0.00000  -0.00005  -0.00008  -0.00013   0.00004
   D24        3.14074   0.00001   0.00002   0.00027   0.00029   3.14103
   D25       -0.00002  -0.00000  -0.00001  -0.00003  -0.00004  -0.00007
   D26       -3.14159  -0.00000  -0.00001  -0.00006  -0.00007   3.14153
   D27        3.14152  -0.00000   0.00000  -0.00000   0.00000   3.14152
   D28       -0.00004  -0.00000   0.00000  -0.00003  -0.00003  -0.00007
   D29       -0.00009   0.00000   0.00005   0.00001   0.00006  -0.00003
   D30        3.14140   0.00000   0.00000   0.00008   0.00008   3.14148
   D31        3.14155   0.00000   0.00003  -0.00001   0.00002   3.14157
   D32       -0.00015   0.00000  -0.00001   0.00006   0.00004  -0.00011
   D33       -0.00022   0.00000   0.00008   0.00008   0.00016  -0.00005
   D34       -3.14157   0.00000   0.00004   0.00000   0.00005  -3.14152
   D35       -3.14080  -0.00000   0.00001  -0.00025  -0.00024  -3.14104
   D36        0.00103  -0.00001  -0.00003  -0.00033  -0.00036   0.00068
   D37        0.00018  -0.00000  -0.00008  -0.00006  -0.00014   0.00005
   D38        3.14150   0.00000  -0.00004   0.00003  -0.00000   3.14150
   D39       -3.14131  -0.00000  -0.00004  -0.00012  -0.00016  -3.14146
   D40        0.00001  -0.00000   0.00001  -0.00003  -0.00002  -0.00001
         Item               Value     Threshold  Converged?
 Maximum Force            0.012084     0.000450     NO 
 RMS     Force            0.002675     0.000300     NO 
 Maximum Displacement     0.029691     0.001800     NO 
 RMS     Displacement     0.009936     0.001200     NO 
 Predicted change in Energy=-1.057364D-03
 GradGradGradGradGradGradGradGradGradGradGradGradGradGradGradGradGradGrad

                          Input orientation:                          
 ---------------------------------------------------------------------
 Center     Atomic      Atomic             Coordinates (Angstroms)
 Number     Number       Type             X           Y           Z
 ---------------------------------------------------------------------
      1          6           0       -2.184830    0.681689   -0.000002
      2          6           0       -2.155426   -0.700036    0.000008
      3          6           0       -0.910442   -1.441061    0.000055
      4          6           0        0.246311   -0.648862    0.000064
      5          6           0        0.242014    0.752310    0.000025
      6          6           0       -0.991160    1.468292    0.000034
      7          7           0        1.586134   -1.056344    0.000034
      8          6           0        1.607909    1.158281   -0.000021
      9          6           0        2.429178   -0.008447    0.000026
     10          1           0        1.883194   -2.024738    0.000528
     11          1           0        1.980618    2.176697   -0.000153
     12          1           0        3.501772   -0.132244   -0.000061
[...]
 ! D8    D(15,1,6,16)            0.0017         -DE/DX =    0.0                 !
 ! D9    D(1,2,3,4)              0.0003         -DE/DX =    0.0                 !
 ! D10   D(1,2,3,14)          -179.9959         -DE/DX =    0.0                 !
 ! D11   D(13,2,3,4)           180.0001         -DE/DX =    0.0                 !
 ! D12   D(13,2,3,14)            0.0039         -DE/DX =    0.0                 !
 ! D13   D(2,3,4,5)             -0.0006         -DE/DX =    0.0                 !
 ! D14   D(2,3,4,7)           -179.9987         -DE/DX =    0.0                 !
 ! D15   D(14,3,4,5)           179.9955         -DE/DX =    0.0                 !
 ! D16   D(14,3,4,7)            -0.0025         -DE/DX =    0.0                 !
 ! D17   D(3,4,5,6)              0.0007         -DE/DX =    0.0                 !
 ! D18   D(3,4,5,8)           -179.998          -DE/DX =    0.0                 !
 ! D19   D(7,4,5,6)            179.9991         -DE/DX =    0.0                 !
 ! D20   D(7,4,5,8)              0.0004         -DE/DX =    0.0                 !
 ! D21   D(3,4,7,9)            180.0011         -DE/DX =    0.0                 !
 ! D22   D(3,4,7,10)            -0.0062         -DE/DX =    0.0                 !
 ! D23   D(5,4,7,9)              0.0027         -DE/DX =    0.0                 !
 ! D24   D(5,4,7,10)           179.9955         -DE/DX =    0.0                 !
 ! D25   D(4,5,6,1)             -0.0003         -DE/DX =    0.0                 !
 ! D26   D(4,5,6,16)           179.9982         -DE/DX =    0.0                 !
 ! D27   D(8,5,6,1)            179.998          -DE/DX =    0.0                 !
 ! D28   D(8,5,6,16)            -0.0035         -DE/DX =    0.0                 !
 ! D29   D(4,5,8,9)             -0.0031         -DE/DX =    0.0                 !
 ! D30   D(4,5,8,11)           179.9991         -DE/DX =    0.0                 !
 ! D31   D(6,5,8,9)           -180.0016         -DE/DX =    0.0                 !
 ! D32   D(6,5,8,11)             0.0005         -DE/DX =    0.0                 !
 ! D33   D(4,7,9,8)             -0.0046         -DE/DX =    0.0                 !
 ! D34   D(4,7,9,12)          -180.0018         -DE/DX =    0.0                 !
 ! D35   D(10,7,9,8)          -179.9973         -DE/DX =    0.0                 !
 ! D36   D(10,7,9,12)            0.0055         -DE/DX =    0.0                 !
 ! D37   D(5,8,9,7)              0.0047         -DE/DX =    0.0                 !
 ! D38   D(5,8,9,12)           180.0016         -DE/DX =    0.0                 !
 ! D39   D(11,8,9,7)          -179.9974         -DE/DX =    0.0                 !
 ! D40   D(11,8,9,12)           -0.0005         -DE/DX =    0.0                 !
 --------------------------------------------------------------------------------
 GradGradGradGradGradGradGradGradGradGradGradGradGradGradGradGradGradGrad

                          Input orientation:                          
 ---------------------------------------------------------------------
 Center     Atomic      Atomic             Coordinates (Angstroms)
 Number     Number       Type             X           Y           Z
 ---------------------------------------------------------------------
      1          6           0       -2.181014    0.684841   -0.000007
      2          6           0       -2.148534   -0.698992    0.000047
      3          6           0       -0.914088   -1.448065    0.000086
      4          6           0        0.242795   -0.651047    0.000071
      5          6           0        0.238538    0.746812    0.000011
      6          6           0       -0.989519    1.470610   -0.000027
      7          7           0        1.591591   -1.057481    0.000074
      8          6           0        1.603308    1.159147   -0.000031
      9          6           0        2.425340   -0.009840    0.000079
     10          1           0        1.885298   -2.025629    0.000179
     11          1           0        1.980099    2.174662   -0.000096
     12          1           0        3.500223   -0.117569    0.000111
     13          1           0       -3.085440   -1.252071    0.000057
     14          1           0       -0.894559   -2.532443    0.000063
     15          1           0       -3.144748    1.189226   -0.000037
     16          1           0       -1.012388    2.555285   -0.000045
 ---------------------------------------------------------------------
                    Distance matrix (angstroms):
                    1          2          3          4          5
     1  C    0.000000
     2  C    1.384214   0.000000
     3  C    2.480803   1.443942   0.000000
     4  C    2.767571   2.391810   1.404854   0.000000
     5  C    2.420345   2.790782   2.479119   1.397866   0.000000
     6  C    1.427267   2.459774   2.919649   2.453575   1.425485
     7  N    4.155506   3.757267   2.535939   1.408701   2.255266
     8  C    3.813929   4.186765   3.624202   2.264465   1.425699
     9  C    4.658441   4.625500   3.635969   2.274785   2.314006
    10  H    4.886874   4.246383   2.858346   2.141795   3.224631
    11  H    4.419776   5.030258   4.636859   3.317055   2.252063
    12  H    5.737623   5.678601   4.610462   3.300823   3.374277
    13  H    2.137666   1.087975   2.180179   3.382067   3.878707
    14  H    3.464950   2.221260   1.084554   2.198459   3.469499
    15  H    1.087744   2.134902   3.454149   3.855133   3.412090
    16  H    2.205504   3.446904   4.004556   3.443262   2.198952
                    6          7          8          9         10
     6  C    0.000000
     7  N    3.612945   0.000000
     8  C    2.611468   2.216659   0.000000
     9  C    3.721961   1.338913   1.429079   0.000000
    10  H    4.526396   1.011718   3.197236   2.086876   0.000000
    11  H    3.051937   3.255408   1.083162   2.229414   4.201360
    12  H    4.762363   2.127513   2.286546   1.080268   2.499735
    13  H    3.435968   4.681077   5.272412   5.649056   5.030569
    14  H    4.004179   2.890753   4.457261   4.169563   2.825679
    15  H    2.173520   5.242194   4.748151   5.697687   5.969644
    16  H    1.084916   4.453402   2.964974   4.289270   5.420457
                   11         12         13         14         15
    11  H    0.000000
    12  H    2.750473   0.000000
    13  H    6.115732   6.682668   0.000000
    14  H    5.515477   5.014551   2.537580   0.000000
    15  H    5.218729   6.772249   2.442017   4.349042   0.000000
    16  H    3.016596   5.244789   4.335147   5.089092   2.532405
                   16
    16  H    0.000000
 Stoichiometry    C8H7N
 Framework group  C1[X(C8H7N)]
 Deg. of freedom    42
 Full point group                 C1      NOp   1
 Largest Abelian subgroup         C1      NOp   1
 Largest concise Abelian subgroup C1      NOp   1
                         Standard orientation:                         
 ---------------------------------------------------------------------
 Center     Atomic      Atomic             Coordinates (Angstroms)
 Number     Number       Type             X           Y           Z
 ---------------------------------------------------------------------
      1          6           0       -2.191672    0.649715   -0.000041
      2          6           0       -2.138089   -0.733461    0.000013
      3          6           0       -0.892361   -1.463618    0.000052
      4          6           0        0.252231   -0.649048    0.000037
      5          6           0        0.226654    0.748584   -0.000024
      6          6           0       -1.012301    1.453566   -0.000061
      7          7           0        1.607069   -1.034861    0.000040
      8          6           0        1.584975    1.181687   -0.000065
      9          6           0        2.424742    0.025375    0.000045
     10          1           0        1.915509   -1.998417    0.000145
     11          1           0        1.946233    2.202831   -0.000130
     12          1           0        3.501143   -0.065947    0.000077
     13          1           0       -3.066449   -1.300767    0.000023
     14          1           0       -0.856294   -2.547572    0.000029
     15          1           0       -3.162987    1.139341   -0.000071
     16          1           0       -1.051712    2.537766   -0.000079
 ---------------------------------------------------------------------
 Rotational constants (GHZ):           3.8553032           1.6101444           1.1357889

 **********************************************************************

            Population analysis using the CI Density.

 **********************************************************************

 Orbital symmetries:
       Occupied  (A) (A) (A) (A) (A) (A) (A) (A) (A) (A) (A) (A)
                 (A) (A) (A) (A) (A) (A) (A) (A) (A) (A) (A) (A)
                 (A) (A) (A) (A) (A) (A) (A)
       Virtual   (A) (A) (A) (A) (A) (A) (A) (A) (A) (A) (A) (A)
                 (A) (A) (A) (A) (A) (A) (A) (A) (A) (A) (A) (A)
                 (A) (A) (A) (A) (A) (A) (A) (A) (A) (A) (A) (A)
                 (A) (A) (A) (A) (A) (A) (A) (A) (A) (A) (A) (A)
                 (A) (A) (A) (A) (A) (A) (A) (A) (A) (A) (A) (A)
                 (A) (A) (A) (A) (A) (A) (A) (A) (A) (A) (A) (A)
                 (A) (A) (A) (A) (A) (A) (A) (A) (A) (A) (A) (A)
                 (A) (A) (A) (A) (A) (A) (A) (A) (A) (A) (A) (A)
                 (A) (A) (A) (A) (A) (A) (A) (A) (A) (A) (A) (A)
                 (A) (A) (A) (A) (A) (A) (A) (A) (A) (A) (A) (A)
                 (A) (A) (A) (A) (A) (A) (A) (A) (A) (A) (A) (A)
                 (A) (A) (A) (A) (A) (A) (A) (A) (A) (A) (A) (A)
                 (A) (A) (A) (A) (A) (A) (A) (A) (A) (A)
 The electronic state is 1-A.
 Alpha  occ. eigenvalues --  -14.42408 -10.25332 -10.24956 -10.22644 -10.21942
 Alpha  occ. eigenvalues --  -10.21605 -10.21459 -10.21200 -10.20369  -1.00700
 Alpha  occ. eigenvalues --   -0.85613  -0.79294  -0.75711  -0.72459  -0.64370
 Alpha  occ. eigenvalues --   -0.60938  -0.59072  -0.55408  -0.49554  -0.48405
 Alpha  occ. eigenvalues --   -0.44890  -0.44350  -0.43464  -0.41265  -0.40211
 Alpha  occ. eigenvalues --   -0.36009  -0.35335  -0.34506  -0.28210  -0.24176
 Alpha  occ. eigenvalues --   -0.20364
 Alpha virt. eigenvalues --   -0.02641   0.00543   0.02188   0.02467   0.03144
 Alpha virt. eigenvalues --    0.04540   0.04684   0.04704   0.06705   0.06949
 Alpha virt. eigenvalues --    0.07426   0.07469   0.09405   0.09632   0.11409
 Alpha virt. eigenvalues --    0.11560   0.11909   0.13525   0.14234   0.14622
 Alpha virt. eigenvalues --    0.16063   0.16406   0.17307   0.17321   0.18155
 Alpha virt. eigenvalues --    0.18432   0.19342   0.19520   0.20375   0.20494
 Alpha virt. eigenvalues --    0.20869   0.20915   0.22494   0.22840   0.23880
 Alpha virt. eigenvalues --    0.24237   0.24372   0.25043   0.25965   0.26804
 Alpha virt. eigenvalues --    0.27672   0.28024   0.28590   0.29654   0.30634
 Alpha virt. eigenvalues --    0.31056   0.32448   0.34044   0.35718   0.35975
 Alpha virt. eigenvalues --    0.37300   0.39876   0.42863   0.45723   0.51458
 Alpha virt. eigenvalues --    0.58295   0.61248   0.67859   0.68498   0.70976
 Alpha virt. eigenvalues --    0.72699   0.73473   0.73821   0.74416   0.74528
 Alpha virt. eigenvalues --    0.76612   0.76872   0.78525   0.79775   0.80238
 Alpha virt. eigenvalues --    0.81820   0.86235   0.89808   0.90342   0.91395
 Alpha virt. eigenvalues --    0.94935   0.95634   0.96333   0.96937   0.99276
 Alpha virt. eigenvalues --    1.00857   1.03862   1.05555   1.06946   1.09681
 Alpha virt. eigenvalues --    1.12163   1.13202   1.17873   1.18336   1.21597
 Alpha virt. eigenvalues --    1.23151   1.24110   1.25211   1.32237   1.32429
 Alpha virt. eigenvalues --    1.35062   1.36785   1.40507   1.40744   1.44456
 Alpha virt. eigenvalues --    1.47287   1.47932   1.49288   1.50316   1.55011
 Alpha virt. eigenvalues --    1.58572   1.63462   1.79559   1.82583   1.88056
 Alpha virt. eigenvalues --    1.90172   1.90993   1.93684   1.99597   2.00140
 Alpha virt. eigenvalues --    2.00921   2.03990   2.07155   2.12902   2.16744
 Alpha virt. eigenvalues --    2.16748   2.20555   2.22173   2.24614   2.27972
 Alpha virt. eigenvalues --    2.28210   2.31221   2.37113   2.39927   2.46282
 Alpha virt. eigenvalues --    2.52656   2.55401   2.61928   2.64697   2.65922
 Alpha virt. eigenvalues --    2.67457   2.73915   2.80111   2.83510   2.85003
 Alpha virt. eigenvalues --    2.94894   2.98535   3.08398   3.23688   3.40722
 Alpha virt. eigenvalues --    4.16545   4.26185   4.30009   4.33346   4.37417
 Alpha virt. eigenvalues --    4.41729   4.49208   4.53593   4.79026
          Condensed to atoms (all electrons):
               1          2          3          4          5          6
     1  C    5.719678   0.359542   0.456145  -0.486269  -0.134454  -0.273769
     2  C    0.359542   5.935827  -0.396757   0.220641  -0.565673   0.837053
     3  C    0.456145  -0.396757  13.692081  -0.477522  -5.255387  -3.255952
     4  C   -0.486269   0.220641  -0.477522  14.050787  -5.933069  -2.195303
     5  C   -0.134454  -0.565673  -5.255387  -5.933069  17.544789   1.139477
     6  C   -0.273769   0.837053  -3.255952  -2.195303   1.139477  13.393072
     7  N   -0.028890   0.010440  -0.577080  -0.465634   1.098159   0.158251
     8  C    0.179711  -0.392104   3.234382   3.485161  -5.699799  -4.232116
     9  C   -0.095484   0.046952  -1.073070  -1.049829   1.855194   1.025541
    10  H   -0.003137  -0.003693  -0.132761  -0.065091   0.179430   0.020154
    11  H    0.002844   0.001390   0.004836   0.003479  -0.008070   0.030112
    12  H    0.001329  -0.000274   0.035898   0.109523  -0.126193  -0.018484
    13  H    0.039861   0.244198   0.005787  -0.000841   0.018708  -0.005682
    14  H    0.011020   0.046222   0.226952   0.036292  -0.000205  -0.016425
    15  H    0.250156   0.035021   0.016793  -0.018397   0.029475  -0.016846
    16  H    0.028511   0.006894  -0.023875   0.020869   0.079924   0.217258
               7          8          9         10         11         12
     1  C   -0.028890   0.179711  -0.095484  -0.003137   0.002844   0.001329
     2  C    0.010440  -0.392104   0.046952  -0.003693   0.001390  -0.000274
     3  C   -0.577080   3.234382  -1.073070  -0.132761   0.004836   0.035898
     4  C   -0.465634   3.485161  -1.049829  -0.065091   0.003479   0.109523
     5  C    1.098159  -5.699799   1.855194   0.179430  -0.008070  -0.126193
     6  C    0.158251  -4.232116   1.025541   0.020154   0.030112  -0.018484
     7  N    7.135245  -0.813783   0.625789   0.265536   0.006380  -0.055163
     8  C   -0.813783  11.646514  -1.717577  -0.016098   0.287556   0.068269
     9  C    0.625789  -1.717577   6.338929  -0.014408  -0.027173   0.303664
    10  H    0.265536  -0.016098  -0.014408   0.316440  -0.000071  -0.002143
    11  H    0.006380   0.287556  -0.027173  -0.000071   0.454550  -0.000453
    12  H   -0.055163   0.068269   0.303664  -0.002143  -0.000453   0.442636
    13  H   -0.000464   0.001128   0.001109  -0.000002  -0.000000  -0.000000
    14  H   -0.007509  -0.003493   0.005817   0.002049   0.000002   0.000001
    15  H    0.000287   0.008483  -0.000117  -0.000000  -0.000002  -0.000000
    16  H   -0.000860  -0.034699   0.003363   0.000003   0.001350  -0.000001
              13         14         15         16
     1  C    0.039861   0.011020   0.250156   0.028511
     2  C    0.244198   0.046222   0.035021   0.006894
     3  C    0.005787   0.226952   0.016793  -0.023875
     4  C   -0.000841   0.036292  -0.018397   0.020869
     5  C    0.018708  -0.000205   0.029475   0.079924
     6  C   -0.005682  -0.016425  -0.016846   0.217258
     7  N   -0.000464  -0.007509   0.000287  -0.000860
     8  C    0.001128  -0.003493   0.008483  -0.034699
     9  C    0.001109   0.005817  -0.000117   0.003363
    10  H   -0.000002   0.002049  -0.000000   0.000003
    11  H   -0.000000   0.000002  -0.000002   0.001350
    12  H   -0.000000   0.000001  -0.000000  -0.000001
    13  H    0.506629  -0.003233  -0.004670  -0.000130
    14  H   -0.003233   0.501602  -0.000122   0.000013
    15  H   -0.004670  -0.000122   0.507443  -0.003103
    16  H   -0.000130   0.000013  -0.003103   0.499825
 Mulliken charges:
               1
     1  C   -0.026793
     2  C   -0.385680
     3  C   -0.480470
     4  C   -1.234797
     5  C    1.777695
     6  C   -0.806341
     7  N   -0.350704
     8  C   -0.001535
     9  C   -0.228700
    10  H    0.453791
    11  H    0.243269
    12  H    0.241391
    13  H    0.197603
    14  H    0.201018
    15  H    0.195598
    16  H    0.204656
 Sum of Mulliken charges =  -0.00000
 Mulliken charges with hydrogens summed into heavy atoms:
               1
     1  C    0.168804
     2  C   -0.188077
     3  C   -0.279452
     4  C   -1.234797
     5  C    1.777695
     6  C   -0.601685
     7  N    0.103087
     8  C    0.241733
     9  C    0.012691
 Electronic spatial extent (au):  <R**2>=           1022.7336
 Charge=             -0.0000 electrons
 Dipole moment (field-independent basis, Debye):
    X=              4.8246    Y=             -1.1954    Z=              0.0000  Tot=              4.9704
 Quadrupole moment (field-independent basis, Debye-Ang):
   XX=            -43.6116   YY=            -46.3442   ZZ=            -60.4281
   XY=             -2.2255   XZ=              0.0004   YZ=             -0.0004
 Traceless Quadrupole moment (field-independent basis, Debye-Ang):
   XX=              6.5164   YY=              3.7838   ZZ=            -10.3001
   XY=             -2.2255   XZ=              0.0004   YZ=             -0.0004
 Octapole moment (field-independent basis, Debye-Ang**2):
  XXX=             30.9022  YYY=             -8.4639  ZZZ=             -0.0005  XYY=             16.6548
  XXY=             -6.8638  XXZ=              0.0005  XZZ=              5.9557  YZZ=             -1.1817
  YYZ=             -0.0005  XYZ=             -0.0012
 Hexadecapole moment (field-independent basis, Debye-Ang**3):
 XXXX=           -829.4764 YYYY=           -397.4070 ZZZZ=            -84.2099 XXXY=            -17.2722
 XXXZ=             -0.0010 YYYX=            -15.1719 YYYZ=              0.0059 ZZZX=             -0.0050
 ZZZY=              0.0105 XXYY=           -196.5589 XXZZ=           -198.7774 YYZZ=           -104.8811
 XXYZ=             -0.0003 YYXZ=              0.0001 ZZXY=             -1.8813
 N-N= 3.978846995432D+02 E-N=-1.637710765789D+03  KE= 3.600382610494D+02
 Unable to Open any file for archive entry.
 1\1\GINC-EXP-1-43\FOpt\RAPFD TD-FC\6-31+G(d)\C8H7N1\SCAPARAS\15-Jun-20
 21\0\\# td= (nstates=6, root=1) APFD/6-31+G* Opt density=current\\Func
 sAPFD-V-1st\\0,1\C,-2.181013556,0.684840881,-0.0000066078\C,-2.1485341
 711,-0.6989918162,0.0000468543\C,-0.9140881045,-1.4480646237,0.0000859
 919\C,0.2427953335,-0.6510474726,0.0000711249\C,0.2385384393,0.7468123
 917,0.0000105625\C,-0.9895192515,1.4706099972,-0.0000269554\N,1.591591
 1448,-1.0574808726,0.0000742747\C,1.6033082311,1.1591470708,-0.0000309
 79\C,2.4253399032,-0.0098397405,0.0000791567\H,1.8852976239,-2.0256288
 313,0.0001789503\H,1.9800987011,2.1746616634,-0.0000958702\H,3.5002232
 324,-0.1175692193,0.0001109087\H,-3.0854395795,-1.2520712312,0.0000572
 99\H,-0.8945587304,-2.5324427112,0.0000628211\H,-3.1447479366,1.189225
 5405,-0.0000366535\H,-1.0123882798,2.5552849739,-0.000044878\\Version=
 AS64L-G16RevC.01\State=1-A\HF=-363.518965\RMSD=4.365e-09\RMSF=4.020e-0
 5\Dipole=1.8981288,-0.4702894,0.0000037\Quadrupole=4.8447604,2.8131339
 ,-7.6578943,-1.654594,0.0002643,-0.0002998\PG=C01 [X(C8H7N1)]\\@
 The archive entry for this job was punched.


 Statistics are no substitute for judgment.
                            -- Henry Clay
 Job cpu time:       0 days  1 hours 54 minutes 20.0 seconds.
 Elapsed time:       0 days  0 hours 31 minutes 57.6 seconds.
 File lengths (MBytes):  RWF=    238 Int=      0 D2E=      0 Chk=     11 Scr=      1
 Normal termination of Gaussian 16 at Tue Jun 15 12:16:53 2021.
