 Entering Gaussian System, Link 0=/cm/shared/apps/spack/cpu/opt/spack/linux-centos8-zen/gcc-8.3.1/gaussian-16.C.01-po5bqktfeugvmjyga3v7eigbecnokxng/g16/g16
 Initial command:
 /cm/shared/apps/spack/cpu/opt/spack/linux-centos8-zen/gcc-8.3.1/gaussian-16.C.01-po5bqktfeugvmjyga3v7eigbecnokxng/g16/l1.exe "/scratch/cwaldt/job_3576974/Gau-21623.inp" -scrdir="/scratch/cwaldt/job_3576974/"
 Entering Link 1 = /cm/shared/apps/spack/cpu/opt/spack/linux-centos8-zen/gcc-8.3.1/gaussian-16.C.01-po5bqktfeugvmjyga3v7eigbecnokxng/g16/l1.exe PID=     21624.
  
 Copyright (c) 1988-2019, Gaussian, Inc.  All Rights Reserved.
  
 This is part of the Gaussian(R) 16 program.  It is based on
 the Gaussian(R) 09 system (copyright 2009, Gaussian, Inc.),
 the Gaussian(R) 03 system (copyright 2003, Gaussian, Inc.),
 the Gaussian(R) 98 system (copyright 1998, Gaussian, Inc.),
 the Gaussian(R) 94 system (copyright 1995, Gaussian, Inc.),
 the Gaussian 92(TM) system (copyright 1992, Gaussian, Inc.),
 the Gaussian 90(TM) system (copyright 1990, Gaussian, Inc.),
 the Gaussian 88(TM) system (copyright 1988, Gaussian, Inc.),
 the Gaussian 86(TM) system (copyright 1986, Carnegie Mellon
 University), and the Gaussian 82(TM) system (copyright 1983,
 Carnegie Mellon University). Gaussian is a federally registered
 trademark of Gaussian, Inc.
  
 This software contains proprietary and confidential information,
 including trade secrets, belonging to Gaussian, Inc.
  
 This software is provided under written license and may be
 used, copied, transmitted, or stored only in accord with that
 written license.
  
 The following legend is applicable only to US Government
 contracts under FAR:
  
                    RESTRICTED RIGHTS LEGEND
  
 Use, reproduction and disclosure by the US Government is
 subject to restrictions as set forth in subparagraphs (a)
 and (c) of the Commercial Computer Software - Restricted
 Rights clause in FAR 52.227-19.
  
 Gaussian, Inc.
 340 Quinnipiac St., Bldg. 40, Wallingford CT 06492
  
  
 ---------------------------------------------------------------
 Warning -- This program may not be used in any manner that
 competes with the business of Gaussian, Inc. or will provide
 assistance to any competitor of Gaussian, Inc.  The licensee
 of this program is prohibited from giving any competitor of
 Gaussian, Inc. access to this program.  By using this program,
 the user acknowledges that Gaussian, Inc. is engaged in the
 business of creating and licensing software in the field of
 computational chemistry and represents and warrants to the
 licensee that it is not a competitor of Gaussian, Inc. and that
 it will not use this program in any manner prohibited above.
 ---------------------------------------------------------------
  

 Cite this work as:
 Gaussian 16, Revision C.01,
 M. J. Frisch, G. W. Trucks, H. B. Schlegel, G. E. Scuseria, 
 M. A. Robb, J. R. Cheeseman, G. Scalmani, V. Barone, 
 G. A. Petersson, H. Nakatsuji, X. Li, M. Caricato, A. V. Marenich, 
 J. Bloino, B. G. Janesko, R. Gomperts, B. Mennucci, H. P. Hratchian, 
 J. V. Ortiz, A. F. Izmaylov, J. L. Sonnenberg, D. Williams-Young, 
 F. Ding, F. Lipparini, F. Egidi, J. Goings, B. Peng, A. Petrone, 
 T. Henderson, D. Ranasinghe, V. G. Zakrzewski, J. Gao, N. Rega, 
 G. Zheng, W. Liang, M. Hada, M. Ehara, K. Toyota, R. Fukuda, 
 J. Hasegawa, M. Ishida, T. Nakajima, Y. Honda, O. Kitao, H. Nakai, 
 T. Vreven, K. Throssell, J. A. Montgomery, Jr., J. E. Peralta, 
 F. Ogliaro, M. J. Bearpark, J. J. Heyd, E. N. Brothers, K. N. Kudin, 
 V. N. Staroverov, T. A. Keith, R. Kobayashi, J. Normand, 
 K. Raghavachari, A. P. Rendell, J. C. Burant, S. S. Iyengar, 
 J. Tomasi, M. Cossi, J. M. Millam, M. Klene, C. Adamo, R. Cammi, 
 J. W. Ochterski, R. L. Martin, K. Morokuma, O. Farkas, 
 J. B. Foresman, and D. J. Fox, Gaussian, Inc., Wallingford CT, 2019.
 
 ******************************************
 Gaussian 16:  AS64L-G16RevC.01  3-Jul-2019
                23-Jun-2021 
 ******************************************
 %nprocshared=4
 Will use up to    4 processors via shared memory.
 %chk=FuncsBMK-V-3rd.chk
 %Mem=3GB
 ---------------------------------------------------------
 # td= (nstates=6, root=3) BMK/6-31+G* Opt density=current
 ---------------------------------------------------------
 1/18=20,19=15,26=3,38=1/1,3;
 2/9=110,12=2,17=6,18=5,40=1/2;
 3/5=1,6=6,7=11,11=9,25=1,30=1,71=1,74=-34/1,2,3,8;
 4//1;
 5/5=2,38=5/2;
 8/6=1,10=2,107=3,108=6/1;
 9/8=3,15=2,41=6,42=1,70=2/14;
 10/5=4,28=3/2;
 6/7=2,8=2,9=2,10=2,22=-1/1;
 7/12=6,13=5,14=3/1,2,3,16;
 1/18=20,19=15,26=3/3(2);
 2/9=110/2;
 99//99;
 2/9=110/2;
 3/5=1,6=6,7=11,11=9,25=1,30=1,71=1,74=-34/1,2,3,8;
 4/5=5,16=3,69=1/1;
 5/5=2,38=5/2;
 8/6=1,10=2,107=3,108=6/1;
 9/8=3,15=2,41=6,42=1,49=4,70=2/14;
 10/5=4,28=3/2;
 7/12=6,13=5,14=3/1,2,3,16;
 1/18=20,19=15,26=3/3(-8);
 2/9=110/2;
 6/7=2,8=2,9=2,10=2,22=-1/1;
 99/9=10/99;
 --------------
 FuncsBMK-V-3rd
 --------------
 Symbolic Z-matrix:
 Charge =  0 Multiplicity = 1
 C                    -2.15106   0.68921   0.00009 
 C                    -2.12793  -0.71582   0.00008 
 C                    -0.9323   -1.4131   -0.00001 
 C                     0.24691  -0.6702   -0.00004 
 C                     0.24819   0.7483    0. 
 C                    -0.97947   1.42353   0.00003 
 N                     1.56177  -1.07759  -0.00029 
 C                     1.62013   1.1629   -0.00016 
 C                     2.38201   0.03081   0.00025 
 H                     1.87632  -2.03001   0.00044 
 H                     1.99217   2.17301  -0.00035 
 H                     3.45255  -0.08243   0.00041 
 H                    -3.06159  -1.26202   0.00009 
 H                    -0.91725  -2.49534  -0.00007 
 H                    -3.1042    1.20079   0.00009 
 H                    -1.00935   2.50542  -0.00002 
 

 GradGradGradGradGradGradGradGradGradGradGradGradGradGradGradGradGradGrad
 Berny optimization.
 Initialization pass.
                           ----------------------------
                           !    Initial Parameters    !
                           ! (Angstroms and Degrees)  !
 --------------------------                            --------------------------
 ! Name  Definition              Value          Derivative Info.                !
 --------------------------------------------------------------------------------
 ! R1    R(1,2)                  1.4052         estimate D2E/DX2                !
 ! R2    R(1,6)                  1.3827         estimate D2E/DX2                !
 ! R3    R(1,15)                 1.0818         estimate D2E/DX2                !
 ! R4    R(2,3)                  1.3841         estimate D2E/DX2                !
 ! R5    R(2,13)                 1.0817         estimate D2E/DX2                !
 ! R6    R(3,4)                  1.3937         estimate D2E/DX2                !
 ! R7    R(3,14)                 1.0823         estimate D2E/DX2                !
 ! R8    R(4,5)                  1.4185         estimate D2E/DX2                !
 ! R9    R(4,7)                  1.3765         estimate D2E/DX2                !
 ! R10   R(5,6)                  1.4011         estimate D2E/DX2                !
 ! R11   R(5,8)                  1.4332         estimate D2E/DX2                !
 ! R12   R(6,16)                 1.0823         estimate D2E/DX2                !
 ! R13   R(7,9)                  1.3789         estimate D2E/DX2                !
 ! R14   R(7,10)                 1.003          estimate D2E/DX2                !
 ! R15   R(8,9)                  1.3646         estimate D2E/DX2                !
 ! R16   R(8,11)                 1.0764         estimate D2E/DX2                !
 ! R17   R(9,12)                 1.0765         estimate D2E/DX2                !
 ! A1    A(2,1,6)              121.1349         estimate D2E/DX2                !
 ! A2    A(2,1,15)             119.1671         estimate D2E/DX2                !
 ! A3    A(6,1,15)             119.698          estimate D2E/DX2                !
 ! A4    A(1,2,3)              121.1938         estimate D2E/DX2                !
 ! A5    A(1,2,13)             119.3846         estimate D2E/DX2                !
 ! A6    A(3,2,13)             119.4217         estimate D2E/DX2                !
 ! A7    A(2,3,4)              117.5387         estimate D2E/DX2                !
 ! A8    A(2,3,14)             121.0469         estimate D2E/DX2                !
 ! A9    A(4,3,14)             121.4144         estimate D2E/DX2                !
 ! A10   A(3,4,5)              122.2626         estimate D2E/DX2                !
 ! A11   A(3,4,7)              130.5743         estimate D2E/DX2                !
 ! A12   A(5,4,7)              107.163          estimate D2E/DX2                !
 ! A13   A(4,5,6)              118.7594         estimate D2E/DX2                !
 ! A14   A(4,5,8)              106.8666         estimate D2E/DX2                !
 ! A15   A(6,5,8)              134.374          estimate D2E/DX2                !
 ! A16   A(1,6,5)              119.1105         estimate D2E/DX2                !
 ! A17   A(1,6,16)             120.4966         estimate D2E/DX2                !
 ! A18   A(5,6,16)             120.3928         estimate D2E/DX2                !
 ! A19   A(4,7,9)              109.2874         estimate D2E/DX2                !
 ! A20   A(4,7,10)             125.4909         estimate D2E/DX2                !
 ! A21   A(9,7,10)             125.2217         estimate D2E/DX2                !
 ! A22   A(5,8,9)              107.125          estimate D2E/DX2                !
 ! A23   A(5,8,11)             127.0344         estimate D2E/DX2                !
 ! A24   A(9,8,11)             125.8405         estimate D2E/DX2                !
 ! A25   A(7,9,8)              109.5578         estimate D2E/DX2                !
 ! A26   A(7,9,12)             120.4645         estimate D2E/DX2                !
 ! A27   A(8,9,12)             129.9776         estimate D2E/DX2                !
 ! D1    D(6,1,2,3)             -0.0008         estimate D2E/DX2                !
 ! D2    D(6,1,2,13)          -179.9981         estimate D2E/DX2                !
 ! D3    D(15,1,2,3)           179.996          estimate D2E/DX2                !
 ! D4    D(15,1,2,13)           -0.0013         estimate D2E/DX2                !
 ! D5    D(2,1,6,5)             -0.0018         estimate D2E/DX2                !
 ! D6    D(2,1,6,16)           179.9965         estimate D2E/DX2                !
 ! D7    D(15,1,6,5)          -179.9986         estimate D2E/DX2                !
 ! D8    D(15,1,6,16)           -0.0003         estimate D2E/DX2                !
 ! D9    D(1,2,3,4)              0.002          estimate D2E/DX2                !
 ! D10   D(1,2,3,14)          -179.9968         estimate D2E/DX2                !
 ! D11   D(13,2,3,4)           179.9992         estimate D2E/DX2                !
 ! D12   D(13,2,3,14)            0.0005         estimate D2E/DX2                !
 ! D13   D(2,3,4,5)             -0.0005         estimate D2E/DX2                !
 ! D14   D(2,3,4,7)           -179.9911         estimate D2E/DX2                !
 ! D15   D(14,3,4,5)           179.9982         estimate D2E/DX2                !
 ! D16   D(14,3,4,7)             0.0076         estimate D2E/DX2                !
 ! D17   D(3,4,5,6)             -0.002          estimate D2E/DX2                !
 ! D18   D(3,4,5,8)           -179.9955         estimate D2E/DX2                !
 ! D19   D(7,4,5,6)            179.9905         estimate D2E/DX2                !
 ! D20   D(7,4,5,8)             -0.003          estimate D2E/DX2                !
 ! D21   D(3,4,7,9)           -179.98           estimate D2E/DX2                !
 ! D22   D(3,4,7,10)            -0.0649         estimate D2E/DX2                !
 ! D23   D(5,4,7,9)              0.0284         estimate D2E/DX2                !
 ! D24   D(5,4,7,10)           179.9434         estimate D2E/DX2                !
 ! D25   D(4,5,6,1)              0.0031         estimate D2E/DX2                !
 ! D26   D(4,5,6,16)          -179.9951         estimate D2E/DX2                !
 ! D27   D(8,5,6,1)            179.9944         estimate D2E/DX2                !
 ! D28   D(8,5,6,16)            -0.0038         estimate D2E/DX2                !
 ! D29   D(4,5,8,9)             -0.0234         estimate D2E/DX2                !
 ! D30   D(4,5,8,11)           179.9883         estimate D2E/DX2                !
 ! D31   D(6,5,8,9)            179.9846         estimate D2E/DX2                !
 ! D32   D(6,5,8,11)            -0.0037         estimate D2E/DX2                !
 ! D33   D(4,7,9,8)             -0.0444         estimate D2E/DX2                !
 ! D34   D(4,7,9,12)           179.9847         estimate D2E/DX2                !
 ! D35   D(10,7,9,8)          -179.9597         estimate D2E/DX2                !
 ! D36   D(10,7,9,12)            0.0693         estimate D2E/DX2                !
 ! D37   D(5,8,9,7)              0.0414         estimate D2E/DX2                !
 ! D38   D(5,8,9,12)          -179.9913         estimate D2E/DX2                !
 ! D39   D(11,8,9,7)          -179.9702         estimate D2E/DX2                !
 ! D40   D(11,8,9,12)           -0.0029         estimate D2E/DX2                !
 --------------------------------------------------------------------------------
 Trust Radius=3.00D-01 FncErr=1.00D-07 GrdErr=1.00D-06 EigMax=2.50D+02 EigMin=1.00D-04
 Number of steps in this run=     94 maximum allowed number of steps=    100.
 GradGradGradGradGradGradGradGradGradGradGradGradGradGradGradGradGradGrad

                          Input orientation:                          
 ---------------------------------------------------------------------
 Center     Atomic      Atomic             Coordinates (Angstroms)
 Number     Number       Type             X           Y           Z
 ---------------------------------------------------------------------
      1          6           0       -2.151063    0.689208    0.000088
      2          6           0       -2.127927   -0.715818    0.000075
      3          6           0       -0.932297   -1.413100   -0.000011
      4          6           0        0.246911   -0.670201   -0.000042
      5          6           0        0.248193    0.748299    0.000000
      6          6           0       -0.979474    1.423526    0.000032
      7          7           0        1.561774   -1.077592   -0.000285
      8          6           0        1.620133    1.162900   -0.000157
      9          6           0        2.382013    0.030806    0.000248
     10          1           0        1.876315   -2.030011    0.000438
     11          1           0        1.992173    2.173010   -0.000348
     12          1           0        3.452549   -0.082425    0.000408
     13          1           0       -3.061594   -1.262020    0.000088
     14          1           0       -0.917252   -2.495342   -0.000073
     15          1           0       -3.104203    1.200785    0.000090
     16          1           0       -1.009348    2.505421   -0.000015
 ---------------------------------------------------------------------
                    Distance matrix (angstroms):
                    1          2          3          4          5
     1  C    0.000000
     2  C    1.405216   0.000000
     3  C    2.430039   1.384100   0.000000
     4  C    2.756496   2.375276   1.393711   0.000000
     5  C    2.399984   2.790983   2.462763   1.418501   0.000000
     6  C    1.382694   2.428114   2.837018   2.426461   1.401106
     7  N    4.111781   3.707395   2.516536   1.376529   2.249305
     8  C    3.800829   4.192557   3.626386   2.290414   1.433218
     9  C    4.580641   4.571324   3.615178   2.247236   2.251218
    10  H    4.859416   4.214387   2.875566   2.122273   3.220216
    11  H    4.400917   5.031953   4.627387   3.336134   2.251948
    12  H    5.656491   5.616307   4.582311   3.259079   3.310287
    13  H    2.153220   1.081698   2.134650   3.361020   3.872476
    14  H    3.415208   2.152310   1.082347   2.164813   3.446661
    15  H    1.081752   2.150926   3.398466   3.838040   3.382795
    16  H    2.145261   3.409927   3.919278   3.415079   2.160761
                    6          7          8          9         10
     6  C    0.000000
     7  N    3.565604   0.000000
     8  C    2.612639   2.241252   0.000000
     9  C    3.638580   1.378890   1.364587   0.000000
    10  H    4.481345   1.003015   3.203172   2.121956   0.000000
    11  H    3.064704   3.278972   1.076446   2.177387   4.204618
    12  H    4.680888   2.136677   2.215532   1.076508   2.505515
    13  H    3.398144   4.627045   5.272457   5.595021   4.997275
    14  H    3.919362   2.855798   4.452085   4.155307   2.832058
    15  H    2.136372   5.192528   4.724488   5.609583   5.936632
    16  H    1.082307   4.410062   2.952378   4.198220   5.375611
                   11         12         13         14         15
    11  H    0.000000
    12  H    2.686947   0.000000
    13  H    6.110646   6.620083   0.000000
    14  H    5.500751   4.991726   2.473719   0.000000
    15  H    5.188282   6.681139   2.463174   4.294661   0.000000
    16  H    3.019872   5.158049   4.290143   5.001611   2.467892
                   16
    16  H    0.000000
 Stoichiometry    C8H7N
 Framework group  C1[X(C8H7N)]
 Deg. of freedom    42
 Full point group                 C1      NOp   1
 Largest Abelian subgroup         C1      NOp   1
 Largest concise Abelian subgroup C1      NOp   1
                         Standard orientation:                         
 ---------------------------------------------------------------------
 Center     Atomic      Atomic             Coordinates (Angstroms)
 Number     Number       Type             X           Y           Z
 ---------------------------------------------------------------------
      1          6           0       -2.151063    0.689208    0.000088
      2          6           0       -2.127927   -0.715818    0.000075
      3          6           0       -0.932297   -1.413100   -0.000011
      4          6           0        0.246911   -0.670201   -0.000042
      5          6           0        0.248193    0.748299    0.000000
      6          6           0       -0.979474    1.423526    0.000032
      7          7           0        1.561774   -1.077592   -0.000285
      8          6           0        1.620133    1.162900   -0.000157
      9          6           0        2.382013    0.030806    0.000248
     10          1           0        1.876315   -2.030011    0.000438
     11          1           0        1.992173    2.173010   -0.000348
     12          1           0        3.452549   -0.082425    0.000408
     13          1           0       -3.061594   -1.262020    0.000088
     14          1           0       -0.917252   -2.495342   -0.000073
     15          1           0       -3.104203    1.200785    0.000090
     16          1           0       -1.009348    2.505421   -0.000015
 ---------------------------------------------------------------------
 Rotational constants (GHZ):           3.9080822           1.6429452           1.1566805
 Standard basis: 6-31+G(d) (6D, 7F)
 There are   185 symmetry adapted cartesian basis functions of A   symmetry.
 There are   185 symmetry adapted basis functions of A   symmetry.
   185 basis functions,   316 primitive gaussians,   185 cartesian basis functions
    31 alpha electrons       31 beta electrons
       nuclear repulsion energy       401.3368668897 Hartrees.
 NAtoms=   16 NActive=   16 NUniq=   16 SFac= 1.00D+00 NAtFMM=   60 NAOKFM=F Big=F
 Integral buffers will be    131072 words long.
 Regular integral format.
 Two-electron integral symmetry is turned on.
 One-electron integrals computed using PRISM.
 NBasis=   185 RedAO= T EigKep=  1.26D-06  NBF=   185
 NBsUse=   185 1.00D-06 EigRej= -1.00D+00 NBFU=   185
 ExpMin= 4.38D-02 ExpMax= 4.17D+03 ExpMxC= 6.27D+02 IAcc=3 IRadAn=         5 AccDes= 0.00D+00
 Harris functional with IExCor= 1009 and IRadAn=       5 diagonalized for initial guess.
 HarFok:  IExCor= 1009 AccDes= 0.00D+00 IRadAn=         5 IDoV= 1 UseB2=F ITyADJ=14
 ICtDFT=  3500011 ScaDFX=  1.000000  1.000000  1.000000  1.000000
 FoFCou: FMM=F IPFlag=           0 FMFlag=      100000 FMFlg1=           0
         NFxFlg=           0 DoJE=T BraDBF=F KetDBF=T FulRan=T
         wScrn=  0.000000 ICntrl=       500 IOpCl=  0 I1Cent=   200000004 NGrid=           0
         NMat0=    1 NMatS0=      1 NMatT0=    0 NMatD0=    1 NMtDS0=    0 NMtDT0=    0
 Petite list used in FoFCou.
 Keep R1 ints in memory in canonical form, NReq=152074523.
 Requested convergence on RMS density matrix=1.00D-08 within 128 cycles.
 Requested convergence on MAX density matrix=1.00D-06.
 Requested convergence on             energy=1.00D-06.
 No special actions if energy rises.
 SCF Done:  E(RBMK) =  -363.584024432     A.U. after   14 cycles
            NFock= 14  Conv=0.90D-08     -V/T= 2.0095
 DoSCS=F DFT=T ScalE2(SS,OS)=  1.000000  1.000000
 ExpMin= 4.38D-02 ExpMax= 4.17D+03 ExpMxC= 6.27D+02 IAcc=3 IRadAn=         5 AccDes= 0.00D+00
 HarFok:  IExCor=  205 AccDes= 0.00D+00 IRadAn=         5 IDoV=-2 UseB2=F ITyADJ=14
 ICtDFT= 12500011 ScaDFX=  1.000000  1.000000  1.000000  1.000000
 Range of M.O.s used for correlation:    10   185
 NBasis=   185 NAE=    31 NBE=    31 NFC=     9 NFV=     0
 NROrb=    176 NOA=    22 NOB=    22 NVA=   154 NVB=   154

 **** Warning!!: The largest alpha MO coefficient is  0.18503601D+03

 Orbital symmetries:
       Occupied  (A) (A) (A) (A) (A) (A) (A) (A) (A) (A) (A) (A)
                 (A) (A) (A) (A) (A) (A) (A) (A) (A) (A) (A) (A)
                 (A) (A) (A) (A) (A) (A) (A)
       Virtual   (A) (A) (A) (A) (A) (A) (A) (A) (A) (A) (A) (A)
                 (A) (A) (A) (A) (A) (A) (A) (A) (A) (A) (A) (A)
                 (A) (A) (A) (A) (A) (A) (A) (A) (A) (A) (A) (A)
                 (A) (A) (A) (A) (A) (A) (A) (A) (A) (A) (A) (A)
                 (A) (A) (A) (A) (A) (A) (A) (A) (A) (A) (A) (A)
                 (A) (A) (A) (A) (A) (A) (A) (A) (A) (A) (A) (A)
                 (A) (A) (A) (A) (A) (A) (A) (A) (A) (A) (A) (A)
                 (A) (A) (A) (A) (A) (A) (A) (A) (A) (A) (A) (A)
                 (A) (A) (A) (A) (A) (A) (A) (A) (A) (A) (A) (A)
                 (A) (A) (A) (A) (A) (A) (A) (A) (A) (A) (A) (A)
                 (A) (A) (A) (A) (A) (A) (A) (A) (A) (A) (A) (A)
                 (A) (A) (A) (A) (A) (A) (A) (A) (A) (A) (A) (A)
                 (A) (A) (A) (A) (A) (A) (A) (A) (A) (A)
    24 initial guesses have been made.
 Convergence on wavefunction:    0.000001000000000
 Iteration     1 Dimension    24 NMult     0 NNew     24
 CISAX will form    24 AO SS matrices at one time.
 New state      1 was old state      2
 New state      2 was old state      1
 New state      6 was old state      7
 Iteration     2 Dimension    36 NMult    24 NNew     12
 New state      1 was old state      2
 New state      2 was old state      1
 Iteration     3 Dimension    48 NMult    36 NNew     12
 Iteration     4 Dimension    60 NMult    48 NNew     12
 Iteration     5 Dimension    72 NMult    60 NNew     12
 Iteration     6 Dimension    84 NMult    72 NNew     12
 Iteration     7 Dimension    96 NMult    84 NNew     12
 Iteration     8 Dimension   108 NMult    96 NNew     12
 No map to state      6
 Iteration     9 Dimension   120 NMult   108 NNew     12
 Iteration    10 Dimension   128 NMult   120 NNew      8
 Iteration    11 Dimension   130 NMult   128 NNew      2
 Iteration    12 Dimension   132 NMult   130 NNew      2
 Iteration    13 Dimension   134 NMult   132 NNew      2
 Iteration    14 Dimension   136 NMult   134 NNew      2
 Iteration    15 Dimension   138 NMult   136 NNew      2
 Iteration    16 Dimension   140 NMult   138 NNew      2
 ***********************************************************************
 Excited states from <AA,BB:AA,BB> singles matrix:
 ***********************************************************************
 
 Ground to excited state transition densities written to RWF  633
 Ground to excited state transition electric dipole moments (Au):
       state          X           Y           Z        Dip. S.      Osc.
         1        -0.4452      0.6927     -0.0001      0.6779      0.0849
         2        -0.7140      0.0174     -0.0001      0.5101      0.0649
         3         0.0004     -0.0003     -0.1247      0.0155      0.0022
         4        -0.0011     -0.0002     -0.1441      0.0208      0.0032
         5         0.0034      0.0008      0.0185      0.0004      0.0001
         6        -1.9257     -0.6145     -0.0011      4.0858      0.6410
 Ground to excited state transition velocity dipole moments (Au):
       state          X           Y           Z        Dip. S.      Osc.
         1         0.0748     -0.1382      0.0000      0.0247      0.0876
         2         0.1273     -0.0043      0.0000      0.0162      0.0567
         3        -0.0001      0.0001      0.0163      0.0003      0.0008
         4         0.0003      0.0000      0.0333      0.0011      0.0032
         5        -0.0008     -0.0002     -0.0037      0.0000      0.0000
         6         0.4394      0.1433      0.0003      0.2136      0.6050
 Ground to excited state transition magnetic dipole moments (Au):
       state          X           Y           Z
         1         0.0003     -0.0000      0.1715
         2        -0.0000     -0.0002     -0.0213
         3         0.1431     -0.0932      0.0001
         4         0.0971     -0.2959     -0.0002
         5         0.2614     -0.1528      0.0012
         6        -0.0016     -0.0040     -0.7438
 Ground to excited state transition velocity quadrupole moments (Au):
       state          XX          YY          ZZ          XY          XZ          YZ
         1         0.1939     -0.0964      0.0007      0.0230      0.0001      0.0001
         2         0.1175     -0.1503      0.0221     -0.0022      0.0001     -0.0000
         3        -0.0001      0.0001      0.0001      0.0000      0.0782      0.0632
         4         0.0000     -0.0000     -0.0000     -0.0001      0.2221      0.0400
         5        -0.0005      0.0002      0.0001      0.0009      0.1981      0.2559
         6         0.1249     -0.1305     -0.0302     -0.4954      0.0033     -0.0004
 <0|del|b> * <b|rxdel|0> + <0|del|b> * <b|delr+rdel|0>
 Rotatory Strengths (R) in cgs (10**-40 erg-esu-cm/Gauss)
       state          XX          YY          ZZ    R(velocity)    E-M Angle
         1         0.0292      0.0525      0.0104      0.0307       90.00
         2         0.0018     -0.0066      0.0040     -0.0003       90.00
         3        -0.0164     -0.0252     -0.0120     -0.0179       90.00
         4        -0.0436      0.0503      0.0195      0.0087       90.00
         5         0.0846     -0.5980     -0.0187     -0.1773       98.80
         6        -2.0475     -1.4399     -0.8990     -1.4621       90.24
 1/2[<0|r|b>*<b|rxdel|0> + (<0|rxdel|b>*<b|r|0>)*]
 Rotatory Strengths (R) in cgs (10**-40 erg-esu-cm/Gauss)
       state          XX          YY          ZZ     R(length)
         1         0.0854      0.0075      0.0114      0.0348
         2        -0.0026      0.0026     -0.0020     -0.0007
         3        -0.0454     -0.0173      0.0060     -0.0189
         4         0.0784     -0.0346     -0.0226      0.0070
         5        -0.6204      0.0837     -0.0163     -0.1843
         6        -2.1672     -1.7397     -0.5938     -1.5002
  1/2[<0|del|b>*<b|r|0> + (<0|r|b>*<b|del|0>)*] (Au)
       state          X           Y           Z        Dip. S.   Osc.(frdel)
         1        -0.0333     -0.0957     -0.0000      0.1290      0.0860
         2        -0.0909     -0.0001     -0.0000      0.0910      0.0607
         3        -0.0000     -0.0000     -0.0020      0.0020      0.0014
         4        -0.0000     -0.0000     -0.0048      0.0048      0.0032
         5        -0.0000     -0.0000     -0.0001      0.0001      0.0000
         6        -0.8461     -0.0880     -0.0000      0.9341      0.6227

 Excitation energies and oscillator strengths:
 
 Excited State   1:      Singlet-A      5.1121 eV  242.53 nm  f=0.0849  <S**2>=0.000
      30 -> 32        -0.24656
      30 -> 35         0.16073
      31 -> 32         0.62712
 
 Excited State   2:      Singlet-A      5.1968 eV  238.58 nm  f=0.0649  <S**2>=0.000
      30 -> 32         0.53626
      31 -> 32         0.25165
      31 -> 35        -0.36532
 
 Excited State   3:      Singlet-A      5.7189 eV  216.80 nm  f=0.0022  <S**2>=0.000
      31 -> 33         0.69320
 This state for optimization and/or second-order correction.
 Total Energy, E(TD-HF/TD-DFT) =  -363.373859806    
 Copying the excited state density for this state as the 1-particle RhoCI density.
 
 Excited State   4:      Singlet-A      6.2294 eV  199.03 nm  f=0.0032  <S**2>=0.000
      30 -> 33         0.63201
      31 -> 34         0.26630
 
 Excited State   5:      Singlet-A      6.3337 eV  195.75 nm  f=0.0001  <S**2>=0.000
      30 -> 33        -0.26598
      31 -> 34         0.63844
 
 Excited State   6:      Singlet-A      6.4038 eV  193.61 nm  f=0.6410  <S**2>=0.000
      30 -> 32         0.34658
      31 -> 35         0.57678
      31 -> 39         0.12591
 SavETr:  write IOETrn=   770 NScale= 10 NData=  16 NLR=1 NState=    6 LETran=     118.
          IDoAtm=1111111111111111
          Differentiating once with respect to electric field.
                with respect to dipole field.
          Differentiating once with respect to nuclear coordinates.
 Keep R1 ints in memory in canonical form, NReq=152086915.
          There are     1 degrees of freedom in the 1st order CPHF.  IDoFFX=0 NUNeed=     1.
 LinEq1:  Iter=  0 NonCon=     1 RMS=1.10D-02 Max=1.79D-01 NDo=     1
 AX will form     1 AO Fock derivatives at one time.
 LinEq1:  Iter=  1 NonCon=     1 RMS=5.22D-03 Max=1.43D-01 NDo=     1
 LinEq1:  Iter=  2 NonCon=     1 RMS=3.16D-03 Max=8.27D-02 NDo=     1
 LinEq1:  Iter=  3 NonCon=     1 RMS=1.07D-03 Max=2.70D-02 NDo=     1
 LinEq1:  Iter=  4 NonCon=     1 RMS=6.07D-04 Max=1.17D-02 NDo=     1
 LinEq1:  Iter=  5 NonCon=     1 RMS=2.86D-04 Max=7.68D-03 NDo=     1
 LinEq1:  Iter=  6 NonCon=     1 RMS=1.94D-04 Max=5.82D-03 NDo=     1
 LinEq1:  Iter=  7 NonCon=     1 RMS=6.69D-05 Max=2.16D-03 NDo=     1
 LinEq1:  Iter=  8 NonCon=     1 RMS=2.21D-05 Max=5.27D-04 NDo=     1
 LinEq1:  Iter=  9 NonCon=     1 RMS=1.52D-05 Max=4.67D-04 NDo=     1
 LinEq1:  Iter= 10 NonCon=     1 RMS=4.75D-06 Max=8.63D-05 NDo=     1
 LinEq1:  Iter= 11 NonCon=     1 RMS=2.54D-06 Max=5.89D-05 NDo=     1
 LinEq1:  Iter= 12 NonCon=     1 RMS=9.86D-07 Max=2.55D-05 NDo=     1
 LinEq1:  Iter= 13 NonCon=     1 RMS=3.81D-07 Max=5.30D-06 NDo=     1
 LinEq1:  Iter= 14 NonCon=     1 RMS=1.72D-07 Max=2.66D-06 NDo=     1
 LinEq1:  Iter= 15 NonCon=     1 RMS=4.42D-08 Max=5.20D-07 NDo=     1
 LinEq1:  Iter= 16 NonCon=     1 RMS=2.20D-08 Max=3.39D-07 NDo=     1
 LinEq1:  Iter= 17 NonCon=     1 RMS=6.53D-09 Max=1.54D-07 NDo=     1
 LinEq1:  Iter= 18 NonCon=     1 RMS=1.56D-09 Max=2.99D-08 NDo=     1
 LinEq1:  Iter= 19 NonCon=     1 RMS=8.46D-10 Max=1.49D-08 NDo=     1
 LinEq1:  Iter= 20 NonCon=     1 RMS=3.04D-10 Max=4.00D-09 NDo=     1
 LinEq1:  Iter= 21 NonCon=     1 RMS=6.30D-11 Max=1.19D-09 NDo=     1
 LinEq1:  Iter= 22 NonCon=     0 RMS=1.42D-11 Max=1.27D-10 NDo=     1
 Linear equations converged to 1.000D-10 1.000D-09 after    22 iterations.
 End of Minotr F.D. properties file   721 does not exist.
 End of Minotr F.D. properties file   722 does not exist.
 End of Minotr F.D. properties file   788 does not exist.

 **********************************************************************

            Population analysis using the CI Density.

 **********************************************************************

 Orbital symmetries:
       Occupied  (A) (A) (A) (A) (A) (A) (A) (A) (A) (A) (A) (A)
                 (A) (A) (A) (A) (A) (A) (A) (A) (A) (A) (A) (A)
                 (A) (A) (A) (A) (A) (A) (A)
       Virtual   (A) (A) (A) (A) (A) (A) (A) (A) (A) (A) (A) (A)
                 (A) (A) (A) (A) (A) (A) (A) (A) (A) (A) (A) (A)
                 (A) (A) (A) (A) (A) (A) (A) (A) (A) (A) (A) (A)
                 (A) (A) (A) (A) (A) (A) (A) (A) (A) (A) (A) (A)
                 (A) (A) (A) (A) (A) (A) (A) (A) (A) (A) (A) (A)
                 (A) (A) (A) (A) (A) (A) (A) (A) (A) (A) (A) (A)
                 (A) (A) (A) (A) (A) (A) (A) (A) (A) (A) (A) (A)
                 (A) (A) (A) (A) (A) (A) (A) (A) (A) (A) (A) (A)
                 (A) (A) (A) (A) (A) (A) (A) (A) (A) (A) (A) (A)
                 (A) (A) (A) (A) (A) (A) (A) (A) (A) (A) (A) (A)
                 (A) (A) (A) (A) (A) (A) (A) (A) (A) (A) (A) (A)
                 (A) (A) (A) (A) (A) (A) (A) (A) (A) (A) (A) (A)
                 (A) (A) (A) (A) (A) (A) (A) (A) (A) (A)
 The electronic state is 1-A.
 Alpha  occ. eigenvalues --  -14.72320 -10.51980 -10.51638 -10.48393 -10.47834
 Alpha  occ. eigenvalues --  -10.47773 -10.47763 -10.47231 -10.47090  -1.06508
 Alpha  occ. eigenvalues --   -0.91471  -0.85401  -0.80354  -0.78424  -0.68504
 Alpha  occ. eigenvalues --   -0.65344  -0.63934  -0.59573  -0.53337  -0.52238
 Alpha  occ. eigenvalues --   -0.48366  -0.47726  -0.47471  -0.45666  -0.43587
 Alpha  occ. eigenvalues --   -0.39668  -0.37981  -0.37482  -0.31814  -0.25464
 Alpha  occ. eigenvalues --   -0.23689
 Alpha virt. eigenvalues --    0.01115   0.03124   0.04958   0.05020   0.05493
 Alpha virt. eigenvalues --    0.06663   0.07068   0.08054   0.09175   0.09489
 Alpha virt. eigenvalues --    0.09848   0.10164   0.12593   0.12882   0.13450
 Alpha virt. eigenvalues --    0.13720   0.14916   0.16539   0.17600   0.17762
 Alpha virt. eigenvalues --    0.18699   0.19396   0.19994   0.20364   0.20451
 Alpha virt. eigenvalues --    0.21170   0.22280   0.22936   0.23024   0.23240
 Alpha virt. eigenvalues --    0.23861   0.24493   0.25287   0.26041   0.26643
 Alpha virt. eigenvalues --    0.27264   0.27487   0.27778   0.28866   0.29443
 Alpha virt. eigenvalues --    0.30229   0.30741   0.31911   0.33666   0.34490
 Alpha virt. eigenvalues --    0.35408   0.36030   0.37532   0.39752   0.41136
 Alpha virt. eigenvalues --    0.42347   0.44542   0.48783   0.49949   0.56838
 Alpha virt. eigenvalues --    0.63404   0.68057   0.72718   0.72762   0.75250
 Alpha virt. eigenvalues --    0.76901   0.77553   0.78714   0.79054   0.79495
 Alpha virt. eigenvalues --    0.80743   0.80857   0.83262   0.84756   0.85422
 Alpha virt. eigenvalues --    0.87252   0.91178   0.95191   0.97093   0.98018
 Alpha virt. eigenvalues --    1.00610   1.01452   1.02121   1.03609   1.04906
 Alpha virt. eigenvalues --    1.06228   1.09777   1.11910   1.14534   1.16433
 Alpha virt. eigenvalues --    1.18279   1.18845   1.23998   1.24680   1.27424
 Alpha virt. eigenvalues --    1.29699   1.31459   1.31965   1.38601   1.39598
 Alpha virt. eigenvalues --    1.41848   1.43814   1.48700   1.49335   1.52002
 Alpha virt. eigenvalues --    1.53978   1.54231   1.57670   1.58459   1.60777
 Alpha virt. eigenvalues --    1.66256   1.72623   1.85419   1.93941   1.97200
 Alpha virt. eigenvalues --    1.98319   2.01127   2.03585   2.08334   2.08643
 Alpha virt. eigenvalues --    2.09845   2.15371   2.18983   2.22387   2.24839
 Alpha virt. eigenvalues --    2.26146   2.28348   2.32819   2.33756   2.34480
 Alpha virt. eigenvalues --    2.35866   2.39388   2.46110   2.48898   2.52503
 Alpha virt. eigenvalues --    2.62830   2.63850   2.70319   2.72470   2.74849
 Alpha virt. eigenvalues --    2.77918   2.81403   2.88953   2.92556   2.93579
 Alpha virt. eigenvalues --    3.03560   3.05213   3.20876   3.31552   3.53168
 Alpha virt. eigenvalues --    4.24419   4.33450   4.36166   4.39705   4.43458
 Alpha virt. eigenvalues --    4.47176   4.55207   4.59126   4.85909
          Condensed to atoms (all electrons):
               1          2          3          4          5          6
     1  C   44.209640  14.406815   1.731490 -41.003768   0.678080 -54.197085
     2  C   14.406815  27.494623  10.958987 -29.731892  15.869494 -48.527836
     3  C    1.731490  10.958987  51.827577 -60.326515  41.220542 -54.415424
     4  C  -41.003768 -29.731892 -60.326515 175.466922 -65.910562 131.449322
     5  C    0.678080  15.869494  41.220542 -65.910562 152.316762 -87.368166
     6  C  -54.197085 -48.527836 -54.415424 131.449322 -87.368166 178.777073
     7  N   -0.577459   1.505106  -1.811881   4.683142  -5.185300   4.739130
     8  C   65.887455  20.257913  29.181436-195.813723 -93.843012-105.035259
     9  C  -25.033196  -5.999751 -11.654507  87.150879  46.251598  39.634954
    10  H    0.043574  -0.172361  -0.107515   0.247357   0.360355  -0.291993
    11  H   -0.013494  -0.000709  -0.035933  -0.130706   0.298104   0.140089
    12  H    0.008731  -0.006309   0.082641   0.163157  -0.372580  -0.044914
    13  H    0.071258   0.208243  -0.145988   0.151988  -0.133555   0.167450
    14  H    0.010673  -0.053148  -0.038893   0.514779  -0.163216   0.004403
    15  H    0.296735   0.126844   0.028740  -0.112774   0.071152  -0.134804
    16  H   -0.107095  -0.091649  -0.030764   0.181214   0.378963   0.128131
               7          8          9         10         11         12
     1  C   -0.577459  65.887455 -25.033196   0.043574  -0.013494   0.008731
     2  C    1.505106  20.257913  -5.999751  -0.172361  -0.000709  -0.006309
     3  C   -1.811881  29.181436 -11.654507  -0.107515  -0.035933   0.082641
     4  C    4.683142-195.813723  87.150879   0.247357  -0.130706   0.163157
     5  C   -5.185300 -93.843012  46.251598   0.360355   0.298104  -0.372580
     6  C    4.739130-105.035259  39.634954  -0.291993   0.140089  -0.044914
     7  N   15.497686 -33.615542  21.751472  -1.066707   0.004284  -0.039565
     8  C  -33.615542 656.707225-333.218210   3.399708  -0.256092   0.536804
     9  C   21.751472-333.218210 184.296803  -2.281582   0.287315  -0.018236
    10  H   -1.066707   3.399708  -2.281582   0.621963  -0.000167  -0.000765
    11  H    0.004284  -0.256092   0.287315  -0.000167   0.454172  -0.000457
    12  H   -0.039565   0.536804  -0.018236  -0.000765  -0.000457   0.421337
    13  H    0.002288  -0.035224   0.015117  -0.000018   0.000000  -0.000000
    14  H    0.019610  -0.066231   0.051504   0.002628   0.000001   0.000003
    15  H   -0.000605   0.038654  -0.008165   0.000000  -0.000001  -0.000000
    16  H    0.003132  -0.249909   0.072041   0.000001   0.001365  -0.000001
              13         14         15         16
     1  C    0.071258   0.010673   0.296735  -0.107095
     2  C    0.208243  -0.053148   0.126844  -0.091649
     3  C   -0.145988  -0.038893   0.028740  -0.030764
     4  C    0.151988   0.514779  -0.112774   0.181214
     5  C   -0.133555  -0.163216   0.071152   0.378963
     6  C    0.167450   0.004403  -0.134804   0.128131
     7  N    0.002288   0.019610  -0.000605   0.003132
     8  C   -0.035224  -0.066231   0.038654  -0.249909
     9  C    0.015117   0.051504  -0.008165   0.072041
    10  H   -0.000018   0.002628   0.000000   0.000001
    11  H    0.000000   0.000001  -0.000001   0.001365
    12  H   -0.000000   0.000003  -0.000000  -0.000001
    13  H    0.477285  -0.003180  -0.003593  -0.000131
    14  H   -0.003180   0.485526  -0.000154   0.000017
    15  H   -0.003593  -0.000154   0.486598  -0.003368
    16  H   -0.000131   0.000017  -0.003368   0.488351
 Mulliken charges:
               1
     1  C   -0.412353
     2  C   -0.244369
     3  C   -0.463994
     4  C   -0.978822
     5  C    1.531342
     6  C    0.974928
     7  N    1.091209
     8  C   -7.875994
     9  C    4.701963
    10  H    0.245522
    11  H    0.252231
    12  H    0.270155
    13  H    0.228059
    14  H    0.235677
    15  H    0.214742
    16  H    0.229703
 Sum of Mulliken charges =  -0.00000
 Mulliken charges with hydrogens summed into heavy atoms:
               1
     1  C   -0.197611
     2  C   -0.016310
     3  C   -0.228317
     4  C   -0.978822
     5  C    1.531342
     6  C    1.204630
     7  N    1.336731
     8  C   -7.623763
     9  C    4.972119
 Electronic spatial extent (au):  <R**2>=           1042.1473
 Charge=              0.0000 electrons
 Dipole moment (field-independent basis, Debye):
    X=             -6.6525    Y=              6.4334    Z=             -0.0018  Tot=              9.2544
 Quadrupole moment (field-independent basis, Debye-Ang):
   XX=            -67.6559   YY=            -64.5571   ZZ=            -66.1231
   XY=             17.8180   XZ=             -0.0078   YZ=              0.0037
 Traceless Quadrupole moment (field-independent basis, Debye-Ang):
   XX=             -1.5439   YY=              1.5549   ZZ=             -0.0110
   XY=             17.8180   XZ=             -0.0078   YZ=              0.0037
 Octapole moment (field-independent basis, Debye-Ang**2):
  XXX=           -139.1482  YYY=             78.3801  ZZZ=             -0.0149  XYY=            -51.5961
  XXY=             59.9318  XXZ=             -0.0309  XZZ=            -21.7583  YZZ=             21.1687
  YYZ=             -0.0108  XYZ=              0.0137
 Hexadecapole moment (field-independent basis, Debye-Ang**3):
 XXXX=          -1470.5150 YYYY=           -710.1793 ZZZZ=           -145.1157 XXXY=            259.9915
 XXXZ=             -0.1405 YYYX=            163.3731 YYYZ=              0.0324 ZZZX=             -0.0452
 ZZZY=              0.0286 XXYY=           -374.0089 XXZZ=           -261.1498 YYZZ=           -158.1594
 XXYZ=              0.0524 YYXZ=             -0.0465 ZZXY=             46.3315
 N-N= 4.013368668897D+02 E-N=-1.641055511437D+03  KE= 3.600895826575D+02
 Calling FoFJK, ICntrl=  10005127 FMM=F ISym2X=0 I1Cent= 0 IOpClX= 0 NMat=1 NMatS=1 NMatT=0.
 ***** Axes restored to original set *****
 -------------------------------------------------------------------
 Center     Atomic                   Forces (Hartrees/Bohr)
 Number     Number              X              Y              Z
 -------------------------------------------------------------------
      1        6          -0.016948165   -0.011562645    0.000002367
      2        6          -0.019656323    0.022076210    0.000000814
      3        6           0.030985562   -0.012390053   -0.000010368
      4        6          -0.006510905   -0.002919427   -0.000004295
      5        6           0.002247355   -0.001910042   -0.000037766
      6        6           0.009070508    0.013964807   -0.000009458
      7        7           0.025277906    0.061138888    0.000095664
      8        6          -0.035781589    0.027883979    0.000046003
      9        6          -0.004852870   -0.076152129   -0.000100991
     10        1           0.012685826   -0.025345173   -0.000002658
     11        1           0.002795616    0.006518936    0.000004239
     12        1           0.007010308   -0.003658285    0.000008173
     13        1          -0.003774811   -0.002207192    0.000000976
     14        1           0.001512635   -0.002173183    0.000001114
     15        1          -0.003701630    0.002231569    0.000002667
     16        1          -0.000359422    0.004503740    0.000003521
 -------------------------------------------------------------------
 Cartesian Forces:  Max     0.076152129 RMS     0.018248320

 GradGradGradGradGradGradGradGradGradGradGradGradGradGradGradGradGradGrad
 Berny optimization.
 FormGI is forming the generalized inverse of G from B-inverse, IUseBI=4.
 Internal  Forces:  Max     0.048112560 RMS     0.009627030
 Search for a local minimum.
 Step number   1 out of a maximum of   94
 All quantities printed in internal units (Hartrees-Bohrs-Radians)
 Mixed Optimization -- RFO/linear search
 Second derivative matrix not updated -- first step.
 ITU=  0
     Eigenvalues ---    0.01853   0.01931   0.01986   0.02012   0.02070
     Eigenvalues ---    0.02113   0.02148   0.02153   0.02172   0.02209
     Eigenvalues ---    0.02233   0.02248   0.02338   0.16000   0.16000
     Eigenvalues ---    0.16000   0.16000   0.16000   0.16000   0.16000
     Eigenvalues ---    0.22000   0.22188   0.22662   0.24011   0.24651
     Eigenvalues ---    0.35712   0.35717   0.35783   0.35790   0.36420
     Eigenvalues ---    0.36427   0.37009   0.38432   0.42633   0.43465
     Eigenvalues ---    0.45769   0.46692   0.47162   0.47468   0.47567
     Eigenvalues ---    0.48125   0.50955
 RFO step:  Lambda=-1.60575351D-02 EMin= 1.85287394D-02
 Linear search not attempted -- first point.
 Iteration  1 RMS(Cart)=  0.02941632 RMS(Int)=  0.00015611
 Iteration  2 RMS(Cart)=  0.00019763 RMS(Int)=  0.00003906
 Iteration  3 RMS(Cart)=  0.00000003 RMS(Int)=  0.00003906
 Variable       Old X    -DE/DX   Delta X   Delta X   Delta X     New X
                                 (Linear)    (Quad)   (Total)
    R1        2.65547  -0.00098   0.00000  -0.00068  -0.00069   2.65479
    R2        2.61291   0.01791   0.00000   0.03683   0.03683   2.64975
    R3        2.04421   0.00432   0.00000   0.01155   0.01155   2.05576
    R4        2.61557   0.03378   0.00000   0.06780   0.06779   2.68336
    R5        2.04411   0.00437   0.00000   0.01169   0.01169   2.05581
    R6        2.63373  -0.00596   0.00000  -0.01355  -0.01356   2.62017
    R7        2.04534   0.00219   0.00000   0.00588   0.00588   2.05122
    R8        2.68058   0.00410   0.00000   0.00783   0.00794   2.68852
    R9        2.60126   0.01383   0.00000   0.02334   0.02339   2.62466
   R10        2.64771   0.01125   0.00000   0.02375   0.02376   2.67146
   R11        2.70839  -0.00663   0.00000  -0.01128  -0.01127   2.69711
   R12        2.04526   0.00451   0.00000   0.01209   0.01209   2.05735
   R13        2.60573  -0.04811   0.00000  -0.09684  -0.09691   2.50882
   R14        1.89542   0.02804   0.00000   0.05751   0.05751   1.95293
   R15        2.57870   0.04726   0.00000   0.09009   0.08998   2.66868
   R16        2.03419   0.00708   0.00000   0.01863   0.01863   2.05281
   R17        2.03430   0.00736   0.00000   0.01935   0.01935   2.05365
    A1        2.11420  -0.00548   0.00000  -0.01779  -0.01777   2.09644
    A2        2.07986   0.00296   0.00000   0.01014   0.01013   2.08999
    A3        2.08912   0.00252   0.00000   0.00765   0.00764   2.09676
    A4        2.11523   0.00273   0.00000   0.01485   0.01486   2.13009
    A5        2.08365  -0.00137   0.00000  -0.00742  -0.00743   2.07623
    A6        2.08430  -0.00137   0.00000  -0.00743  -0.00743   2.07687
    A7        2.05144   0.00012   0.00000  -0.00148  -0.00147   2.04997
    A8        2.11267   0.00145   0.00000   0.00935   0.00935   2.12201
    A9        2.11908  -0.00158   0.00000  -0.00788  -0.00788   2.11120
   A10        2.13389  -0.00386   0.00000  -0.01536  -0.01541   2.11847
   A11        2.27895  -0.00222   0.00000  -0.00243  -0.00252   2.27643
   A12        1.87035   0.00608   0.00000   0.01778   0.01793   1.88828
   A13        2.07274   0.00945   0.00000   0.02997   0.02995   2.10269
   A14        1.86517  -0.00918   0.00000  -0.02738  -0.02729   1.83789
   A15        2.34527  -0.00027   0.00000  -0.00259  -0.00266   2.34261
   A16        2.07887  -0.00297   0.00000  -0.01020  -0.01016   2.06871
   A17        2.10306   0.00124   0.00000   0.00373   0.00371   2.10677
   A18        2.10125   0.00172   0.00000   0.00647   0.00645   2.10770
   A19        1.90743   0.00568   0.00000   0.01135   0.01134   1.91877
   A20        2.19023   0.00104   0.00000   0.01639   0.01639   2.20662
   A21        2.18553  -0.00673   0.00000  -0.02774  -0.02773   2.15780
   A22        1.86968  -0.00143   0.00000   0.00451   0.00442   1.87410
   A23        2.21717   0.00109   0.00000  -0.00012  -0.00008   2.21709
   A24        2.19633   0.00034   0.00000  -0.00439  -0.00434   2.19199
   A25        1.91215  -0.00115   0.00000  -0.00626  -0.00641   1.90574
   A26        2.10250  -0.00237   0.00000  -0.01362  -0.01355   2.08895
   A27        2.26854   0.00353   0.00000   0.01988   0.01995   2.28849
    D1       -0.00001   0.00000   0.00000   0.00004   0.00004   0.00003
    D2       -3.14156  -0.00000   0.00000  -0.00001  -0.00001  -3.14157
    D3        3.14152   0.00000   0.00000   0.00008   0.00008  -3.14159
    D4       -0.00002   0.00000   0.00000   0.00003   0.00003   0.00000
    D5       -0.00003  -0.00000   0.00000  -0.00002  -0.00003  -0.00006
    D6        3.14153   0.00000   0.00000   0.00007   0.00007  -3.14158
    D7       -3.14157  -0.00000   0.00000  -0.00006  -0.00006   3.14156
    D8       -0.00001   0.00000   0.00000   0.00004   0.00004   0.00003
    D9        0.00003   0.00000   0.00000   0.00001   0.00001   0.00004
   D10       -3.14154  -0.00000   0.00000  -0.00006  -0.00005  -3.14159
   D11        3.14158   0.00000   0.00000   0.00006   0.00006  -3.14155
   D12        0.00001  -0.00000   0.00000  -0.00000  -0.00000   0.00001
   D13       -0.00001  -0.00000   0.00000  -0.00008  -0.00008  -0.00009
   D14       -3.14144  -0.00000   0.00000  -0.00005  -0.00004  -3.14148
   D15        3.14156  -0.00000   0.00000  -0.00002  -0.00001   3.14155
   D16        0.00013  -0.00000   0.00000   0.00002   0.00002   0.00015
   D17       -0.00004   0.00001   0.00000   0.00010   0.00009   0.00006
   D18       -3.14151   0.00000   0.00000  -0.00006  -0.00006  -3.14158
   D19        3.14143   0.00001   0.00000   0.00007   0.00006   3.14149
   D20       -0.00005   0.00000   0.00000  -0.00008  -0.00009  -0.00014
   D21       -3.14124  -0.00001   0.00000  -0.00047  -0.00048   3.14146
   D22       -0.00113   0.00001   0.00000   0.00027   0.00028  -0.00086
   D23        0.00049  -0.00001   0.00000  -0.00043  -0.00045   0.00005
   D24        3.14060   0.00001   0.00000   0.00031   0.00031   3.14091
   D25        0.00005  -0.00000   0.00000  -0.00004  -0.00004   0.00002
   D26       -3.14151  -0.00001   0.00000  -0.00014  -0.00014   3.14154
   D27        3.14150   0.00000   0.00000   0.00017   0.00017  -3.14152
   D28       -0.00007   0.00000   0.00000   0.00007   0.00007   0.00001
   D29       -0.00041   0.00003   0.00000   0.00061   0.00059   0.00018
   D30        3.14139   0.00001   0.00000   0.00013   0.00012   3.14151
   D31        3.14132   0.00002   0.00000   0.00041   0.00040  -3.14146
   D32       -0.00006   0.00000   0.00000  -0.00006  -0.00007  -0.00013
   D33       -0.00077   0.00003   0.00000   0.00085   0.00085   0.00007
   D34        3.14133   0.00001   0.00000   0.00025   0.00025   3.14157
   D35       -3.14089   0.00000   0.00000   0.00007   0.00007  -3.14082
   D36        0.00121  -0.00002   0.00000  -0.00054  -0.00053   0.00068
   D37        0.00072  -0.00003   0.00000  -0.00088  -0.00088  -0.00016
   D38       -3.14144  -0.00001   0.00000  -0.00021  -0.00021   3.14154
   D39       -3.14107  -0.00001   0.00000  -0.00041  -0.00042  -3.14150
   D40       -0.00005   0.00001   0.00000   0.00026   0.00025   0.00020
         Item               Value     Threshold  Converged?
 Maximum Force            0.048113     0.000450     NO 
 RMS     Force            0.009627     0.000300     NO 
 Maximum Displacement     0.124713     0.001800     NO 
 RMS     Displacement     0.029446     0.001200     NO 
 Predicted change in Energy=-8.306706D-03
 GradGradGradGradGradGradGradGradGradGradGradGradGradGradGradGradGradGrad

                          Input orientation:                          
 ---------------------------------------------------------------------
 Center     Atomic      Atomic             Coordinates (Angstroms)
 Number     Number       Type             X           Y           Z
 ---------------------------------------------------------------------
      1          6           0       -2.187201    0.703150   -0.000002
      2          6           0       -2.137091   -0.700808    0.000009
      3          6           0       -0.907369   -1.410818    0.000024
      4          6           0        0.261447   -0.664929    0.000081
      5          6           0        0.232525    0.757481    0.000018
      6          6           0       -1.000174    1.449535   -0.000033
      7          7           0        1.589485   -1.071601   -0.000013
      8          6           0        1.601228    1.162077    0.000083
      9          6           0        2.387776   -0.010809   -0.000068
     10          1           0        1.932830   -2.046343    0.000567
     11          1           0        1.982762    2.179173   -0.000006
     12          1           0        3.465773   -0.148420   -0.000122
     13          1           0       -3.069561   -1.261161    0.000010
     14          1           0       -0.877412   -2.495862    0.000029
     15          1           0       -3.150357    1.208890   -0.000007
     16          1           0       -1.027760    2.537890   -0.000034
 ---------------------------------------------------------------------
                    Distance matrix (angstroms):
                    1          2          3          4          5
     1  C    0.000000
     2  C    1.404853   0.000000
     3  C    2.471200   1.419975   0.000000
     4  C    2.804909   2.398806   1.386535   0.000000
     5  C    2.420335   2.782388   2.449669   1.422704   0.000000
     6  C    1.402185   2.432397   2.861858   2.462244   1.413678
     7  N    4.172900   3.744977   2.519791   1.388909   2.277473
     8  C    3.816125   4.176765   3.593445   2.265605   1.427251
     9  C    4.630351   4.577174   3.580224   2.224668   2.288095
    10  H    4.953218   4.286575   2.910434   2.168370   3.279096
    11  H    4.423487   5.026677   4.608784   3.324431   2.254892
    12  H    5.716755   5.630028   4.551705   3.245687   3.357760
    13  H    2.153388   1.087886   2.167365   3.383948   3.870231
    14  H    3.456766   2.192945   1.085458   2.156227   3.437470
    15  H    1.087861   2.161864   3.448748   3.892506   3.412867
    16  H    2.170385   3.423417   3.950542   3.452550   2.181323
                    6          7          8          9         10
     6  C    0.000000
     7  N    3.614203   0.000000
     8  C    2.617236   2.233709   0.000000
     9  C    3.689283   1.327610   1.412203   0.000000
    10  H    4.563297   1.033446   3.225511   2.085756   0.000000
    11  H    3.070876   3.274476   1.086302   2.227118   4.225811
    12  H    4.743221   2.091105   2.279019   1.086745   2.439677
    13  H    3.410313   4.662901   5.261972   5.598742   5.063638
    14  H    3.947307   2.848526   4.418617   4.103285   2.845967
    15  H    2.163607   5.259918   4.751816   5.670854   6.036169
    16  H    1.088704   4.458519   2.967227   4.261660   5.457132
                   11         12         13         14         15
    11  H    0.000000
    12  H    2.759893   0.000000
    13  H    6.112435   6.629388   0.000000
    14  H    5.480561   4.936977   2.515950   0.000000
    15  H    5.224018   6.753922   2.471372   4.346431   0.000000
    16  H    3.031818   5.235274   4.312974   5.035997   2.504328
                   16
    16  H    0.000000
 Stoichiometry    C8H7N
 Framework group  C1[X(C8H7N)]
 Deg. of freedom    42
 Full point group                 C1      NOp   1
 Largest Abelian subgroup         C1      NOp   1
 Largest concise Abelian subgroup C1      NOp   1
                         Standard orientation:                         
 ---------------------------------------------------------------------
 Center     Atomic      Atomic             Coordinates (Angstroms)
 Number     Number       Type             X           Y           Z
 ---------------------------------------------------------------------
      1          6           0       -2.203527    0.640951   -0.000018
      2          6           0       -2.115530   -0.761143   -0.000007
      3          6           0       -0.867086   -1.437692    0.000007
      4          6           0        0.281165   -0.660518    0.000064
      5          6           0        0.213849    0.760593    0.000001
      6          6           0       -1.037085    1.419113   -0.000050
      7          7           0        1.619699   -1.031185   -0.000029
      8          6           0        1.571130    1.201995    0.000066
      9          6           0        2.389058    0.050774   -0.000084
     10          1           0        1.989236   -1.996302    0.000551
     11          1           0        1.925064    2.229022   -0.000023
     12          1           0        3.470377   -0.057683   -0.000139
     13          1           0       -3.032531   -1.346468   -0.000007
     14          1           0       -0.807845   -2.521532    0.000012
     15          1           0       -3.179987    1.120501   -0.000023
     16          1           0       -1.094046    2.506326   -0.000050
 ---------------------------------------------------------------------
 Rotational constants (GHZ):           3.8831632           1.6227880           1.1444981
 Standard basis: 6-31+G(d) (6D, 7F)
 There are   185 symmetry adapted cartesian basis functions of A   symmetry.
 There are   185 symmetry adapted basis functions of A   symmetry.
   185 basis functions,   316 primitive gaussians,   185 cartesian basis functions
    31 alpha electrons       31 beta electrons
       nuclear repulsion energy       399.3481282405 Hartrees.
 NAtoms=   16 NActive=   16 NUniq=   16 SFac= 1.00D+00 NAtFMM=   60 NAOKFM=F Big=F
 Integral buffers will be    131072 words long.
 Regular integral format.
 Two-electron integral symmetry is turned on.
 One-electron integrals computed using PRISM.
 NBasis=   185 RedAO= T EigKep=  1.25D-06  NBF=   185
 NBsUse=   185 1.00D-06 EigRej= -1.00D+00 NBFU=   185
 Initial guess from the checkpoint file:  "FuncsBMK-V-3rd.chk"
 B after Tr=     0.000000   -0.000000    0.000000
         Rot=    0.999911    0.000009    0.000008   -0.013371 Ang=   1.53 deg.
 ExpMin= 4.38D-02 ExpMax= 4.17D+03 ExpMxC= 6.27D+02 IAcc=3 IRadAn=         5 AccDes= 0.00D+00
 Harris functional with IExCor= 1009 and IRadAn=       5 diagonalized for initial guess.
 HarFok:  IExCor= 1009 AccDes= 0.00D+00 IRadAn=         5 IDoV= 1 UseB2=F ITyADJ=14
 ICtDFT=  3500011 ScaDFX=  1.000000  1.000000  1.000000  1.000000
 FoFCou: FMM=F IPFlag=           0 FMFlag=      100000 FMFlg1=           0
         NFxFlg=           0 DoJE=T BraDBF=F KetDBF=T FulRan=T
         wScrn=  0.000000 ICntrl=       500 IOpCl=  0 I1Cent=   200000004 NGrid=           0
         NMat0=    1 NMatS0=      1 NMatT0=    0 NMatD0=    1 NMtDS0=    0 NMtDT0=    0
 Petite list used in FoFCou.
 Keep R1 ints in memory in canonical form, NReq=152074523.
 Requested convergence on RMS density matrix=1.00D-08 within 128 cycles.
 Requested convergence on MAX density matrix=1.00D-06.
 Requested convergence on             energy=1.00D-06.
 No special actions if energy rises.
 SCF Done:  E(RBMK) =  -363.579373459     A.U. after   13 cycles
            NFock= 13  Conv=0.57D-08     -V/T= 2.0103
 DoSCS=F DFT=T ScalE2(SS,OS)=  1.000000  1.000000
 ExpMin= 4.38D-02 ExpMax= 4.17D+03 ExpMxC= 6.27D+02 IAcc=3 IRadAn=         5 AccDes= 0.00D+00
 HarFok:  IExCor=  205 AccDes= 0.00D+00 IRadAn=         5 IDoV=-2 UseB2=F ITyADJ=14
 ICtDFT= 12500011 ScaDFX=  1.000000  1.000000  1.000000  1.000000
 Range of M.O.s used for correlation:    10   185
 NBasis=   185 NAE=    31 NBE=    31 NFC=     9 NFV=     0
 NROrb=    176 NOA=    22 NOB=    22 NVA=   154 NVB=   154

 **** Warning!!: The largest alpha MO coefficient is  0.21855434D+03

 Orbital symmetries:
       Occupied  (A) (A) (A) (A) (A) (A) (A) (A) (A) (A) (A) (A)
                 (A) (A) (A) (A) (A) (A) (A) (A) (A) (A) (A) (A)
                 (A) (A) (A) (A) (A) (A) (A)
       Virtual   (A) (A) (A) (A) (A) (A) (A) (A) (A) (A) (A) (A)
                 (A) (A) (A) (A) (A) (A) (A) (A) (A) (A) (A) (A)
                 (A) (A) (A) (A) (A) (A) (A) (A) (A) (A) (A) (A)
                 (A) (A) (A) (A) (A) (A) (A) (A) (A) (A) (A) (A)
                 (A) (A) (A) (A) (A) (A) (A) (A) (A) (A) (A) (A)
                 (A) (A) (A) (A) (A) (A) (A) (A) (A) (A) (A) (A)
                 (A) (A) (A) (A) (A) (A) (A) (A) (A) (A) (A) (A)
                 (A) (A) (A) (A) (A) (A) (A) (A) (A) (A) (A) (A)
                 (A) (A) (A) (A) (A) (A) (A) (A) (A) (A) (A) (A)
                 (A) (A) (A) (A) (A) (A) (A) (A) (A) (A) (A) (A)
                 (A) (A) (A) (A) (A) (A) (A) (A) (A) (A) (A) (A)
                 (A) (A) (A) (A) (A) (A) (A) (A) (A) (A) (A) (A)
                 (A) (A) (A) (A) (A) (A) (A) (A) (A) (A)
 Generating guess from densities on rwf.
 Convergence on wavefunction:    0.000001000000000
 Iteration     1 Dimension    12 NMult     0 NNew     12
 CISAX will form    12 AO SS matrices at one time.
 New state      4 was old state      6
 New state      6 was old state      4
 Iteration     2 Dimension    24 NMult    12 NNew     12
 New state      4 was old state      5
 New state      5 was old state      4
 Iteration     3 Dimension    36 NMult    24 NNew     12
 Iteration     4 Dimension    48 NMult    36 NNew     12
 New state      5 was old state      6
 New state      6 was old state      5
 Iteration     5 Dimension    60 NMult    48 NNew     12
 Iteration     6 Dimension    72 NMult    60 NNew     12
 Iteration     7 Dimension    84 NMult    72 NNew     12
 Iteration     8 Dimension    96 NMult    84 NNew     12
 Iteration     9 Dimension   108 NMult    96 NNew     12
 Iteration    10 Dimension   116 NMult   108 NNew      8
 Iteration    11 Dimension   122 NMult   116 NNew      6
 Iteration    12 Dimension   126 NMult   122 NNew      4
 Iteration    13 Dimension   128 NMult   126 NNew      2
 ***********************************************************************
 Excited states from <AA,BB:AA,BB> singles matrix:
 ***********************************************************************
 
 Ground to excited state transition densities written to RWF  633
 Ground to excited state transition electric dipole moments (Au):
       state          X           Y           Z        Dip. S.      Osc.
         1        -0.8727      0.6485      0.0000      1.1821      0.1379
         2        -0.0852     -0.2040     -0.0000      0.0489      0.0061
         3         0.0001     -0.0000     -0.1255      0.0157      0.0021
         4         0.0005      0.0002     -0.0340      0.0012      0.0002
         5         0.0003      0.0001      0.1526      0.0233      0.0035
         6        -1.9504     -0.6465     -0.0000      4.2221      0.6428
 Ground to excited state transition velocity dipole moments (Au):
       state          X           Y           Z        Dip. S.      Osc.
         1         0.1398     -0.1222     -0.0000      0.0345      0.1313
         2         0.0146      0.0405      0.0000      0.0019      0.0066
         3        -0.0000      0.0000      0.0161      0.0003      0.0009
         4        -0.0001     -0.0000      0.0092      0.0001      0.0003
         5        -0.0001     -0.0000     -0.0303      0.0009      0.0027
         6         0.4312      0.1468      0.0000      0.2075      0.6056
 Ground to excited state transition magnetic dipole moments (Au):
       state          X           Y           Z
         1        -0.0000      0.0001      0.1548
         2        -0.0001     -0.0000      0.0809
         3         0.1688     -0.1112      0.0001
         4         0.2562     -0.2442      0.0002
         5         0.1440      0.3191      0.0001
         6         0.0002     -0.0001     -0.7286
 Ground to excited state transition velocity quadrupole moments (Au):
       state          XX          YY          ZZ          XY          XZ          YZ
         1         0.1984     -0.1567      0.0095      0.0360     -0.0000     -0.0000
         2        -0.0276     -0.0613      0.0186      0.0276      0.0000      0.0000
         3        -0.0000      0.0000      0.0000      0.0001      0.0811      0.0686
         4         0.0000     -0.0000     -0.0000      0.0001      0.2551      0.2176
         5         0.0000      0.0000      0.0000      0.0001     -0.2627      0.0395
         6         0.1768     -0.1577     -0.0153     -0.4658      0.0001      0.0001
 <0|del|b> * <b|rxdel|0> + <0|del|b> * <b|delr+rdel|0>
 Rotatory Strengths (R) in cgs (10**-40 erg-esu-cm/Gauss)
       state          XX          YY          ZZ    R(velocity)    E-M Angle
         1        -0.0332     -0.0054     -0.0137     -0.0174       90.00
         2        -0.0046     -0.0013     -0.0043     -0.0034       90.00
         3         0.0062     -0.0072     -0.0037     -0.0016       90.00
         4         0.0393     -0.0825     -0.0076     -0.0169       90.00
         5        -0.0308     -0.0208     -0.0134     -0.0217       90.00
         6        -0.0634      0.1638      0.0598      0.0534       90.00
 1/2[<0|r|b>*<b|rxdel|0> + (<0|rxdel|b>*<b|r|0>)*]
 Rotatory Strengths (R) in cgs (10**-40 erg-esu-cm/Gauss)
       state          XX          YY          ZZ     R(length)
         1        -0.0026     -0.0437     -0.0029     -0.0164
         2        -0.0035     -0.0071      0.0005     -0.0034
         3        -0.0139     -0.0023      0.0133     -0.0010
         4        -0.0924      0.0322      0.0051     -0.0183
         5        -0.0325     -0.0247     -0.0097     -0.0223
         6         0.2393     -0.0610     -0.0115      0.0556
  1/2[<0|del|b>*<b|r|0> + (<0|r|b>*<b|del|0>)*] (Au)
       state          X           Y           Z        Dip. S.   Osc.(frdel)
         1        -0.1220     -0.0792     -0.0000      0.2012      0.1341
         2        -0.0012     -0.0083     -0.0000      0.0095      0.0063
         3        -0.0000     -0.0000     -0.0020      0.0020      0.0013
         4        -0.0000     -0.0000     -0.0003      0.0003      0.0002
         5        -0.0000     -0.0000     -0.0046      0.0046      0.0031
         6        -0.8410     -0.0949     -0.0000      0.9359      0.6239

 Excitation energies and oscillator strengths:
 
 Excited State   1:      Singlet-A      4.7612 eV  260.40 nm  f=0.1379  <S**2>=0.000
      30 -> 34         0.13457
      31 -> 32         0.68330
 
 Excited State   2:      Singlet-A      5.1258 eV  241.88 nm  f=0.0061  <S**2>=0.000
      30 -> 32         0.53686
      31 -> 34        -0.44170
 
 Excited State   3:      Singlet-A      5.3366 eV  232.33 nm  f=0.0021  <S**2>=0.000
      31 -> 33         0.69601
 This state for optimization and/or second-order correction.
 Total Energy, E(TD-HF/TD-DFT) =  -363.383256864    
 Copying the excited state density for this state as the 1-particle RhoCI density.
 
 Excited State   4:      Singlet-A      6.0457 eV  205.08 nm  f=0.0002  <S**2>=0.000
      31 -> 35         0.68969
 
 Excited State   5:      Singlet-A      6.1520 eV  201.54 nm  f=0.0035  <S**2>=0.000
      31 -> 36         0.67711
      31 -> 37         0.13512
 
 Excited State   6:      Singlet-A      6.2143 eV  199.51 nm  f=0.6428  <S**2>=0.000
      30 -> 32         0.40718
      31 -> 34         0.52404
      31 -> 39         0.16324
 SavETr:  write IOETrn=   770 NScale= 10 NData=  16 NLR=1 NState=    6 LETran=     118.
          IDoAtm=1111111111111111
          Differentiating once with respect to electric field.
                with respect to dipole field.
          Differentiating once with respect to nuclear coordinates.
 Keep R1 ints in memory in canonical form, NReq=152086915.
          There are     1 degrees of freedom in the 1st order CPHF.  IDoFFX=0 NUNeed=     1.
 LinEq1:  Iter=  0 NonCon=     1 RMS=1.19D-02 Max=2.24D-01 NDo=     1
 AX will form     1 AO Fock derivatives at one time.
 LinEq1:  Iter=  1 NonCon=     1 RMS=5.95D-03 Max=1.46D-01 NDo=     1
 LinEq1:  Iter=  2 NonCon=     1 RMS=3.59D-03 Max=8.47D-02 NDo=     1
 LinEq1:  Iter=  3 NonCon=     1 RMS=1.33D-03 Max=3.41D-02 NDo=     1
 LinEq1:  Iter=  4 NonCon=     1 RMS=7.53D-04 Max=1.81D-02 NDo=     1
 LinEq1:  Iter=  5 NonCon=     1 RMS=3.40D-04 Max=9.73D-03 NDo=     1
 LinEq1:  Iter=  6 NonCon=     1 RMS=2.37D-04 Max=6.15D-03 NDo=     1
 LinEq1:  Iter=  7 NonCon=     1 RMS=6.73D-05 Max=1.60D-03 NDo=     1
 LinEq1:  Iter=  8 NonCon=     1 RMS=3.13D-05 Max=7.91D-04 NDo=     1
 LinEq1:  Iter=  9 NonCon=     1 RMS=1.71D-05 Max=5.55D-04 NDo=     1
 LinEq1:  Iter= 10 NonCon=     1 RMS=7.01D-06 Max=1.90D-04 NDo=     1
 LinEq1:  Iter= 11 NonCon=     1 RMS=3.94D-06 Max=1.26D-04 NDo=     1
 LinEq1:  Iter= 12 NonCon=     1 RMS=1.58D-06 Max=4.03D-05 NDo=     1
 LinEq1:  Iter= 13 NonCon=     1 RMS=7.13D-07 Max=1.00D-05 NDo=     1
 LinEq1:  Iter= 14 NonCon=     1 RMS=2.40D-07 Max=4.03D-06 NDo=     1
 LinEq1:  Iter= 15 NonCon=     1 RMS=8.19D-08 Max=1.27D-06 NDo=     1
 LinEq1:  Iter= 16 NonCon=     1 RMS=3.98D-08 Max=5.40D-07 NDo=     1
 LinEq1:  Iter= 17 NonCon=     1 RMS=1.14D-08 Max=2.40D-07 NDo=     1
 LinEq1:  Iter= 18 NonCon=     1 RMS=2.27D-09 Max=2.89D-08 NDo=     1
 LinEq1:  Iter= 19 NonCon=     1 RMS=9.45D-10 Max=1.35D-08 NDo=     1
 LinEq1:  Iter= 20 NonCon=     1 RMS=4.21D-10 Max=4.90D-09 NDo=     1
 LinEq1:  Iter= 21 NonCon=     1 RMS=8.75D-11 Max=1.42D-09 NDo=     1
 LinEq1:  Iter= 22 NonCon=     0 RMS=1.69D-11 Max=1.48D-10 NDo=     1
 Linear equations converged to 1.000D-10 1.000D-09 after    22 iterations.
 End of Minotr F.D. properties file   721 does not exist.
 End of Minotr F.D. properties file   722 does not exist.
 End of Minotr F.D. properties file   788 does not exist.
 Calling FoFJK, ICntrl=  10005127 FMM=F ISym2X=0 I1Cent= 0 IOpClX= 0 NMat=1 NMatS=1 NMatT=0.
 ***** Axes restored to original set *****
 -------------------------------------------------------------------
 Center     Atomic                   Forces (Hartrees/Bohr)
 Number     Number              X              Y              Z
 -------------------------------------------------------------------
      1        6           0.002721389   -0.000174363   -0.000006086
      2        6          -0.000418808    0.001661074    0.000001961
      3        6           0.005398217   -0.000856491    0.000005600
      4        6          -0.012345235   -0.007693565   -0.000011261
      5        6           0.010457313    0.001321884    0.000010465
      6        6          -0.002058240    0.001928320    0.000010212
      7        7           0.005445162    0.019661703    0.000017911
      8        6          -0.012697965    0.016279278   -0.000036209
      9        6          -0.003801521   -0.022586271    0.000017993
     10        1           0.003773746   -0.008071706   -0.000017378
     11        1           0.000990613   -0.000458732    0.000004087
     12        1           0.002265796    0.000333254    0.000004647
     13        1           0.000547348   -0.000965758   -0.000000022
     14        1          -0.001273854    0.000094818   -0.000000509
     15        1           0.000540993    0.000043333   -0.000000443
     16        1           0.000455046   -0.000516781   -0.000000968
 -------------------------------------------------------------------
 Cartesian Forces:  Max     0.022586271 RMS     0.006170226

 GradGradGradGradGradGradGradGradGradGradGradGradGradGradGradGradGradGrad
 Berny optimization.
 Using GEDIIS/GDIIS optimizer.
 FormGI is forming the generalized inverse of G from B-inverse, IUseBI=4.
 Internal  Forces:  Max     0.012948061 RMS     0.002634741
 Search for a local minimum.
 Step number   2 out of a maximum of   94
 All quantities printed in internal units (Hartrees-Bohrs-Radians)
 Mixed Optimization -- RFO/linear search
 Update second derivatives using D2CorX and points    1    2
 DE= -9.40D-03 DEPred=-8.31D-03 R= 1.13D+00
 TightC=F SS=  1.41D+00  RLast= 1.86D-01 DXNew= 5.0454D-01 5.5778D-01
 Trust test= 1.13D+00 RLast= 1.86D-01 DXMaxT set to 5.05D-01
 ITU=  1  0
 Use linear search instead of GDIIS.
     Eigenvalues ---    0.01855   0.01933   0.01987   0.02011   0.02069
     Eigenvalues ---    0.02113   0.02148   0.02157   0.02172   0.02210
     Eigenvalues ---    0.02233   0.02248   0.02343   0.15825   0.16000
     Eigenvalues ---    0.16000   0.16000   0.16000   0.16000   0.16175
     Eigenvalues ---    0.21945   0.22189   0.22488   0.24188   0.24960
     Eigenvalues ---    0.35131   0.35714   0.35741   0.35799   0.35877
     Eigenvalues ---    0.36492   0.36873   0.37668   0.39968   0.42715
     Eigenvalues ---    0.43742   0.45897   0.46901   0.47547   0.47602
     Eigenvalues ---    0.49139   0.52304
 RFO step:  Lambda=-1.44187119D-03 EMin= 1.85500654D-02
 Quartic linear search produced a step of  0.19966.
 Iteration  1 RMS(Cart)=  0.00894080 RMS(Int)=  0.00005504
 Iteration  2 RMS(Cart)=  0.00006152 RMS(Int)=  0.00002602
 Iteration  3 RMS(Cart)=  0.00000000 RMS(Int)=  0.00002602
 Variable       Old X    -DE/DX   Delta X   Delta X   Delta X     New X
                                 (Linear)    (Quad)   (Total)
    R1        2.65479   0.00059  -0.00014   0.00127   0.00112   2.65591
    R2        2.64975  -0.00171   0.00735  -0.00852  -0.00116   2.64858
    R3        2.05576  -0.00046   0.00231  -0.00291  -0.00061   2.05515
    R4        2.68336  -0.00013   0.01354  -0.00853   0.00499   2.68836
    R5        2.05581   0.00003   0.00233  -0.00129   0.00104   2.05685
    R6        2.62017  -0.00453  -0.00271  -0.00997  -0.01268   2.60749
    R7        2.05122  -0.00013   0.00117  -0.00113   0.00005   2.05127
    R8        2.68852   0.00506   0.00159   0.01400   0.01568   2.70420
    R9        2.62466   0.00258   0.00467   0.00237   0.00705   2.63170
   R10        2.67146  -0.00045   0.00474  -0.00362   0.00114   2.67260
   R11        2.69711  -0.00613  -0.00225  -0.01517  -0.01739   2.67973
   R12        2.05735  -0.00053   0.00241  -0.00322  -0.00080   2.05655
   R13        2.50882  -0.01121  -0.01935  -0.01696  -0.03638   2.47244
   R14        1.95293   0.00886   0.01148   0.01577   0.02725   1.98018
   R15        2.66868   0.01295   0.01797   0.01976   0.03768   2.70635
   R16        2.05281  -0.00008   0.00372  -0.00247   0.00125   2.05406
   R17        2.05365   0.00220   0.00386   0.00493   0.00879   2.06244
    A1        2.09644   0.00159  -0.00355   0.01032   0.00678   2.10321
    A2        2.08999  -0.00051   0.00202  -0.00319  -0.00117   2.08882
    A3        2.09676  -0.00108   0.00152  -0.00713  -0.00561   2.09116
    A4        2.13009   0.00078   0.00297   0.00123   0.00418   2.13427
    A5        2.07623   0.00076  -0.00148   0.00794   0.00646   2.08269
    A6        2.07687  -0.00154  -0.00148  -0.00917  -0.01064   2.06623
    A7        2.04997  -0.00212  -0.00029  -0.01158  -0.01187   2.03810
    A8        2.12201  -0.00023   0.00187  -0.00497  -0.00311   2.11891
    A9        2.11120   0.00236  -0.00157   0.01655   0.01498   2.12618
   A10        2.11847   0.00250  -0.00308   0.01549   0.01241   2.13088
   A11        2.27643   0.00106  -0.00050   0.00540   0.00484   2.28127
   A12        1.88828  -0.00355   0.00358  -0.02089  -0.01725   1.87103
   A13        2.10269  -0.00133   0.00598  -0.01009  -0.00412   2.09857
   A14        1.83789   0.00364  -0.00545   0.02325   0.01789   1.85578
   A15        2.34261  -0.00231  -0.00053  -0.01316  -0.01377   2.32884
   A16        2.06871  -0.00141  -0.00203  -0.00537  -0.00737   2.06134
   A17        2.10677   0.00115   0.00074   0.00618   0.00691   2.11368
   A18        2.10770   0.00026   0.00129  -0.00081   0.00046   2.10816
   A19        1.91877   0.00258   0.00226   0.00856   0.01078   1.92955
   A20        2.20662  -0.00042   0.00327  -0.00077   0.00252   2.20914
   A21        2.15780  -0.00215  -0.00554  -0.00779  -0.01330   2.14449
   A22        1.87410  -0.00452   0.00088  -0.02100  -0.02012   1.85398
   A23        2.21709   0.00337  -0.00002   0.01845   0.01844   2.23553
   A24        2.19199   0.00115  -0.00087   0.00254   0.00168   2.19367
   A25        1.90574   0.00185  -0.00128   0.01007   0.00870   1.91443
   A26        2.08895  -0.00028  -0.00270   0.00198  -0.00068   2.08827
   A27        2.28849  -0.00157   0.00398  -0.01205  -0.00802   2.28048
    D1        0.00003  -0.00000   0.00001  -0.00007  -0.00006  -0.00003
    D2       -3.14157  -0.00000  -0.00000  -0.00004  -0.00004   3.14158
    D3       -3.14159  -0.00000   0.00002  -0.00004  -0.00003   3.14157
    D4        0.00000  -0.00000   0.00001  -0.00002  -0.00001  -0.00001
    D5       -0.00006   0.00000  -0.00001   0.00013   0.00012   0.00007
    D6       -3.14158  -0.00000   0.00001  -0.00007  -0.00006   3.14154
    D7        3.14156   0.00000  -0.00001   0.00011   0.00010  -3.14153
    D8        0.00003  -0.00000   0.00001  -0.00009  -0.00009  -0.00005
    D9        0.00004  -0.00000   0.00000  -0.00002  -0.00002   0.00003
   D10       -3.14159   0.00000  -0.00001   0.00001  -0.00001   3.14159
   D11       -3.14155  -0.00000   0.00001  -0.00005  -0.00003  -3.14158
   D12        0.00001  -0.00000  -0.00000  -0.00002  -0.00002  -0.00001
   D13       -0.00009   0.00000  -0.00002   0.00004   0.00002  -0.00006
   D14       -3.14148  -0.00000  -0.00001  -0.00006  -0.00007  -3.14155
   D15        3.14155   0.00000  -0.00000   0.00001   0.00001   3.14156
   D16        0.00015  -0.00000   0.00000  -0.00009  -0.00009   0.00007
   D17        0.00006   0.00000   0.00002   0.00003   0.00005   0.00011
   D18       -3.14158   0.00000  -0.00001   0.00019   0.00018  -3.14140
   D19        3.14149   0.00000   0.00001   0.00011   0.00012  -3.14157
   D20       -0.00014   0.00000  -0.00002   0.00027   0.00026   0.00011
   D21        3.14146   0.00000  -0.00010   0.00032   0.00023  -3.14150
   D22       -0.00086   0.00001   0.00005   0.00041   0.00046  -0.00040
   D23        0.00005   0.00000  -0.00009   0.00023   0.00014   0.00019
   D24        3.14091   0.00001   0.00006   0.00031   0.00038   3.14129
   D25        0.00002  -0.00000  -0.00001  -0.00011  -0.00012  -0.00010
   D26        3.14154   0.00000  -0.00003   0.00009   0.00006  -3.14158
   D27       -3.14152  -0.00001   0.00003  -0.00033  -0.00030   3.14137
   D28        0.00001  -0.00000   0.00001  -0.00013  -0.00012  -0.00011
   D29        0.00018  -0.00001   0.00012  -0.00065  -0.00053  -0.00034
   D30        3.14151  -0.00000   0.00002  -0.00002   0.00000   3.14152
   D31       -3.14146  -0.00001   0.00008  -0.00045  -0.00037   3.14136
   D32       -0.00013   0.00000  -0.00001   0.00017   0.00016   0.00003
   D33        0.00007  -0.00001   0.00017  -0.00065  -0.00048  -0.00041
   D34        3.14157  -0.00000   0.00005  -0.00019  -0.00014   3.14143
   D35       -3.14082  -0.00001   0.00001  -0.00073  -0.00072  -3.14154
   D36        0.00068  -0.00001  -0.00011  -0.00027  -0.00037   0.00031
   D37       -0.00016   0.00001  -0.00018   0.00081   0.00063   0.00047
   D38        3.14154   0.00000  -0.00004   0.00028   0.00024  -3.14141
   D39       -3.14150   0.00000  -0.00008   0.00020   0.00012  -3.14138
   D40        0.00020  -0.00001   0.00005  -0.00033  -0.00028  -0.00008
         Item               Value     Threshold  Converged?
 Maximum Force            0.012948     0.000450     NO 
 RMS     Force            0.002635     0.000300     NO 
 Maximum Displacement     0.031699     0.001800     NO 
 RMS     Displacement     0.008956     0.001200     NO 
 Predicted change in Energy=-9.980649D-04
 GradGradGradGradGradGradGradGradGradGradGradGradGradGradGradGradGradGrad

                          Input orientation:                          
 ---------------------------------------------------------------------
 Center     Atomic      Atomic             Coordinates (Angstroms)
 Number     Number       Type             X           Y           Z
 ---------------------------------------------------------------------
      1          6           0       -2.180302    0.704288    0.000042
      2          6           0       -2.133364   -0.700374    0.000026
      3          6           0       -0.905971   -1.419641    0.000012
      4          6           0        0.253153   -0.671074    0.000047
      5          6           0        0.234064    0.759798    0.000017
      6          6           0       -0.997169    1.455680    0.000079
      7          7           0        1.588869   -1.065160    0.000003
      8          6           0        1.589482    1.176587   -0.000200
[...]
 ! D8    D(15,1,6,16)            0.0043         -DE/DX =    0.0                 !
 ! D9    D(1,2,3,4)             -0.0032         -DE/DX =    0.0                 !
 ! D10   D(1,2,3,14)           180.001          -DE/DX =    0.0                 !
 ! D11   D(13,2,3,4)          -179.9998         -DE/DX =    0.0                 !
 ! D12   D(13,2,3,14)            0.0044         -DE/DX =    0.0                 !
 ! D13   D(2,3,4,5)             -0.0018         -DE/DX =    0.0                 !
 ! D14   D(2,3,4,7)            180.015          -DE/DX =    0.0                 !
 ! D15   D(14,3,4,5)          -180.0061         -DE/DX =    0.0                 !
 ! D16   D(14,3,4,7)             0.0107         -DE/DX =    0.0                 !
 ! D17   D(3,4,5,6)              0.0022         -DE/DX =    0.0                 !
 ! D18   D(3,4,5,8)           -180.0068         -DE/DX =    0.0                 !
 ! D19   D(7,4,5,6)           -180.0111         -DE/DX =    0.0                 !
 ! D20   D(7,4,5,8)             -0.0201         -DE/DX =    0.0                 !
 ! D21   D(3,4,7,9)            179.9919         -DE/DX =    0.0                 !
 ! D22   D(3,4,7,10)            -0.002          -DE/DX =    0.0                 !
 ! D23   D(5,4,7,9)              0.0068         -DE/DX =    0.0                 !
 ! D24   D(5,4,7,10)           180.0129         -DE/DX =    0.0                 !
 ! D25   D(4,5,6,1)              0.0025         -DE/DX =    0.0                 !
 ! D26   D(4,5,6,16)          -180.0071         -DE/DX =    0.0                 !
 ! D27   D(8,5,6,1)            180.0144         -DE/DX =    0.0                 !
 ! D28   D(8,5,6,16)             0.0047         -DE/DX =    0.0                 !
 ! D29   D(4,5,8,9)              0.025          -DE/DX =    0.0                 !
 ! D30   D(4,5,8,11)           180.0079         -DE/DX =    0.0                 !
 ! D31   D(6,5,8,9)           -179.9857         -DE/DX =    0.0                 !
 ! D32   D(6,5,8,11)            -0.0028         -DE/DX =    0.0                 !
 ! D33   D(4,7,9,8)              0.0093         -DE/DX =    0.0                 !
 ! D34   D(4,7,9,12)          -180.0024         -DE/DX =    0.0                 !
 ! D35   D(10,7,9,8)          -179.9965         -DE/DX =    0.0                 !
 ! D36   D(10,7,9,12)           -0.0082         -DE/DX =    0.0                 !
 ! D37   D(5,8,9,7)             -0.0218         -DE/DX =    0.0                 !
 ! D38   D(5,8,9,12)          -180.0085         -DE/DX =    0.0                 !
 ! D39   D(11,8,9,7)           179.9947         -DE/DX =    0.0                 !
 ! D40   D(11,8,9,12)            0.0079         -DE/DX =    0.0                 !
 --------------------------------------------------------------------------------
 GradGradGradGradGradGradGradGradGradGradGradGradGradGradGradGradGradGrad

                          Input orientation:                          
 ---------------------------------------------------------------------
 Center     Atomic      Atomic             Coordinates (Angstroms)
 Number     Number       Type             X           Y           Z
 ---------------------------------------------------------------------
      1          6           0       -2.178773    0.705832   -0.000069
      2          6           0       -2.132522   -0.700350    0.000036
      3          6           0       -0.907821   -1.418735    0.000211
      4          6           0        0.252498   -0.672137    0.000204
      5          6           0        0.236313    0.760599   -0.000008
      6          6           0       -0.999352    1.454909   -0.000173
      7          7           0        1.589883   -1.067521    0.000071
      8          6           0        1.586479    1.178025    0.000211
      9          6           0        2.378823   -0.020853   -0.000052
     10          1           0        1.953628   -2.055029   -0.000023
     11          1           0        1.979258    2.189965    0.000262
     12          1           0        3.461434   -0.153366   -0.000126
     13          1           0       -3.063583   -1.263121    0.000040
     14          1           0       -0.892284   -2.503411    0.000273
     15          1           0       -3.142099    1.210239   -0.000102
     16          1           0       -1.024980    2.542401   -0.000219
 ---------------------------------------------------------------------
                    Distance matrix (angstroms):
                    1          2          3          4          5
     1  C    0.000000
     2  C    1.406943   0.000000
     3  C    2.475704   1.419849   0.000000
     4  C    2.794616   2.385187   1.379764   0.000000
     5  C    2.415707   2.783119   2.461410   1.432827   0.000000
     6  C    1.397193   2.434998   2.875102   2.468087   1.417369
     7  N    4.165039   3.740470   2.522276   1.394606   2.274681
     8  C    3.794745   4.166445   3.600652   2.280922   1.413221
     9  C    4.615166   4.562231   3.571569   2.223832   2.280574
    10  H    4.969819   4.304855   2.931341   2.192313   3.298020
    11  H    4.414960   5.025998   4.621465   3.342652   2.254095
    12  H    5.705275   5.620635   4.548796   3.250599   3.352125
    13  H    2.158626   1.087927   2.161371   3.368331   3.871014
    14  H    3.457499   2.188429   1.084787   2.159650   3.453620
    15  H    1.087393   2.160924   3.450146   3.881575   3.408202
    16  H    2.168922   3.426672   3.962869   3.459075   2.183043
                    6          7          8          9         10
     6  C    0.000000
     7  N    3.614802   0.000000
     8  C    2.600613   2.245548   0.000000
     9  C    3.686454   1.310702   1.437052   0.000000
    10  H    4.586912   1.052370   3.253834   2.078139   0.000000
    11  H    3.067968   3.280674   1.085494   2.246635   4.245071
    12  H    4.741853   2.082878   2.299578   1.090691   2.426891
    13  H    3.413024   4.657575   5.251882   5.582384   5.079323
    14  H    3.959768   2.867565   4.438157   4.106487   2.881017
    15  H    2.156671   5.251652   4.728688   5.656516   6.052141
    16  H    1.087794   4.457471   2.946395   4.261003   5.477999
                   11         12         13         14         15
    11  H    0.000000
    12  H    2.772733   0.000000
    13  H    6.111796   6.618716   0.000000
    14  H    5.502138   4.947481   2.500572   0.000000
    15  H    5.214227   6.742853   2.474605   4.341988   0.000000
    16  H    3.024840   5.234030   4.317163   5.047556   2.501370
                   16
    16  H    0.000000
 Stoichiometry    C8H7N
 Framework group  C1[X(C8H7N)]
 Deg. of freedom    42
 Full point group                 C1      NOp   1
 Largest Abelian subgroup         C1      NOp   1
 Largest concise Abelian subgroup C1      NOp   1
                         Standard orientation:                         
 ---------------------------------------------------------------------
 Center     Atomic      Atomic             Coordinates (Angstroms)
 Number     Number       Type             X           Y           Z
 ---------------------------------------------------------------------
      1          6           0       -2.194356    0.641913   -0.000113
      2          6           0       -2.109266   -0.762454   -0.000008
      3          6           0       -0.865181   -1.446724    0.000166
      4          6           0        0.274064   -0.668347    0.000159
      5          6           0        0.218295    0.763394   -0.000053
      6          6           0       -1.036084    1.423294   -0.000218
      7          7           0        1.621864   -1.026625    0.000027
      8          6           0        1.556411    1.217969    0.000167
      9          6           0        2.381581    0.041443   -0.000097
     10          1           0        2.012758   -2.003705   -0.000067
     11          1           0        1.921077    2.240376    0.000218
     12          1           0        3.467440   -0.061104   -0.000171
     13          1           0       -3.024420   -1.350738   -0.000005
     14          1           0       -0.819678   -2.530555    0.000228
     15          1           0       -3.171252    1.119507   -0.000147
     16          1           0       -1.091752    2.509663   -0.000263
 ---------------------------------------------------------------------
 Rotational constants (GHZ):           3.8492739           1.6322455           1.1462077

 **********************************************************************

            Population analysis using the CI Density.

 **********************************************************************

 Orbital symmetries:
       Occupied  (A) (A) (A) (A) (A) (A) (A) (A) (A) (A) (A) (A)
                 (A) (A) (A) (A) (A) (A) (A) (A) (A) (A) (A) (A)
                 (A) (A) (A) (A) (A) (A) (A)
       Virtual   (A) (A) (A) (A) (A) (A) (A) (A) (A) (A) (A) (A)
                 (A) (A) (A) (A) (A) (A) (A) (A) (A) (A) (A) (A)
                 (A) (A) (A) (A) (A) (A) (A) (A) (A) (A) (A) (A)
                 (A) (A) (A) (A) (A) (A) (A) (A) (A) (A) (A) (A)
                 (A) (A) (A) (A) (A) (A) (A) (A) (A) (A) (A) (A)
                 (A) (A) (A) (A) (A) (A) (A) (A) (A) (A) (A) (A)
                 (A) (A) (A) (A) (A) (A) (A) (A) (A) (A) (A) (A)
                 (A) (A) (A) (A) (A) (A) (A) (A) (A) (A) (A) (A)
                 (A) (A) (A) (A) (A) (A) (A) (A) (A) (A) (A) (A)
                 (A) (A) (A) (A) (A) (A) (A) (A) (A) (A) (A) (A)
                 (A) (A) (A) (A) (A) (A) (A) (A) (A) (A) (A) (A)
                 (A) (A) (A) (A) (A) (A) (A) (A) (A) (A) (A) (A)
                 (A) (A) (A) (A) (A) (A) (A) (A) (A) (A)
 The electronic state is 1-A.
 Alpha  occ. eigenvalues --  -14.73438 -10.52536 -10.51778 -10.48821 -10.48126
 Alpha  occ. eigenvalues --  -10.48008 -10.47954 -10.47672 -10.47066  -1.07628
 Alpha  occ. eigenvalues --   -0.91217  -0.84481  -0.80895  -0.77155  -0.68659
 Alpha  occ. eigenvalues --   -0.65127  -0.63611  -0.59470  -0.53237  -0.52069
 Alpha  occ. eigenvalues --   -0.48547  -0.47980  -0.47840  -0.44650  -0.43056
 Alpha  occ. eigenvalues --   -0.39417  -0.38082  -0.37678  -0.31365  -0.26259
 Alpha  occ. eigenvalues --   -0.22233
 Alpha virt. eigenvalues --    0.00673   0.02641   0.04925   0.04951   0.05606
 Alpha virt. eigenvalues --    0.06652   0.07123   0.07901   0.09139   0.09450
 Alpha virt. eigenvalues --    0.09878   0.09998   0.12555   0.12923   0.13461
 Alpha virt. eigenvalues --    0.13679   0.14809   0.16585   0.17073   0.17557
 Alpha virt. eigenvalues --    0.18369   0.19428   0.19677   0.20407   0.20448
 Alpha virt. eigenvalues --    0.20990   0.22120   0.22727   0.22969   0.23279
 Alpha virt. eigenvalues --    0.23699   0.24218   0.25080   0.25659   0.26911
 Alpha virt. eigenvalues --    0.27101   0.27199   0.27580   0.28341   0.29280
 Alpha virt. eigenvalues --    0.30193   0.30603   0.31767   0.33486   0.33768
 Alpha virt. eigenvalues --    0.34782   0.36203   0.37811   0.39700   0.40449
 Alpha virt. eigenvalues --    0.41817   0.43769   0.47628   0.49694   0.56744
 Alpha virt. eigenvalues --    0.62478   0.66658   0.72666   0.72860   0.74990
 Alpha virt. eigenvalues --    0.77168   0.77843   0.78287   0.78962   0.79116
 Alpha virt. eigenvalues --    0.81054   0.81649   0.83131   0.84729   0.84918
 Alpha virt. eigenvalues --    0.87227   0.91097   0.94342   0.96323   0.97233
 Alpha virt. eigenvalues --    1.00922   1.01487   1.02254   1.03253   1.05039
 Alpha virt. eigenvalues --    1.05960   1.09269   1.11457   1.11811   1.15828
 Alpha virt. eigenvalues --    1.17486   1.18993   1.23915   1.24337   1.27031
 Alpha virt. eigenvalues --    1.29494   1.31012   1.31487   1.38824   1.39606
 Alpha virt. eigenvalues --    1.42556   1.43173   1.48069   1.49280   1.51163
 Alpha virt. eigenvalues --    1.54166   1.54292   1.57237   1.58067   1.61163
 Alpha virt. eigenvalues --    1.64619   1.72522   1.82934   1.92057   1.97242
 Alpha virt. eigenvalues --    1.97409   1.99653   2.02347   2.07066   2.08222
 Alpha virt. eigenvalues --    2.08580   2.13566   2.16564   2.21753   2.22715
 Alpha virt. eigenvalues --    2.24893   2.26492   2.30767   2.32744   2.34599
 Alpha virt. eigenvalues --    2.36930   2.39428   2.44963   2.49539   2.53045
 Alpha virt. eigenvalues --    2.60445   2.63393   2.69899   2.70925   2.72816
 Alpha virt. eigenvalues --    2.75828   2.79994   2.87554   2.91494   2.91700
 Alpha virt. eigenvalues --    3.01634   3.04875   3.17722   3.30767   3.49579
 Alpha virt. eigenvalues --    4.24827   4.32267   4.35917   4.37988   4.42931
 Alpha virt. eigenvalues --    4.47009   4.54785   4.58976   4.84741
          Condensed to atoms (all electrons):
               1          2          3          4          5          6
     1  C   33.176830   9.572756  -3.305891 -24.579579  -6.120223 -30.515939
     2  C    9.572756  28.195227  11.379299 -30.429805  16.050547 -43.889071
     3  C   -3.305891  11.379299  38.023768 -39.467582  26.403552 -35.690510
     4  C  -24.579579 -30.429805 -39.467582 139.024729 -46.438377  93.644079
     5  C   -6.120223  16.050547  26.403552 -46.438377 120.111803 -64.777221
     6  C  -30.515939 -43.889071 -35.690510  93.644079 -64.777221 127.892767
     7  N    0.090832   1.154220   0.479208   1.594366  -4.426060   3.026330
     8  C   43.933168  21.133055  11.397501-158.015623 -70.983137 -69.385138
     9  C  -16.357182  -6.968319  -2.759261  71.154234  34.409744  25.241769
    10  H    0.007585  -0.150074  -0.389346   0.514155   0.388667  -0.218898
    11  H    0.005153   0.002448  -0.026333  -0.151557   0.103961   0.133194
    12  H    0.011393  -0.006731   0.065753   0.144666  -0.421416  -0.035876
    13  H    0.076410   0.211666  -0.135362   0.134776  -0.111330   0.141560
    14  H    0.019669  -0.042744   0.044851   0.423009  -0.160613  -0.010513
    15  H    0.282352   0.130494   0.024457  -0.097358   0.054440  -0.114105
    16  H   -0.110818  -0.098559  -0.023998   0.195145   0.363328   0.127410
               7          8          9         10         11         12
     1  C    0.090832  43.933168 -16.357182   0.007585   0.005153   0.011393
     2  C    1.154220  21.133055  -6.968319  -0.150074   0.002448  -0.006731
     3  C    0.479208  11.397501  -2.759261  -0.389346  -0.026333   0.065753
     4  C    1.594366-158.015623  71.154234   0.514155  -0.151557   0.144666
     5  C   -4.426060 -70.983137  34.409744   0.388667   0.103961  -0.421416
     6  C    3.026330 -69.385138  25.241769  -0.218898   0.133194  -0.035876
     7  N   14.830414 -27.463688  17.927734  -1.255073   0.003942  -0.075959
     8  C  -27.463688 526.448823-268.833325   3.396327   0.146908   0.844572
     9  C   17.927734-268.833325 150.681758  -2.224525   0.081535  -0.215819
    10  H   -1.255073   3.396327  -2.224525   0.727425  -0.000108   0.003425
    11  H    0.003942   0.146908   0.081535  -0.000108   0.451042  -0.000311
    12  H   -0.075959   0.844572  -0.215819   0.003425  -0.000311   0.425856
    13  H    0.001593  -0.030547   0.013371  -0.000015   0.000000  -0.000000
    14  H    0.018567  -0.053421   0.046584   0.002082   0.000001   0.000003
    15  H   -0.000398   0.033683  -0.007768   0.000000  -0.000001  -0.000000
    16  H    0.002577  -0.239406   0.070289  -0.000000   0.001265  -0.000001
              13         14         15         16
     1  C    0.076410   0.019669   0.282352  -0.110818
     2  C    0.211666  -0.042744   0.130494  -0.098559
     3  C   -0.135362   0.044851   0.024457  -0.023998
     4  C    0.134776   0.423009  -0.097358   0.195145
     5  C   -0.111330  -0.160613   0.054440   0.363328
     6  C    0.141560  -0.010513  -0.114105   0.127410
     7  N    0.001593   0.018567  -0.000398   0.002577
     8  C   -0.030547  -0.053421   0.033683  -0.239406
     9  C    0.013371   0.046584  -0.007768   0.070289
    10  H   -0.000015   0.002082   0.000000  -0.000000
    11  H    0.000000   0.000001  -0.000001   0.001265
    12  H   -0.000000   0.000003  -0.000000  -0.000001
    13  H    0.479654  -0.002744  -0.003468  -0.000123
    14  H   -0.002744   0.476269  -0.000125   0.000015
    15  H   -0.003468  -0.000125   0.484374  -0.002885
    16  H   -0.000123   0.000015  -0.002885   0.486425
 Mulliken charges:
               1
     1  C   -0.186515
     2  C   -0.244409
     3  C   -0.020108
     4  C   -1.649279
     5  C    1.552335
     6  C    0.430162
     7  N    1.091394
     8  C   -6.329754
     9  C    3.739180
    10  H    0.198373
    11  H    0.248860
    12  H    0.260446
    13  H    0.224559
    14  H    0.239111
    15  H    0.216309
    16  H    0.229337
 Sum of Mulliken charges =  -0.00000
 Mulliken charges with hydrogens summed into heavy atoms:
               1
     1  C    0.029793
     2  C   -0.019850
     3  C    0.219003
     4  C   -1.649279
     5  C    1.552335
     6  C    0.659498
     7  N    1.289767
     8  C   -6.080893
     9  C    3.999626
 Electronic spatial extent (au):  <R**2>=           1050.9638
 Charge=             -0.0000 electrons
 Dipole moment (field-independent basis, Debye):
    X=             -7.1744    Y=              6.2953    Z=              0.0004  Tot=              9.5448
 Quadrupole moment (field-independent basis, Debye-Ang):
   XX=            -70.4420   YY=            -62.6286   ZZ=            -65.1963
   XY=             19.2493   XZ=              0.0040   YZ=              0.0006
 Traceless Quadrupole moment (field-independent basis, Debye-Ang):
   XX=             -4.3531   YY=              3.4604   ZZ=              0.8927
   XY=             19.2493   XZ=              0.0040   YZ=              0.0006
 Octapole moment (field-independent basis, Debye-Ang**2):
  XXX=           -154.3732  YYY=             72.9351  ZZZ=              0.0029  XYY=            -54.6088
  XXY=             66.1582  XXZ=              0.0156  XZZ=            -21.6031  YZZ=             19.2725
  YYZ=             -0.0024  XYZ=             -0.0015
 Hexadecapole moment (field-independent basis, Debye-Ang**3):
 XXXX=          -1548.6068 YYYY=           -663.5635 ZZZZ=           -134.9042 XXXY=            286.9400
 XXXZ=              0.0749 YYYX=            173.5382 YYYZ=              0.0262 ZZZX=              0.0133
 ZZZY=              0.0163 XXYY=           -383.2937 XXZZ=           -264.8426 YYZZ=           -151.0911
 XXYZ=             -0.0008 YYXZ=              0.0115 ZZXY=             47.6345
 N-N= 3.992747189628D+02 E-N=-1.636869272940D+03  KE= 3.598209418727D+02
 Unable to Open any file for archive entry.
 1\1\GINC-EXP-2-22\FOpt\RBMK TD-FC\6-31+G(d)\C8H7N1\CWALDT\23-Jun-2021\
 0\\# td= (nstates=6, root=3) BMK/6-31+G* Opt density=current\\FuncsBMK
 -V-3rd\\0,1\C,-2.1787729691,0.7058324764,-0.000068715\C,-2.1325220844,
 -0.7003498944,0.0000363898\C,-0.9078208855,-1.4187354534,0.0002105541\
 C,0.2524981013,-0.6721367193,0.0002040234\C,0.2363127215,0.7605990791,
 -0.000008169\C,-0.9993523986,1.4549089837,-0.0001734951\N,1.5898829081
 ,-1.067520906,0.000071497\C,1.5864792395,1.1780248513,0.0002110743\C,2
 .3788233072,-0.0208534626,-0.0000520832\H,1.9536282945,-2.0550291186,-
 0.0000228177\H,1.9792581649,2.1899646219,0.0002622432\H,3.4614342017,-
 0.1533664533,-0.0001263029\H,-3.0635828001,-1.2631209176,0.0000399616\
 H,-0.8922837654,-2.5034107322,0.0002726827\H,-3.1420992814,1.210238534
 ,-0.0001020708\H,-1.0249797541,2.542401111,-0.0002187724\\Version=AS64
 L-G16RevC.01\State=1-A\HF=-363.5750189\RMSD=6.408e-09\RMSF=1.083e-04\D
 ipole=-2.8226431,2.476769,0.0001672\Quadrupole=-3.2363963,2.5727082,0.
 6636881,14.3113731,0.0029658,0.0004213\PG=C01 [X(C8H7N1)]\\@
 The archive entry for this job was punched.


 IT'S WHAT YOU LEARN AFTER YOU KNOW IT ALL
 THAT COUNTS.
 Job cpu time:       0 days  5 hours 32 minutes 21.5 seconds.
 Elapsed time:       0 days  1 hours 24 minutes 38.9 seconds.
 File lengths (MBytes):  RWF=    239 Int=      0 D2E=      0 Chk=     11 Scr=      1
 Normal termination of Gaussian 16 at Wed Jun 23 09:57:48 2021.
