 Entering Gaussian System, Link 0=/cm/shared/apps/spack/cpu/opt/spack/linux-centos8-zen/gcc-8.3.1/gaussian-16.C.01-po5bqktfeugvmjyga3v7eigbecnokxng/g16/g16
 Initial command:
 /cm/shared/apps/spack/cpu/opt/spack/linux-centos8-zen/gcc-8.3.1/gaussian-16.C.01-po5bqktfeugvmjyga3v7eigbecnokxng/g16/l1.exe "/scratch/cwaldt/job_3613156/Gau-37854.inp" -scrdir="/scratch/cwaldt/job_3613156/"
 Entering Link 1 = /cm/shared/apps/spack/cpu/opt/spack/linux-centos8-zen/gcc-8.3.1/gaussian-16.C.01-po5bqktfeugvmjyga3v7eigbecnokxng/g16/l1.exe PID=     37855.
  
 Copyright (c) 1988-2019, Gaussian, Inc.  All Rights Reserved.
  
 This is part of the Gaussian(R) 16 program.  It is based on
 the Gaussian(R) 09 system (copyright 2009, Gaussian, Inc.),
 the Gaussian(R) 03 system (copyright 2003, Gaussian, Inc.),
 the Gaussian(R) 98 system (copyright 1998, Gaussian, Inc.),
 the Gaussian(R) 94 system (copyright 1995, Gaussian, Inc.),
 the Gaussian 92(TM) system (copyright 1992, Gaussian, Inc.),
 the Gaussian 90(TM) system (copyright 1990, Gaussian, Inc.),
 the Gaussian 88(TM) system (copyright 1988, Gaussian, Inc.),
 the Gaussian 86(TM) system (copyright 1986, Carnegie Mellon
 University), and the Gaussian 82(TM) system (copyright 1983,
 Carnegie Mellon University). Gaussian is a federally registered
 trademark of Gaussian, Inc.
  
 This software contains proprietary and confidential information,
 including trade secrets, belonging to Gaussian, Inc.
  
 This software is provided under written license and may be
 used, copied, transmitted, or stored only in accord with that
 written license.
  
 The following legend is applicable only to US Government
 contracts under FAR:
  
                    RESTRICTED RIGHTS LEGEND
  
 Use, reproduction and disclosure by the US Government is
 subject to restrictions as set forth in subparagraphs (a)
 and (c) of the Commercial Computer Software - Restricted
 Rights clause in FAR 52.227-19.
  
 Gaussian, Inc.
 340 Quinnipiac St., Bldg. 40, Wallingford CT 06492
  
  
 ---------------------------------------------------------------
 Warning -- This program may not be used in any manner that
 competes with the business of Gaussian, Inc. or will provide
 assistance to any competitor of Gaussian, Inc.  The licensee
 of this program is prohibited from giving any competitor of
 Gaussian, Inc. access to this program.  By using this program,
 the user acknowledges that Gaussian, Inc. is engaged in the
 business of creating and licensing software in the field of
 computational chemistry and represents and warrants to the
 licensee that it is not a competitor of Gaussian, Inc. and that
 it will not use this program in any manner prohibited above.
 ---------------------------------------------------------------
  

 Cite this work as:
 Gaussian 16, Revision C.01,
 M. J. Frisch, G. W. Trucks, H. B. Schlegel, G. E. Scuseria, 
 M. A. Robb, J. R. Cheeseman, G. Scalmani, V. Barone, 
 G. A. Petersson, H. Nakatsuji, X. Li, M. Caricato, A. V. Marenich, 
 J. Bloino, B. G. Janesko, R. Gomperts, B. Mennucci, H. P. Hratchian, 
 J. V. Ortiz, A. F. Izmaylov, J. L. Sonnenberg, D. Williams-Young, 
 F. Ding, F. Lipparini, F. Egidi, J. Goings, B. Peng, A. Petrone, 
 T. Henderson, D. Ranasinghe, V. G. Zakrzewski, J. Gao, N. Rega, 
 G. Zheng, W. Liang, M. Hada, M. Ehara, K. Toyota, R. Fukuda, 
 J. Hasegawa, M. Ishida, T. Nakajima, Y. Honda, O. Kitao, H. Nakai, 
 T. Vreven, K. Throssell, J. A. Montgomery, Jr., J. E. Peralta, 
 F. Ogliaro, M. J. Bearpark, J. J. Heyd, E. N. Brothers, K. N. Kudin, 
 V. N. Staroverov, T. A. Keith, R. Kobayashi, J. Normand, 
 K. Raghavachari, A. P. Rendell, J. C. Burant, S. S. Iyengar, 
 J. Tomasi, M. Cossi, J. M. Millam, M. Klene, C. Adamo, R. Cammi, 
 J. W. Ochterski, R. L. Martin, K. Morokuma, O. Farkas, 
 J. B. Foresman, and D. J. Fox, Gaussian, Inc., Wallingford CT, 2019.
 
 ******************************************
 Gaussian 16:  AS64L-G16RevC.01  3-Jul-2019
                24-Jun-2021 
 ******************************************
 %nprocshared=4
 Will use up to    4 processors via shared memory.
 %chk=FuncsB3LYP-V-1st.chk
 %Mem=3GB
 ----------------------------------------------------------------------
 # td= (nstates=6, root=1) B3LYP/6-31+G* Opt density=current EmpiricalD
 ispersion=GD3
 ----------------------------------------------------------------------
 1/18=20,19=15,26=3,38=1/1,3;
 2/9=110,12=2,17=6,18=5,40=1/2;
 3/5=1,6=6,7=11,11=9,25=1,30=1,71=1,74=-5,124=31/1,2,3,8;
 4//1;
 5/5=2,38=5/2;
 8/6=1,10=2,107=1,108=6/1;
 9/8=1,15=2,41=6,42=1,70=2/14;
 10/5=4,28=1/2;
 6/7=2,8=2,9=2,10=2,22=-1/1;
 7/12=6,13=5,14=1/1,2,3,16;
 1/18=20,19=15,26=3/3(2);
 2/9=110/2;
 99//99;
 2/9=110/2;
 3/5=1,6=6,7=11,11=9,25=1,30=1,71=1,74=-5,124=31/1,2,3,8;
 4/5=5,16=3,69=1/1;
 5/5=2,38=5/2;
 8/6=1,10=2,107=1,108=6/1;
 9/8=1,15=2,41=6,42=1,49=4,70=2/14;
 10/5=4,28=1/2;
 7/12=6,13=5,14=1/1,2,3,16;
 1/18=20,19=15,26=3/3(-8);
 2/9=110/2;
 6/7=2,8=2,9=2,10=2,22=-1/1;
 99/9=10/99;
 ----------------
 FuncsB3LYP-V-1st
 ----------------
 Symbolic Z-matrix:
 Charge =  0 Multiplicity = 1
 C                    -2.15106   0.68921   0.00009 
 C                    -2.12793  -0.71582   0.00008 
 C                    -0.9323   -1.4131   -0.00001 
 C                     0.24691  -0.6702   -0.00004 
 C                     0.24819   0.7483    0. 
 C                    -0.97947   1.42353   0.00003 
 N                     1.56177  -1.07759  -0.00029 
 C                     1.62013   1.1629   -0.00016 
 C                     2.38201   0.03081   0.00025 
 H                     1.87632  -2.03001   0.00044 
 H                     1.99217   2.17301  -0.00035 
 H                     3.45255  -0.08243   0.00041 
 H                    -3.06159  -1.26202   0.00009 
 H                    -0.91725  -2.49534  -0.00007 
 H                    -3.1042    1.20079   0.00009 
 H                    -1.00935   2.50542  -0.00002 
 

 GradGradGradGradGradGradGradGradGradGradGradGradGradGradGradGradGradGrad
 Berny optimization.
 Initialization pass.
                           ----------------------------
                           !    Initial Parameters    !
                           ! (Angstroms and Degrees)  !
 --------------------------                            --------------------------
 ! Name  Definition              Value          Derivative Info.                !
 --------------------------------------------------------------------------------
 ! R1    R(1,2)                  1.4052         estimate D2E/DX2                !
 ! R2    R(1,6)                  1.3827         estimate D2E/DX2                !
 ! R3    R(1,15)                 1.0818         estimate D2E/DX2                !
 ! R4    R(2,3)                  1.3841         estimate D2E/DX2                !
 ! R5    R(2,13)                 1.0817         estimate D2E/DX2                !
 ! R6    R(3,4)                  1.3937         estimate D2E/DX2                !
 ! R7    R(3,14)                 1.0823         estimate D2E/DX2                !
 ! R8    R(4,5)                  1.4185         estimate D2E/DX2                !
 ! R9    R(4,7)                  1.3765         estimate D2E/DX2                !
 ! R10   R(5,6)                  1.4011         estimate D2E/DX2                !
 ! R11   R(5,8)                  1.4332         estimate D2E/DX2                !
 ! R12   R(6,16)                 1.0823         estimate D2E/DX2                !
 ! R13   R(7,9)                  1.3789         estimate D2E/DX2                !
 ! R14   R(7,10)                 1.003          estimate D2E/DX2                !
 ! R15   R(8,9)                  1.3646         estimate D2E/DX2                !
 ! R16   R(8,11)                 1.0764         estimate D2E/DX2                !
 ! R17   R(9,12)                 1.0765         estimate D2E/DX2                !
 ! A1    A(2,1,6)              121.1349         estimate D2E/DX2                !
 ! A2    A(2,1,15)             119.1671         estimate D2E/DX2                !
 ! A3    A(6,1,15)             119.698          estimate D2E/DX2                !
 ! A4    A(1,2,3)              121.1938         estimate D2E/DX2                !
 ! A5    A(1,2,13)             119.3846         estimate D2E/DX2                !
 ! A6    A(3,2,13)             119.4217         estimate D2E/DX2                !
 ! A7    A(2,3,4)              117.5387         estimate D2E/DX2                !
 ! A8    A(2,3,14)             121.0469         estimate D2E/DX2                !
 ! A9    A(4,3,14)             121.4144         estimate D2E/DX2                !
 ! A10   A(3,4,5)              122.2626         estimate D2E/DX2                !
 ! A11   A(3,4,7)              130.5743         estimate D2E/DX2                !
 ! A12   A(5,4,7)              107.163          estimate D2E/DX2                !
 ! A13   A(4,5,6)              118.7594         estimate D2E/DX2                !
 ! A14   A(4,5,8)              106.8666         estimate D2E/DX2                !
 ! A15   A(6,5,8)              134.374          estimate D2E/DX2                !
 ! A16   A(1,6,5)              119.1105         estimate D2E/DX2                !
 ! A17   A(1,6,16)             120.4966         estimate D2E/DX2                !
 ! A18   A(5,6,16)             120.3928         estimate D2E/DX2                !
 ! A19   A(4,7,9)              109.2874         estimate D2E/DX2                !
 ! A20   A(4,7,10)             125.4909         estimate D2E/DX2                !
 ! A21   A(9,7,10)             125.2217         estimate D2E/DX2                !
 ! A22   A(5,8,9)              107.125          estimate D2E/DX2                !
 ! A23   A(5,8,11)             127.0344         estimate D2E/DX2                !
 ! A24   A(9,8,11)             125.8405         estimate D2E/DX2                !
 ! A25   A(7,9,8)              109.5578         estimate D2E/DX2                !
 ! A26   A(7,9,12)             120.4645         estimate D2E/DX2                !
 ! A27   A(8,9,12)             129.9776         estimate D2E/DX2                !
 ! D1    D(6,1,2,3)             -0.0008         estimate D2E/DX2                !
 ! D2    D(6,1,2,13)          -179.9981         estimate D2E/DX2                !
 ! D3    D(15,1,2,3)           179.996          estimate D2E/DX2                !
 ! D4    D(15,1,2,13)           -0.0013         estimate D2E/DX2                !
 ! D5    D(2,1,6,5)             -0.0018         estimate D2E/DX2                !
 ! D6    D(2,1,6,16)           179.9965         estimate D2E/DX2                !
 ! D7    D(15,1,6,5)          -179.9986         estimate D2E/DX2                !
 ! D8    D(15,1,6,16)           -0.0003         estimate D2E/DX2                !
 ! D9    D(1,2,3,4)              0.002          estimate D2E/DX2                !
 ! D10   D(1,2,3,14)          -179.9968         estimate D2E/DX2                !
 ! D11   D(13,2,3,4)           179.9992         estimate D2E/DX2                !
 ! D12   D(13,2,3,14)            0.0005         estimate D2E/DX2                !
 ! D13   D(2,3,4,5)             -0.0005         estimate D2E/DX2                !
 ! D14   D(2,3,4,7)           -179.9911         estimate D2E/DX2                !
 ! D15   D(14,3,4,5)           179.9982         estimate D2E/DX2                !
 ! D16   D(14,3,4,7)             0.0076         estimate D2E/DX2                !
 ! D17   D(3,4,5,6)             -0.002          estimate D2E/DX2                !
 ! D18   D(3,4,5,8)           -179.9955         estimate D2E/DX2                !
 ! D19   D(7,4,5,6)            179.9905         estimate D2E/DX2                !
 ! D20   D(7,4,5,8)             -0.003          estimate D2E/DX2                !
 ! D21   D(3,4,7,9)           -179.98           estimate D2E/DX2                !
 ! D22   D(3,4,7,10)            -0.0649         estimate D2E/DX2                !
 ! D23   D(5,4,7,9)              0.0284         estimate D2E/DX2                !
 ! D24   D(5,4,7,10)           179.9434         estimate D2E/DX2                !
 ! D25   D(4,5,6,1)              0.0031         estimate D2E/DX2                !
 ! D26   D(4,5,6,16)          -179.9951         estimate D2E/DX2                !
 ! D27   D(8,5,6,1)            179.9944         estimate D2E/DX2                !
 ! D28   D(8,5,6,16)            -0.0038         estimate D2E/DX2                !
 ! D29   D(4,5,8,9)             -0.0234         estimate D2E/DX2                !
 ! D30   D(4,5,8,11)           179.9883         estimate D2E/DX2                !
 ! D31   D(6,5,8,9)            179.9846         estimate D2E/DX2                !
 ! D32   D(6,5,8,11)            -0.0037         estimate D2E/DX2                !
 ! D33   D(4,7,9,8)             -0.0444         estimate D2E/DX2                !
 ! D34   D(4,7,9,12)           179.9847         estimate D2E/DX2                !
 ! D35   D(10,7,9,8)          -179.9597         estimate D2E/DX2                !
 ! D36   D(10,7,9,12)            0.0693         estimate D2E/DX2                !
 ! D37   D(5,8,9,7)              0.0414         estimate D2E/DX2                !
 ! D38   D(5,8,9,12)          -179.9913         estimate D2E/DX2                !
 ! D39   D(11,8,9,7)          -179.9702         estimate D2E/DX2                !
 ! D40   D(11,8,9,12)           -0.0029         estimate D2E/DX2                !
 --------------------------------------------------------------------------------
 Trust Radius=3.00D-01 FncErr=1.00D-07 GrdErr=1.00D-06 EigMax=2.50D+02 EigMin=1.00D-04
 Number of steps in this run=     94 maximum allowed number of steps=    100.
 GradGradGradGradGradGradGradGradGradGradGradGradGradGradGradGradGradGrad

                          Input orientation:                          
 ---------------------------------------------------------------------
 Center     Atomic      Atomic             Coordinates (Angstroms)
 Number     Number       Type             X           Y           Z
 ---------------------------------------------------------------------
      1          6           0       -2.151063    0.689208    0.000088
      2          6           0       -2.127927   -0.715818    0.000075
      3          6           0       -0.932297   -1.413100   -0.000011
      4          6           0        0.246911   -0.670201   -0.000042
      5          6           0        0.248193    0.748299    0.000000
      6          6           0       -0.979474    1.423526    0.000032
      7          7           0        1.561774   -1.077592   -0.000285
      8          6           0        1.620133    1.162900   -0.000157
      9          6           0        2.382013    0.030806    0.000248
     10          1           0        1.876315   -2.030011    0.000438
     11          1           0        1.992173    2.173010   -0.000348
     12          1           0        3.452549   -0.082425    0.000408
     13          1           0       -3.061594   -1.262020    0.000088
     14          1           0       -0.917252   -2.495342   -0.000073
     15          1           0       -3.104203    1.200785    0.000090
     16          1           0       -1.009348    2.505421   -0.000015
 ---------------------------------------------------------------------
                    Distance matrix (angstroms):
                    1          2          3          4          5
     1  C    0.000000
     2  C    1.405216   0.000000
     3  C    2.430039   1.384100   0.000000
     4  C    2.756496   2.375276   1.393711   0.000000
     5  C    2.399984   2.790983   2.462763   1.418501   0.000000
     6  C    1.382694   2.428114   2.837018   2.426461   1.401106
     7  N    4.111781   3.707395   2.516536   1.376529   2.249305
     8  C    3.800829   4.192557   3.626386   2.290414   1.433218
     9  C    4.580641   4.571324   3.615178   2.247236   2.251218
    10  H    4.859416   4.214387   2.875566   2.122273   3.220216
    11  H    4.400917   5.031953   4.627387   3.336134   2.251948
    12  H    5.656491   5.616307   4.582311   3.259079   3.310287
    13  H    2.153220   1.081698   2.134650   3.361020   3.872476
    14  H    3.415208   2.152310   1.082347   2.164813   3.446661
    15  H    1.081752   2.150926   3.398466   3.838040   3.382795
    16  H    2.145261   3.409927   3.919278   3.415079   2.160761
                    6          7          8          9         10
     6  C    0.000000
     7  N    3.565604   0.000000
     8  C    2.612639   2.241252   0.000000
     9  C    3.638580   1.378890   1.364587   0.000000
    10  H    4.481345   1.003015   3.203172   2.121956   0.000000
    11  H    3.064704   3.278972   1.076446   2.177387   4.204618
    12  H    4.680888   2.136677   2.215532   1.076508   2.505515
    13  H    3.398144   4.627045   5.272457   5.595021   4.997275
    14  H    3.919362   2.855798   4.452085   4.155307   2.832058
    15  H    2.136372   5.192528   4.724488   5.609583   5.936632
    16  H    1.082307   4.410062   2.952378   4.198220   5.375611
                   11         12         13         14         15
    11  H    0.000000
    12  H    2.686947   0.000000
    13  H    6.110646   6.620083   0.000000
    14  H    5.500751   4.991726   2.473719   0.000000
    15  H    5.188282   6.681139   2.463174   4.294661   0.000000
    16  H    3.019872   5.158049   4.290143   5.001611   2.467892
                   16
    16  H    0.000000
 Stoichiometry    C8H7N
 Framework group  C1[X(C8H7N)]
 Deg. of freedom    42
 Full point group                 C1      NOp   1
 Largest Abelian subgroup         C1      NOp   1
 Largest concise Abelian subgroup C1      NOp   1
                         Standard orientation:                         
 ---------------------------------------------------------------------
 Center     Atomic      Atomic             Coordinates (Angstroms)
 Number     Number       Type             X           Y           Z
 ---------------------------------------------------------------------
      1          6           0       -2.151063    0.689208    0.000088
      2          6           0       -2.127927   -0.715818    0.000075
      3          6           0       -0.932297   -1.413100   -0.000011
      4          6           0        0.246911   -0.670201   -0.000042
      5          6           0        0.248193    0.748299    0.000000
      6          6           0       -0.979474    1.423526    0.000032
      7          7           0        1.561774   -1.077592   -0.000285
      8          6           0        1.620133    1.162900   -0.000157
      9          6           0        2.382013    0.030806    0.000248
     10          1           0        1.876315   -2.030011    0.000438
     11          1           0        1.992173    2.173010   -0.000348
     12          1           0        3.452549   -0.082425    0.000408
     13          1           0       -3.061594   -1.262020    0.000088
     14          1           0       -0.917252   -2.495342   -0.000073
     15          1           0       -3.104203    1.200785    0.000090
     16          1           0       -1.009348    2.505421   -0.000015
 ---------------------------------------------------------------------
 Rotational constants (GHZ):           3.9080822           1.6429452           1.1566805
 Standard basis: 6-31+G(d) (6D, 7F)
 There are   185 symmetry adapted cartesian basis functions of A   symmetry.
 There are   185 symmetry adapted basis functions of A   symmetry.
   185 basis functions,   316 primitive gaussians,   185 cartesian basis functions
    31 alpha electrons       31 beta electrons
       nuclear repulsion energy       401.3368668897 Hartrees.
 NAtoms=   16 NActive=   16 NUniq=   16 SFac= 1.00D+00 NAtFMM=   60 NAOKFM=F Big=F
 Integral buffers will be    131072 words long.
 Regular integral format.
 Two-electron integral symmetry is turned on.
 Nuclear repulsion after empirical dispersion term =      401.3276757835 Hartrees.
 One-electron integrals computed using PRISM.
 NBasis=   185 RedAO= T EigKep=  1.26D-06  NBF=   185
 NBsUse=   185 1.00D-06 EigRej= -1.00D+00 NBFU=   185
 ExpMin= 4.38D-02 ExpMax= 4.17D+03 ExpMxC= 6.27D+02 IAcc=3 IRadAn=         5 AccDes= 0.00D+00
 Harris functional with IExCor=  402 and IRadAn=       5 diagonalized for initial guess.
 HarFok:  IExCor=  402 AccDes= 0.00D+00 IRadAn=         5 IDoV= 1 UseB2=F ITyADJ=14
 ICtDFT=  3500011 ScaDFX=  1.000000  1.000000  1.000000  1.000000
 FoFCou: FMM=F IPFlag=           0 FMFlag=      100000 FMFlg1=           0
         NFxFlg=           0 DoJE=T BraDBF=F KetDBF=T FulRan=T
         wScrn=  0.000000 ICntrl=       500 IOpCl=  0 I1Cent=   200000004 NGrid=           0
         NMat0=    1 NMatS0=      1 NMatT0=    0 NMatD0=    1 NMtDS0=    0 NMtDT0=    0
 Petite list used in FoFCou.
 Keep R1 ints in memory in canonical form, NReq=152071459.
 Requested convergence on RMS density matrix=1.00D-08 within 128 cycles.
 Requested convergence on MAX density matrix=1.00D-06.
 Requested convergence on             energy=1.00D-06.
 No special actions if energy rises.
 SCF Done:  E(RB3LYP) =  -363.840468596     A.U. after   14 cycles
            NFock= 14  Conv=0.76D-08     -V/T= 2.0093
 DoSCS=F DFT=T ScalE2(SS,OS)=  1.000000  1.000000
 ExpMin= 4.38D-02 ExpMax= 4.17D+03 ExpMxC= 6.27D+02 IAcc=3 IRadAn=         5 AccDes= 0.00D+00
 HarFok:  IExCor=  205 AccDes= 0.00D+00 IRadAn=         5 IDoV=-2 UseB2=F ITyADJ=14
 ICtDFT= 12500011 ScaDFX=  1.000000  1.000000  1.000000  1.000000
 Range of M.O.s used for correlation:    10   185
 NBasis=   185 NAE=    31 NBE=    31 NFC=     9 NFV=     0
 NROrb=    176 NOA=    22 NOB=    22 NVA=   154 NVB=   154

 **** Warning!!: The largest alpha MO coefficient is  0.17824376D+03

 Orbital symmetries:
       Occupied  (A) (A) (A) (A) (A) (A) (A) (A) (A) (A) (A) (A)
                 (A) (A) (A) (A) (A) (A) (A) (A) (A) (A) (A) (A)
                 (A) (A) (A) (A) (A) (A) (A)
       Virtual   (A) (A) (A) (A) (A) (A) (A) (A) (A) (A) (A) (A)
                 (A) (A) (A) (A) (A) (A) (A) (A) (A) (A) (A) (A)
                 (A) (A) (A) (A) (A) (A) (A) (A) (A) (A) (A) (A)
                 (A) (A) (A) (A) (A) (A) (A) (A) (A) (A) (A) (A)
                 (A) (A) (A) (A) (A) (A) (A) (A) (A) (A) (A) (A)
                 (A) (A) (A) (A) (A) (A) (A) (A) (A) (A) (A) (A)
                 (A) (A) (A) (A) (A) (A) (A) (A) (A) (A) (A) (A)
                 (A) (A) (A) (A) (A) (A) (A) (A) (A) (A) (A) (A)
                 (A) (A) (A) (A) (A) (A) (A) (A) (A) (A) (A) (A)
                 (A) (A) (A) (A) (A) (A) (A) (A) (A) (A) (A) (A)
                 (A) (A) (A) (A) (A) (A) (A) (A) (A) (A) (A) (A)
                 (A) (A) (A) (A) (A) (A) (A) (A) (A) (A) (A) (A)
                 (A) (A) (A) (A) (A) (A) (A) (A) (A) (A)
    24 initial guesses have been made.
 Convergence on wavefunction:    0.000001000000000
 Iteration     1 Dimension    24 NMult     0 NNew     24
 CISAX will form    24 AO SS matrices at one time.
 New state      1 was old state      2
 New state      2 was old state      3
 New state      3 was old state      1
 New state      6 was old state      7
 Iteration     2 Dimension    36 NMult    24 NNew     12
 New state      1 was old state      3
 New state      2 was old state      1
 New state      3 was old state      2
 Iteration     3 Dimension    48 NMult    36 NNew     12
 Iteration     4 Dimension    60 NMult    48 NNew     12
 Iteration     5 Dimension    72 NMult    60 NNew     12
 Iteration     6 Dimension    84 NMult    72 NNew     12
 Iteration     7 Dimension    96 NMult    84 NNew     12
 Iteration     8 Dimension   108 NMult    96 NNew     12
 Iteration     9 Dimension   118 NMult   108 NNew     10
 Iteration    10 Dimension   122 NMult   118 NNew      4
 Iteration    11 Dimension   126 NMult   122 NNew      4
 ***********************************************************************
 Excited states from <AA,BB:AA,BB> singles matrix:
 ***********************************************************************
 
 Ground to excited state transition densities written to RWF  633
 Ground to excited state transition electric dipole moments (Au):
       state          X           Y           Z        Dip. S.      Osc.
         1        -0.5516      0.6146     -0.0005      0.6820      0.0796
         2         0.0014     -0.0022     -0.1323      0.0175      0.0021
         3        -0.5363     -0.1123      0.0000      0.3003      0.0362
         4        -0.0003      0.0002     -0.1396      0.0195      0.0025
         5         0.0003     -0.0000      0.0163      0.0003      0.0000
         6         0.0004      0.0002      0.1108      0.0123      0.0017
 Ground to excited state transition velocity dipole moments (Au):
       state          X           Y           Z        Dip. S.      Osc.
         1         0.0875     -0.1164      0.0001      0.0212      0.0807
         2        -0.0002      0.0004      0.0139      0.0002      0.0007
         3         0.0914      0.0211      0.0000      0.0088      0.0324
         4         0.0001     -0.0000      0.0286      0.0008      0.0028
         5        -0.0001      0.0000     -0.0019      0.0000      0.0000
         6        -0.0001     -0.0000     -0.0223      0.0005      0.0016
 Ground to excited state transition magnetic dipole moments (Au):
       state          X           Y           Z
         1         0.0006     -0.0002      0.1933
         2         0.1247     -0.0610     -0.0004
         3        -0.0002     -0.0002     -0.0275
         4         0.0356     -0.2211      0.0000
         5         0.3059     -0.1269      0.0002
         6         0.0901      0.3586      0.0004
 Ground to excited state transition velocity quadrupole moments (Au):
       state          XX          YY          ZZ          XY          XZ          YZ
         1         0.1917     -0.1099      0.0140      0.0551      0.0002      0.0002
         2        -0.0006      0.0003      0.0001     -0.0001      0.0532      0.0536
         3         0.0720     -0.1061      0.0276      0.0011      0.0001     -0.0001
         4        -0.0000      0.0001     -0.0000     -0.0000      0.1481     -0.0220
         5        -0.0002     -0.0001      0.0000      0.0001      0.1597      0.2504
         6         0.0001     -0.0001      0.0000      0.0002     -0.3147     -0.0014
 <0|del|b> * <b|rxdel|0> + <0|del|b> * <b|delr+rdel|0>
 Rotatory Strengths (R) in cgs (10**-40 erg-esu-cm/Gauss)
       state          XX          YY          ZZ    R(velocity)    E-M Angle
         1         0.1217      0.1575      0.0614      0.1135       90.00
         2        -0.1095     -0.0875     -0.0377     -0.0782       90.00
         3        -0.0090     -0.0512     -0.0202     -0.0268       90.00
         4         0.0237      0.0028      0.0104      0.0123       90.00
         5        -0.0051     -0.0630     -0.0058     -0.0247       90.00
         6        -0.0445     -0.0211     -0.0142     -0.0266       90.00
 1/2[<0|r|b>*<b|rxdel|0> + (<0|rxdel|b>*<b|r|0>)*]
 Rotatory Strengths (R) in cgs (10**-40 erg-esu-cm/Gauss)
       state          XX          YY          ZZ     R(length)
         1         0.2342      0.0815      0.0663      0.1273
         2        -0.1265     -0.0928     -0.0415     -0.0869
         3        -0.0707     -0.0126      0.0004     -0.0276
         4         0.0064      0.0258      0.0020      0.0114
         5        -0.0737     -0.0037     -0.0020     -0.0265
         6        -0.0269     -0.0397     -0.0307     -0.0325
  1/2[<0|del|b>*<b|r|0> + (<0|r|b>*<b|del|0>)*] (Au)
       state          X           Y           Z        Dip. S.   Osc.(frdel)
         1        -0.0482     -0.0715     -0.0000      0.1198      0.0798
         2        -0.0000     -0.0000     -0.0018      0.0018      0.0012
         3        -0.0490     -0.0024      0.0000      0.0514      0.0342
         4        -0.0000     -0.0000     -0.0040      0.0040      0.0027
         5        -0.0000     -0.0000     -0.0000      0.0000      0.0000
         6        -0.0000     -0.0000     -0.0025      0.0025      0.0017

 Excitation energies and oscillator strengths:
 
 Excited State   1:      Singlet-A      4.7646 eV  260.22 nm  f=0.0796  <S**2>=0.000
      30 -> 32        -0.12786
      30 -> 35         0.15179
      31 -> 32         0.66373
 This state for optimization and/or second-order correction.
 Total Energy, E(TD-HF/TD-DFT) =  -363.665372768    
 Copying the excited state density for this state as the 1-particle RhoCI density.
 
 Excited State   2:      Singlet-A      4.8333 eV  256.52 nm  f=0.0021  <S**2>=0.000
      31 -> 33         0.70418
 
 Excited State   3:      Singlet-A      4.9145 eV  252.28 nm  f=0.0362  <S**2>=0.000
      30 -> 32         0.56579
      31 -> 32         0.10340
      31 -> 35        -0.40138
 
 Excited State   4:      Singlet-A      5.2999 eV  233.94 nm  f=0.0025  <S**2>=0.000
      30 -> 33         0.69643
 
 Excited State   5:      Singlet-A      5.4216 eV  228.69 nm  f=0.0000  <S**2>=0.000
      31 -> 34         0.69547
 
 Excited State   6:      Singlet-A      5.5422 eV  223.71 nm  f=0.0017  <S**2>=0.000
      31 -> 36         0.69895
 SavETr:  write IOETrn=   770 NScale= 10 NData=  16 NLR=1 NState=    6 LETran=     118.
          IDoAtm=1111111111111111
          Differentiating once with respect to electric field.
                with respect to dipole field.
          Differentiating once with respect to nuclear coordinates.
 Keep R1 ints in memory in canonical form, NReq=152083851.
          There are     1 degrees of freedom in the 1st order CPHF.  IDoFFX=0 NUNeed=     1.
 LinEq1:  Iter=  0 NonCon=     1 RMS=1.22D-02 Max=3.56D-01 NDo=     1
 AX will form     1 AO Fock derivatives at one time.
 LinEq1:  Iter=  1 NonCon=     1 RMS=4.82D-03 Max=1.15D-01 NDo=     1
 LinEq1:  Iter=  2 NonCon=     1 RMS=4.05D-03 Max=1.25D-01 NDo=     1
 LinEq1:  Iter=  3 NonCon=     1 RMS=1.70D-03 Max=4.39D-02 NDo=     1
 LinEq1:  Iter=  4 NonCon=     1 RMS=1.23D-03 Max=4.24D-02 NDo=     1
 LinEq1:  Iter=  5 NonCon=     1 RMS=5.81D-04 Max=1.03D-02 NDo=     1
 LinEq1:  Iter=  6 NonCon=     1 RMS=3.64D-04 Max=1.26D-02 NDo=     1
 LinEq1:  Iter=  7 NonCon=     1 RMS=1.90D-04 Max=4.85D-03 NDo=     1
 LinEq1:  Iter=  8 NonCon=     1 RMS=1.15D-04 Max=2.25D-03 NDo=     1
 LinEq1:  Iter=  9 NonCon=     1 RMS=5.34D-05 Max=1.22D-03 NDo=     1
 LinEq1:  Iter= 10 NonCon=     1 RMS=2.74D-05 Max=5.60D-04 NDo=     1
 LinEq1:  Iter= 11 NonCon=     1 RMS=1.25D-05 Max=2.25D-04 NDo=     1
 LinEq1:  Iter= 12 NonCon=     1 RMS=7.28D-06 Max=1.28D-04 NDo=     1
 LinEq1:  Iter= 13 NonCon=     1 RMS=2.23D-06 Max=4.25D-05 NDo=     1
 LinEq1:  Iter= 14 NonCon=     1 RMS=1.22D-06 Max=1.56D-05 NDo=     1
 LinEq1:  Iter= 15 NonCon=     1 RMS=2.59D-07 Max=4.15D-06 NDo=     1
 LinEq1:  Iter= 16 NonCon=     1 RMS=5.26D-08 Max=8.32D-07 NDo=     1
 LinEq1:  Iter= 17 NonCon=     1 RMS=2.94D-08 Max=6.54D-07 NDo=     1
 LinEq1:  Iter= 18 NonCon=     1 RMS=1.19D-08 Max=2.58D-07 NDo=     1
 LinEq1:  Iter= 19 NonCon=     1 RMS=2.99D-09 Max=5.04D-08 NDo=     1
 LinEq1:  Iter= 20 NonCon=     1 RMS=1.09D-09 Max=1.54D-08 NDo=     1
 LinEq1:  Iter= 21 NonCon=     1 RMS=2.73D-10 Max=3.01D-09 NDo=     1
 LinEq1:  Iter= 22 NonCon=     0 RMS=4.27D-11 Max=4.38D-10 NDo=     1
 Linear equations converged to 1.000D-10 1.000D-09 after    22 iterations.
 End of Minotr F.D. properties file   721 does not exist.
 End of Minotr F.D. properties file   722 does not exist.
 End of Minotr F.D. properties file   788 does not exist.

 **********************************************************************

            Population analysis using the CI Density.

 **********************************************************************

 Orbital symmetries:
       Occupied  (A) (A) (A) (A) (A) (A) (A) (A) (A) (A) (A) (A)
                 (A) (A) (A) (A) (A) (A) (A) (A) (A) (A) (A) (A)
                 (A) (A) (A) (A) (A) (A) (A)
       Virtual   (A) (A) (A) (A) (A) (A) (A) (A) (A) (A) (A) (A)
                 (A) (A) (A) (A) (A) (A) (A) (A) (A) (A) (A) (A)
                 (A) (A) (A) (A) (A) (A) (A) (A) (A) (A) (A) (A)
                 (A) (A) (A) (A) (A) (A) (A) (A) (A) (A) (A) (A)
                 (A) (A) (A) (A) (A) (A) (A) (A) (A) (A) (A) (A)
                 (A) (A) (A) (A) (A) (A) (A) (A) (A) (A) (A) (A)
                 (A) (A) (A) (A) (A) (A) (A) (A) (A) (A) (A) (A)
                 (A) (A) (A) (A) (A) (A) (A) (A) (A) (A) (A) (A)
                 (A) (A) (A) (A) (A) (A) (A) (A) (A) (A) (A) (A)
                 (A) (A) (A) (A) (A) (A) (A) (A) (A) (A) (A) (A)
                 (A) (A) (A) (A) (A) (A) (A) (A) (A) (A) (A) (A)
                 (A) (A) (A) (A) (A) (A) (A) (A) (A) (A) (A) (A)
                 (A) (A) (A) (A) (A) (A) (A) (A) (A) (A)
 The electronic state is 1-A.
 Alpha  occ. eigenvalues --  -14.38639 -10.22450 -10.22177 -10.19187 -10.18708
 Alpha  occ. eigenvalues --  -10.18636 -10.18630 -10.18143 -10.17932  -0.98746
 Alpha  occ. eigenvalues --   -0.84407  -0.78757  -0.74015  -0.72195  -0.62920
 Alpha  occ. eigenvalues --   -0.60011  -0.58642  -0.54501  -0.48780  -0.47585
 Alpha  occ. eigenvalues --   -0.44251  -0.43433  -0.42583  -0.41626  -0.39683
 Alpha  occ. eigenvalues --   -0.36016  -0.34003  -0.33810  -0.28281  -0.22714
 Alpha  occ. eigenvalues --   -0.21044
 Alpha virt. eigenvalues --   -0.01809  -0.00384   0.01537   0.01790   0.02130
 Alpha virt. eigenvalues --    0.03659   0.03775   0.04409   0.05749   0.06009
 Alpha virt. eigenvalues --    0.06526   0.06634   0.08445   0.08819   0.10612
 Alpha virt. eigenvalues --    0.10693   0.11055   0.12528   0.13479   0.13696
 Alpha virt. eigenvalues --    0.15376   0.15700   0.16525   0.16653   0.17133
 Alpha virt. eigenvalues --    0.18215   0.18619   0.18820   0.19649   0.19926
 Alpha virt. eigenvalues --    0.20162   0.20268   0.21784   0.22411   0.23045
 Alpha virt. eigenvalues --    0.23460   0.23635   0.24554   0.25558   0.26043
 Alpha virt. eigenvalues --    0.27077   0.27367   0.27824   0.29717   0.30239
 Alpha virt. eigenvalues --    0.30945   0.31607   0.33210   0.35144   0.36803
 Alpha virt. eigenvalues --    0.37966   0.40026   0.43564   0.45053   0.51385
 Alpha virt. eigenvalues --    0.58156   0.62386   0.67098   0.67585   0.69554
 Alpha virt. eigenvalues --    0.71379   0.71752   0.72973   0.73318   0.73925
 Alpha virt. eigenvalues --    0.74948   0.75407   0.77432   0.78843   0.79684
 Alpha virt. eigenvalues --    0.81335   0.84993   0.88957   0.89551   0.90678
 Alpha virt. eigenvalues --    0.93040   0.93684   0.94822   0.95702   0.97948
 Alpha virt. eigenvalues --    0.99808   1.02664   1.04498   1.05974   1.09425
 Alpha virt. eigenvalues --    1.11323   1.11710   1.16948   1.17932   1.20517
 Alpha virt. eigenvalues --    1.22368   1.23949   1.25229   1.31584   1.32594
 Alpha virt. eigenvalues --    1.34540   1.36626   1.41640   1.41917   1.44830
 Alpha virt. eigenvalues --    1.46456   1.47165   1.50222   1.50790   1.53718
 Alpha virt. eigenvalues --    1.58834   1.65108   1.79087   1.84664   1.88552
 Alpha virt. eigenvalues --    1.89652   1.92272   1.94119   1.99553   1.99943
 Alpha virt. eigenvalues --    2.01054   2.06550   2.10168   2.14500   2.17464
 Alpha virt. eigenvalues --    2.18004   2.20038   2.25508   2.26665   2.27173
 Alpha virt. eigenvalues --    2.28952   2.31755   2.38739   2.41544   2.44927
 Alpha virt. eigenvalues --    2.55165   2.56594   2.64077   2.66229   2.67750
 Alpha virt. eigenvalues --    2.70246   2.73885   2.81319   2.85011   2.86093
 Alpha virt. eigenvalues --    2.95967   2.98354   3.11788   3.24621   3.45346
 Alpha virt. eigenvalues --    4.14970   4.25604   4.28599   4.32147   4.35711
 Alpha virt. eigenvalues --    4.39366   4.47707   4.51642   4.78799
          Condensed to atoms (all electrons):
               1          2          3          4          5          6
     1  C    5.543665   0.598918   0.114234  -0.645408  -0.050304  -0.079011
     2  C    0.598918   6.036824  -0.497823   0.603362  -0.713761   0.448464
     3  C    0.114234  -0.497823  15.140027  -3.968530  -3.808378  -2.849858
     4  C   -0.645408   0.603362  -3.968530  14.314910  -2.736407  -0.816959
     5  C   -0.050304  -0.713761  -3.808378  -2.736407  15.777482  -1.067554
     6  C   -0.079011   0.448464  -2.849858  -0.816959  -1.067554  13.544730
     7  N   -0.015101   0.001818  -0.475144  -0.409463   0.810075   0.123535
     8  C    0.225030  -0.361451   3.938455   0.738381  -5.932557  -3.621679
     9  C   -0.095870   0.048382  -1.460959  -0.296805   2.166586   1.019528
    10  H   -0.001637  -0.011702  -0.123662  -0.073289   0.169114   0.027004
    11  H    0.001357   0.000915   0.005487   0.049205  -0.055084  -0.013941
    12  H    0.000477   0.000721   0.027128   0.086975  -0.070267  -0.024864
    13  H   -0.021270   0.298064  -0.036611   0.036829  -0.007392   0.027993
    14  H    0.029241   0.019526   0.244567  -0.002165   0.026176  -0.027739
    15  H    0.302469  -0.019282   0.035685  -0.026755   0.039330  -0.039272
    16  H   -0.001533   0.028919  -0.051442   0.043068   0.046637   0.279746
               7          8          9         10         11         12
     1  C   -0.015101   0.225030  -0.095870  -0.001637   0.001357   0.000477
     2  C    0.001818  -0.361451   0.048382  -0.011702   0.000915   0.000721
     3  C   -0.475144   3.938455  -1.460959  -0.123662   0.005487   0.027128
     4  C   -0.409463   0.738381  -0.296805  -0.073289   0.049205   0.086975
     5  C    0.810075  -5.932557   2.166586   0.169114  -0.055084  -0.070267
     6  C    0.123535  -3.621679   1.019528   0.027004  -0.013941  -0.024864
     7  N    7.252654  -0.625910   0.551333   0.260661   0.006501  -0.056734
     8  C   -0.625910  14.024834  -2.922717   0.014241   0.347811  -0.012272
     9  C    0.551333  -2.922717   7.062515  -0.039473  -0.052070   0.355147
    10  H    0.260661   0.014241  -0.039473   0.346151  -0.000075  -0.002415
    11  H    0.006501   0.347811  -0.052070  -0.000075   0.495398  -0.000915
    12  H   -0.056734  -0.012272   0.355147  -0.002415  -0.000915   0.487540
    13  H   -0.000552  -0.002353   0.001741  -0.000003   0.000000  -0.000000
    14  H   -0.009066  -0.010810   0.009992   0.002433   0.000002   0.000003
    15  H    0.000290   0.003863  -0.000137  -0.000000  -0.000002  -0.000000
    16  H   -0.001072  -0.068537   0.005094   0.000005   0.001614  -0.000001
              13         14         15         16
     1  C   -0.021270   0.029241   0.302469  -0.001533
     2  C    0.298064   0.019526  -0.019282   0.028919
     3  C   -0.036611   0.244567   0.035685  -0.051442
     4  C    0.036829  -0.002165  -0.026755   0.043068
     5  C   -0.007392   0.026176   0.039330   0.046637
     6  C    0.027993  -0.027739  -0.039272   0.279746
     7  N   -0.000552  -0.009066   0.000290  -0.001072
     8  C   -0.002353  -0.010810   0.003863  -0.068537
     9  C    0.001741   0.009992  -0.000137   0.005094
    10  H   -0.000003   0.002433  -0.000000   0.000005
    11  H    0.000000   0.000002  -0.000002   0.001614
    12  H   -0.000000   0.000003  -0.000000  -0.000001
    13  H    0.543802  -0.005001  -0.005032  -0.000172
    14  H   -0.005001   0.552247  -0.000173   0.000020
    15  H   -0.005032  -0.000173   0.544191  -0.004947
    16  H   -0.000172   0.000020  -0.004947   0.547464
 Mulliken charges:
               1
     1  C    0.094744
     2  C   -0.481894
     3  C   -0.233175
     4  C   -0.896948
     5  C    1.406305
     6  C   -0.930123
     7  N   -0.413824
     8  C    0.265672
     9  C   -0.352285
    10  H    0.432645
    11  H    0.213798
    12  H    0.209477
    13  H    0.169955
    14  H    0.170745
    15  H    0.169772
    16  H    0.175138
 Sum of Mulliken charges =  -0.00000
 Mulliken charges with hydrogens summed into heavy atoms:
               1
     1  C    0.264516
     2  C   -0.311939
     3  C   -0.062430
     4  C   -0.896948
     5  C    1.406305
     6  C   -0.754985
     7  N    0.018820
     8  C    0.479470
     9  C   -0.142808
 Electronic spatial extent (au):  <R**2>=           1009.2847
 Charge=             -0.0000 electrons
 Dipole moment (field-independent basis, Debye):
    X=              4.0446    Y=             -1.0974    Z=             -0.0083  Tot=              4.1908
 Quadrupole moment (field-independent basis, Debye-Ang):
   XX=            -46.8157   YY=            -46.6289   ZZ=            -60.6903
   XY=             -2.4906   XZ=             -0.0168   YZ=              0.0112
 Traceless Quadrupole moment (field-independent basis, Debye-Ang):
   XX=              4.5626   YY=              4.7494   ZZ=             -9.3120
   XY=             -2.4906   XZ=             -0.0168   YZ=              0.0112
 Octapole moment (field-independent basis, Debye-Ang**2):
  XXX=             24.0514  YYY=             -8.6310  ZZZ=             -0.0605  XYY=             16.2206
  XXY=             -5.3729  XXZ=             -0.0539  XZZ=              4.5361  YZZ=             -0.6484
  YYZ=             -0.0541  XYZ=              0.0143
 Hexadecapole moment (field-independent basis, Debye-Ang**3):
 XXXX=           -869.8100 YYYY=           -401.7617 ZZZZ=            -91.0872 XXXY=            -18.4889
 XXXZ=             -0.2637 YYYX=            -15.5133 YYYZ=              0.1137 ZZZX=             -0.1054
 ZZZY=              0.0790 XXYY=           -197.1288 XXZZ=           -203.6125 YYZZ=           -105.1624
 XXYZ=              0.0472 YYXZ=             -0.0332 ZZXY=             -1.7901
 N-N= 4.013276757835D+02 E-N=-1.644976916861D+03  KE= 3.606061526281D+02
 Calling FoFJK, ICntrl=  10005127 FMM=F ISym2X=0 I1Cent= 0 IOpClX= 0 NMat=1 NMatS=1 NMatT=0.
 ***** Axes restored to original set *****
 -------------------------------------------------------------------
 Center     Atomic                   Forces (Hartrees/Bohr)
 Number     Number              X              Y              Z
 -------------------------------------------------------------------
      1        6          -0.027639835   -0.035093002   -0.000003416
      2        6          -0.042538822    0.039347934   -0.000001032
      3        6           0.036632547   -0.036412142    0.000027890
      4        6          -0.014509882    0.019803404   -0.000028110
      5        6           0.011719236   -0.018147819   -0.000021560
      6        6           0.011982711    0.036891825    0.000015282
      7        7           0.015146218    0.024073598    0.000022386
      8        6          -0.034503292    0.023902922    0.000011205
      9        6           0.040532328   -0.050039384   -0.000018139
     10        1           0.003234544   -0.007537831    0.000014604
     11        1           0.001820331    0.003604815    0.000001718
     12        1           0.003053166   -0.000772231   -0.000002786
     13        1          -0.003159504   -0.001149530   -0.000001074
     14        1           0.000929485   -0.003283283   -0.000013499
     15        1          -0.003120025    0.001437148   -0.000000445
     16        1           0.000420794    0.003373575   -0.000003024
 -------------------------------------------------------------------
 Cartesian Forces:  Max     0.050039384 RMS     0.019068115

 GradGradGradGradGradGradGradGradGradGradGradGradGradGradGradGradGradGrad
 Berny optimization.
 FormGI is forming the generalized inverse of G from B-inverse, IUseBI=4.
 Internal  Forces:  Max     0.052906715 RMS     0.010458675
 Search for a local minimum.
 Step number   1 out of a maximum of   94
 All quantities printed in internal units (Hartrees-Bohrs-Radians)
 Mixed Optimization -- RFO/linear search
 Second derivative matrix not updated -- first step.
 ITU=  0
     Eigenvalues ---    0.01853   0.01931   0.01986   0.02012   0.02070
     Eigenvalues ---    0.02113   0.02148   0.02153   0.02172   0.02209
     Eigenvalues ---    0.02233   0.02248   0.02338   0.16000   0.16000
     Eigenvalues ---    0.16000   0.16000   0.16000   0.16000   0.16000
     Eigenvalues ---    0.22000   0.22188   0.22662   0.24011   0.24651
     Eigenvalues ---    0.35712   0.35717   0.35783   0.35790   0.36420
     Eigenvalues ---    0.36427   0.37009   0.38432   0.42633   0.43465
     Eigenvalues ---    0.45769   0.46692   0.47162   0.47468   0.47567
     Eigenvalues ---    0.48125   0.50955
 RFO step:  Lambda=-1.98270916D-02 EMin= 1.85287394D-02
 Linear search not attempted -- first point.
 Iteration  1 RMS(Cart)=  0.03322402 RMS(Int)=  0.00032082
 Iteration  2 RMS(Cart)=  0.00039319 RMS(Int)=  0.00013653
 Iteration  3 RMS(Cart)=  0.00000010 RMS(Int)=  0.00013653
 Variable       Old X    -DE/DX   Delta X   Delta X   Delta X     New X
                                 (Linear)    (Quad)   (Total)
    R1        2.65547  -0.01007   0.00000  -0.01935  -0.01932   2.63616
    R2        2.61291   0.03932   0.00000   0.07881   0.07883   2.69175
    R3        2.04421   0.00343   0.00000   0.00908   0.00908   2.05329
    R4        2.61557   0.05291   0.00000   0.10611   0.10612   2.72169
    R5        2.04411   0.00331   0.00000   0.00876   0.00876   2.05287
    R6        2.63373   0.01232   0.00000   0.02417   0.02415   2.65788
    R7        2.04534   0.00330   0.00000   0.00874   0.00874   2.05408
    R8        2.68058  -0.00417   0.00000  -0.01556  -0.01584   2.66474
    R9        2.60126   0.02403   0.00000   0.04404   0.04425   2.64552
   R10        2.64771   0.02487   0.00000   0.05142   0.05141   2.69911
   R11        2.70839   0.00437   0.00000   0.01083   0.01048   2.71887
   R12        2.04526   0.00336   0.00000   0.00891   0.00891   2.05418
   R13        2.60573  -0.01328   0.00000  -0.02405  -0.02368   2.58205
   R14        1.89542   0.00817   0.00000   0.01663   0.01663   1.91205
   R15        2.57870   0.04631   0.00000   0.08923   0.08925   2.66795
   R16        2.03419   0.00401   0.00000   0.01044   0.01044   2.04463
   R17        2.03430   0.00312   0.00000   0.00812   0.00812   2.04242
    A1        2.11420   0.00042   0.00000   0.00710   0.00711   2.12131
    A2        2.07986  -0.00042   0.00000  -0.00474  -0.00474   2.07512
    A3        2.08912   0.00000   0.00000  -0.00236  -0.00237   2.08676
    A4        2.11523  -0.00108   0.00000   0.00066   0.00066   2.11589
    A5        2.08365  -0.00008   0.00000  -0.00376  -0.00376   2.07989
    A6        2.08430   0.00116   0.00000   0.00310   0.00310   2.08740
    A7        2.05144  -0.00389   0.00000  -0.01751  -0.01757   2.03387
    A8        2.11267   0.00285   0.00000   0.01378   0.01381   2.12648
    A9        2.11908   0.00104   0.00000   0.00373   0.00376   2.12284
   A10        2.13389   0.00436   0.00000   0.01547   0.01539   2.14928
   A11        2.27895  -0.00625   0.00000  -0.01368  -0.01359   2.26536
   A12        1.87035   0.00189   0.00000  -0.00179  -0.00180   1.86855
   A13        2.07274   0.00513   0.00000   0.01582   0.01600   2.08875
   A14        1.86517  -0.00300   0.00000  -0.01480  -0.01533   1.84984
   A15        2.34527  -0.00213   0.00000  -0.00102  -0.00067   2.34460
   A16        2.07887  -0.00494   0.00000  -0.02154  -0.02159   2.05728
   A17        2.10306   0.00300   0.00000   0.01370   0.01372   2.11678
   A18        2.10125   0.00195   0.00000   0.00785   0.00787   2.10912
   A19        1.90743   0.01138   0.00000   0.04423   0.04473   1.95216
   A20        2.19023  -0.00502   0.00000  -0.01839  -0.01864   2.17159
   A21        2.18553  -0.00636   0.00000  -0.02584  -0.02609   2.15944
   A22        1.86968   0.00721   0.00000   0.03643   0.03611   1.90579
   A23        2.21717  -0.00313   0.00000  -0.01560  -0.01544   2.20173
   A24        2.19633  -0.00407   0.00000  -0.02083  -0.02067   2.17566
   A25        1.91215  -0.01748   0.00000  -0.06407  -0.06371   1.84843
   A26        2.10250   0.00828   0.00000   0.02950   0.02932   2.13183
   A27        2.26854   0.00919   0.00000   0.03456   0.03439   2.30292
    D1       -0.00001   0.00000   0.00000   0.00002   0.00002   0.00001
    D2       -3.14156   0.00000   0.00000   0.00001   0.00001  -3.14155
    D3        3.14152   0.00000   0.00000   0.00003   0.00003   3.14155
    D4       -0.00002   0.00000   0.00000   0.00002   0.00002   0.00000
    D5       -0.00003   0.00000   0.00000   0.00010   0.00010   0.00007
    D6        3.14153  -0.00000   0.00000  -0.00002  -0.00001   3.14152
    D7       -3.14157   0.00000   0.00000   0.00009   0.00009  -3.14148
    D8       -0.00001  -0.00000   0.00000  -0.00002  -0.00002  -0.00003
    D9        0.00003  -0.00000   0.00000  -0.00012  -0.00012  -0.00009
   D10       -3.14154   0.00000   0.00000   0.00009   0.00009  -3.14144
   D11        3.14158  -0.00000   0.00000  -0.00012  -0.00012   3.14146
   D12        0.00001   0.00000   0.00000   0.00010   0.00010   0.00011
   D13       -0.00001   0.00000   0.00000   0.00011   0.00011   0.00010
   D14       -3.14144  -0.00000   0.00000  -0.00003  -0.00003  -3.14146
   D15        3.14156  -0.00001   0.00000  -0.00011  -0.00011   3.14145
   D16        0.00013  -0.00001   0.00000  -0.00024  -0.00025  -0.00011
   D17       -0.00004   0.00000   0.00000   0.00001   0.00001  -0.00003
   D18       -3.14151   0.00000   0.00000  -0.00005  -0.00006  -3.14157
   D19        3.14143   0.00001   0.00000   0.00012   0.00012   3.14154
   D20       -0.00005   0.00000   0.00000   0.00005   0.00005  -0.00000
   D21       -3.14124   0.00000   0.00000  -0.00012  -0.00013  -3.14138
   D22       -0.00113   0.00001   0.00000   0.00006   0.00005  -0.00108
   D23        0.00049  -0.00000   0.00000  -0.00024  -0.00025   0.00024
   D24        3.14060   0.00000   0.00000  -0.00006  -0.00007   3.14054
   D25        0.00005  -0.00001   0.00000  -0.00012  -0.00012  -0.00006
   D26       -3.14151   0.00000   0.00000   0.00000  -0.00000  -3.14151
   D27        3.14150  -0.00000   0.00000  -0.00003  -0.00003   3.14147
   D28       -0.00007   0.00000   0.00000   0.00008   0.00009   0.00002
   D29       -0.00041   0.00001   0.00000   0.00018   0.00018  -0.00023
   D30        3.14139   0.00000   0.00000   0.00001   0.00001   3.14140
   D31        3.14132   0.00001   0.00000   0.00010   0.00010   3.14142
   D32       -0.00006  -0.00000   0.00000  -0.00007  -0.00007  -0.00014
   D33       -0.00077   0.00002   0.00000   0.00040   0.00040  -0.00038
   D34        3.14133   0.00001   0.00000   0.00018   0.00018   3.14150
   D35       -3.14089   0.00001   0.00000   0.00021   0.00020  -3.14069
   D36        0.00121   0.00000   0.00000  -0.00001  -0.00002   0.00119
   D37        0.00072  -0.00002   0.00000  -0.00036  -0.00035   0.00037
   D38       -3.14144  -0.00000   0.00000  -0.00011  -0.00011  -3.14155
   D39       -3.14107  -0.00001   0.00000  -0.00019  -0.00018  -3.14126
   D40       -0.00005   0.00000   0.00000   0.00006   0.00006   0.00001
         Item               Value     Threshold  Converged?
 Maximum Force            0.052907     0.000450     NO 
 RMS     Force            0.010459     0.000300     NO 
 Maximum Displacement     0.124673     0.001800     NO 
 RMS     Displacement     0.033178     0.001200     NO 
 Predicted change in Energy=-1.036766D-02
 GradGradGradGradGradGradGradGradGradGradGradGradGradGradGradGradGradGrad

                          Input orientation:                          
 ---------------------------------------------------------------------
 Center     Atomic      Atomic             Coordinates (Angstroms)
 Number     Number       Type             X           Y           Z
 ---------------------------------------------------------------------
      1          6           0       -2.197379    0.686996    0.000068
      2          6           0       -2.169992   -0.707729    0.000038
      3          6           0       -0.924036   -1.430182    0.000054
      4          6           0        0.250692   -0.656730   -0.000014
      5          6           0        0.245354    0.753380    0.000023
      6          6           0       -0.998280    1.455833    0.000105
      7          7           0        1.590583   -1.062372   -0.000157
      8          6           0        1.626956    1.154900   -0.000102
      9          6           0        2.444772    0.004074    0.000092
     10          1           0        1.896183   -2.026932    0.000667
     11          1           0        1.996036    2.171977   -0.000283
     12          1           0        3.518523   -0.119194    0.000113
     13          1           0       -3.107984   -1.255714   -0.000034
     14          1           0       -0.891196   -2.516659   -0.000108
     15          1           0       -3.158786    1.193258    0.000017
     16          1           0       -1.024543    2.542540    0.000057
 ---------------------------------------------------------------------
                    Distance matrix (angstroms):
                    1          2          3          4          5
     1  C    0.000000
     2  C    1.394995   0.000000
     3  C    2.470596   1.440258   0.000000
     4  C    2.792606   2.421221   1.406490   0.000000
     5  C    2.443635   2.822896   2.476977   1.410120   0.000000
     6  C    1.424411   2.460469   2.886970   2.454150   1.428309
     7  N    4.172403   3.777260   2.541376   1.399947   2.259777
     8  C    3.852852   4.229208   3.631833   2.275105   1.438764
     9  C    4.692115   4.669337   3.661415   2.291429   2.323553
    10  H    4.911481   4.274818   2.882663   2.141283   3.233476
    11  H    4.448584   5.064435   4.637065   3.323824   2.253288
    12  H    5.772476   5.718879   4.631957   3.311746   3.387480
    13  H    2.145536   1.086332   2.190906   3.411670   3.909135
    14  H    3.459700   2.215298   1.086973   2.182487   3.461922
    15  H    1.086556   2.142771   3.446236   3.879046   3.432443
    16  H    2.195128   3.446202   3.973994   3.444060   2.194022
                    6          7          8          9         10
     6  C    0.000000
     7  N    3.611588   0.000000
     8  C    2.642428   2.217570   0.000000
     9  C    3.736604   1.366362   1.411816   0.000000
    10  H    4.528528   1.011814   3.193202   2.103790   0.000000
    11  H    3.078765   3.259663   1.081973   2.213858   4.200096
    12  H    4.783536   2.146284   2.280645   1.080803   2.504287
    13  H    3.435599   4.702544   5.313259   5.693871   5.063246
    14  H    3.973935   2.876488   4.452127   4.181241   2.830073
    15  H    2.176403   5.257791   4.785895   5.728352   5.993524
    16  H    1.087025   4.453568   2.992656   4.298832   5.423164
                   11         12         13         14         15
    11  H    0.000000
    12  H    2.750896   0.000000
    13  H    6.148178   6.723264   0.000000
    14  H    5.506307   5.019309   2.550320   0.000000
    15  H    5.246912   6.805070   2.449499   4.348040   0.000000
    16  H    3.043225   5.265385   4.332143   5.060956   2.524986
                   16
    16  H    0.000000
 Stoichiometry    C8H7N
 Framework group  C1[X(C8H7N)]
 Deg. of freedom    42
 Full point group                 C1      NOp   1
 Largest Abelian subgroup         C1      NOp   1
 Largest concise Abelian subgroup C1      NOp   1
                         Standard orientation:                         
 ---------------------------------------------------------------------
 Center     Atomic      Atomic             Coordinates (Angstroms)
 Number     Number       Type             X           Y           Z
 ---------------------------------------------------------------------
      1          6           0       -2.205503    0.660162    0.000053
      2          6           0       -2.162304   -0.734163    0.000024
      3          6           0       -0.908237   -1.442443    0.000039
      4          6           0        0.257646   -0.655720   -0.000029
      5          6           0        0.236320    0.754238    0.000009
      6          6           0       -1.015199    1.442545    0.000090
      7          7           0        1.602050   -1.046144   -0.000172
      8          6           0        1.613280    1.171398   -0.000117
      9          6           0        2.444093    0.029918    0.000078
     10          1           0        1.918567   -2.007177    0.000652
     11          1           0        1.970805    2.192594   -0.000297
     12          1           0        3.519172   -0.081167    0.000099
     13          1           0       -3.094023   -1.292748   -0.000049
     14          1           0       -0.863080   -2.528477   -0.000123
     15          1           0       -3.172589    1.155490    0.000003
     16          1           0       -1.053782    2.528885    0.000042
 ---------------------------------------------------------------------
 Rotational constants (GHZ):           3.8799149           1.5851149           1.1253572
 Standard basis: 6-31+G(d) (6D, 7F)
 There are   185 symmetry adapted cartesian basis functions of A   symmetry.
 There are   185 symmetry adapted basis functions of A   symmetry.
   185 basis functions,   316 primitive gaussians,   185 cartesian basis functions
    31 alpha electrons       31 beta electrons
       nuclear repulsion energy       396.6285027567 Hartrees.
 NAtoms=   16 NActive=   16 NUniq=   16 SFac= 1.00D+00 NAtFMM=   60 NAOKFM=F Big=F
 Integral buffers will be    131072 words long.
 Regular integral format.
 Two-electron integral symmetry is turned on.
 Nuclear repulsion after empirical dispersion term =      396.6193155633 Hartrees.
 One-electron integrals computed using PRISM.
 NBasis=   185 RedAO= T EigKep=  1.36D-06  NBF=   185
 NBsUse=   185 1.00D-06 EigRej= -1.00D+00 NBFU=   185
 Initial guess from the checkpoint file:  "FuncsB3LYP-V-1st.chk"
 B after Tr=     0.000000   -0.000000    0.000000
         Rot=    0.999984    0.000002   -0.000001   -0.005675 Ang=   0.65 deg.
 ExpMin= 4.38D-02 ExpMax= 4.17D+03 ExpMxC= 6.27D+02 IAcc=3 IRadAn=         5 AccDes= 0.00D+00
 Harris functional with IExCor=  402 and IRadAn=       5 diagonalized for initial guess.
 HarFok:  IExCor=  402 AccDes= 0.00D+00 IRadAn=         5 IDoV= 1 UseB2=F ITyADJ=14
 ICtDFT=  3500011 ScaDFX=  1.000000  1.000000  1.000000  1.000000
 FoFCou: FMM=F IPFlag=           0 FMFlag=      100000 FMFlg1=           0
         NFxFlg=           0 DoJE=T BraDBF=F KetDBF=T FulRan=T
         wScrn=  0.000000 ICntrl=       500 IOpCl=  0 I1Cent=   200000004 NGrid=           0
         NMat0=    1 NMatS0=      1 NMatT0=    0 NMatD0=    1 NMtDS0=    0 NMtDT0=    0
 Petite list used in FoFCou.
 Keep R1 ints in memory in canonical form, NReq=152071459.
 Requested convergence on RMS density matrix=1.00D-08 within 128 cycles.
 Requested convergence on MAX density matrix=1.00D-06.
 Requested convergence on             energy=1.00D-06.
 No special actions if energy rises.
 SCF Done:  E(RB3LYP) =  -363.834326177     A.U. after   13 cycles
            NFock= 13  Conv=0.91D-08     -V/T= 2.0107
 DoSCS=F DFT=T ScalE2(SS,OS)=  1.000000  1.000000
 ExpMin= 4.38D-02 ExpMax= 4.17D+03 ExpMxC= 6.27D+02 IAcc=3 IRadAn=         5 AccDes= 0.00D+00
 HarFok:  IExCor=  205 AccDes= 0.00D+00 IRadAn=         5 IDoV=-2 UseB2=F ITyADJ=14
 ICtDFT= 12500011 ScaDFX=  1.000000  1.000000  1.000000  1.000000
 Range of M.O.s used for correlation:    10   185
 NBasis=   185 NAE=    31 NBE=    31 NFC=     9 NFV=     0
 NROrb=    176 NOA=    22 NOB=    22 NVA=   154 NVB=   154

 **** Warning!!: The largest alpha MO coefficient is  0.18393297D+03

 Orbital symmetries:
       Occupied  (A) (A) (A) (A) (A) (A) (A) (A) (A) (A) (A) (A)
                 (A) (A) (A) (A) (A) (A) (A) (A) (A) (A) (A) (A)
                 (A) (A) (A) (A) (A) (A) (A)
       Virtual   (A) (A) (A) (A) (A) (A) (A) (A) (A) (A) (A) (A)
                 (A) (A) (A) (A) (A) (A) (A) (A) (A) (A) (A) (A)
                 (A) (A) (A) (A) (A) (A) (A) (A) (A) (A) (A) (A)
                 (A) (A) (A) (A) (A) (A) (A) (A) (A) (A) (A) (A)
                 (A) (A) (A) (A) (A) (A) (A) (A) (A) (A) (A) (A)
                 (A) (A) (A) (A) (A) (A) (A) (A) (A) (A) (A) (A)
                 (A) (A) (A) (A) (A) (A) (A) (A) (A) (A) (A) (A)
                 (A) (A) (A) (A) (A) (A) (A) (A) (A) (A) (A) (A)
                 (A) (A) (A) (A) (A) (A) (A) (A) (A) (A) (A) (A)
                 (A) (A) (A) (A) (A) (A) (A) (A) (A) (A) (A) (A)
                 (A) (A) (A) (A) (A) (A) (A) (A) (A) (A) (A) (A)
                 (A) (A) (A) (A) (A) (A) (A) (A) (A) (A) (A) (A)
                 (A) (A) (A) (A) (A) (A) (A) (A) (A) (A)
 Generating guess from densities on rwf.
 Convergence on wavefunction:    0.000001000000000
 Iteration     1 Dimension    12 NMult     0 NNew     12
 CISAX will form    12 AO SS matrices at one time.
 New state      2 was old state      3
 New state      3 was old state      2
 New state      4 was old state      5
 New state      5 was old state      4
 Iteration     2 Dimension    24 NMult    12 NNew     12
 New state      2 was old state      3
 New state      3 was old state      2
 New state      5 was old state      6
 New state      6 was old state      5
 Iteration     3 Dimension    36 NMult    24 NNew     12
 Iteration     4 Dimension    48 NMult    36 NNew     12
 Iteration     5 Dimension    60 NMult    48 NNew     12
 Iteration     6 Dimension    72 NMult    60 NNew     12
 Iteration     7 Dimension    84 NMult    72 NNew     12
 Iteration     8 Dimension    96 NMult    84 NNew     12
 Iteration     9 Dimension   108 NMult    96 NNew     12
 Iteration    10 Dimension   118 NMult   108 NNew     10
 Iteration    11 Dimension   122 NMult   118 NNew      4
 ***********************************************************************
 Excited states from <AA,BB:AA,BB> singles matrix:
 ***********************************************************************
 
 Ground to excited state transition densities written to RWF  633
 Ground to excited state transition electric dipole moments (Au):
       state          X           Y           Z        Dip. S.      Osc.
         1        -0.6858      0.6621     -0.0001      0.9087      0.0957
         2         0.0005     -0.0005     -0.1350      0.0182      0.0021
         3        -0.3064     -0.1713      0.0000      0.1232      0.0143
         4         0.0002     -0.0000     -0.0116      0.0001      0.0000
         5         0.0003      0.0001      0.1445      0.0209      0.0027
         6        -0.0006     -0.0001     -0.1108      0.0123      0.0016
 Ground to excited state transition velocity dipole moments (Au):
       state          X           Y           Z        Dip. S.      Osc.
         1         0.0986     -0.1138      0.0000      0.0227      0.0956
         2        -0.0001      0.0001      0.0135      0.0002      0.0007
         3         0.0501      0.0318      0.0000      0.0035      0.0134
         4        -0.0000      0.0000      0.0041      0.0000      0.0001
         5        -0.0001     -0.0000     -0.0277      0.0008      0.0026
         6         0.0001      0.0000      0.0242      0.0006      0.0019
 Ground to excited state transition magnetic dipole moments (Au):
       state          X           Y           Z
         1         0.0002     -0.0000      0.1664
         2         0.1378     -0.0643      0.0001
         3        -0.0001     -0.0001      0.0473
         4         0.3053     -0.1420      0.0001
         5         0.0795      0.3767      0.0003
         6         0.0029     -0.1405     -0.0001
 Ground to excited state transition velocity quadrupole moments (Au):
       state          XX          YY          ZZ          XY          XZ          YZ
         1         0.1786     -0.1160      0.0128      0.0701      0.0001      0.0000
         2        -0.0001      0.0001      0.0001      0.0000      0.0564      0.0536
         3         0.0310     -0.0774      0.0267      0.0087      0.0000     -0.0000
         4        -0.0001     -0.0001      0.0000      0.0000      0.1678      0.2327
         5         0.0001     -0.0000      0.0001      0.0001     -0.3315     -0.0098
         6         0.0001     -0.0001     -0.0000     -0.0000      0.0676     -0.0603
 <0|del|b> * <b|rxdel|0> + <0|del|b> * <b|delr+rdel|0>
 Rotatory Strengths (R) in cgs (10**-40 erg-esu-cm/Gauss)
       state          XX          YY          ZZ    R(velocity)    E-M Angle
         1         0.0273      0.0380      0.0245      0.0299       90.00
         2        -0.0199     -0.0234     -0.0131     -0.0188       90.00
         3        -0.0044     -0.0144     -0.0127     -0.0105       90.00
         4        -0.0026     -0.0372     -0.0048     -0.0149       90.00
         5        -0.0361     -0.0143     -0.0098     -0.0200       90.00
         6        -0.0105     -0.0161      0.0126     -0.0047       90.00
 1/2[<0|r|b>*<b|rxdel|0> + (<0|rxdel|b>*<b|r|0>)*]
 Rotatory Strengths (R) in cgs (10**-40 erg-esu-cm/Gauss)
       state          XX          YY          ZZ     R(length)
         1         0.0773      0.0107      0.0141      0.0340
         2        -0.0453     -0.0233      0.0116     -0.0190
         3        -0.0244     -0.0084     -0.0008     -0.0112
         4        -0.0487     -0.0033      0.0011     -0.0170
         5        -0.0163     -0.0297     -0.0257     -0.0239
         6         0.0013     -0.0050     -0.0088     -0.0042
  1/2[<0|del|b>*<b|r|0> + (<0|r|b>*<b|del|0>)*] (Au)
       state          X           Y           Z        Dip. S.   Osc.(frdel)
         1        -0.0676     -0.0753     -0.0000      0.1429      0.0953
         2        -0.0000     -0.0000     -0.0018      0.0018      0.0012
         3        -0.0154     -0.0054      0.0000      0.0208      0.0139
         4        -0.0000     -0.0000     -0.0000      0.0000      0.0000
         5        -0.0000     -0.0000     -0.0040      0.0040      0.0027
         6        -0.0000     -0.0000     -0.0027      0.0027      0.0018

 Excitation energies and oscillator strengths:
 
 Excited State   1:      Singlet-A      4.2990 eV  288.40 nm  f=0.0957  <S**2>=0.000
      29 -> 32         0.10932
      30 -> 35         0.10388
      31 -> 32         0.68089
 This state for optimization and/or second-order correction.
 Total Energy, E(TD-HF/TD-DFT) =  -363.676339525    
 Copying the excited state density for this state as the 1-particle RhoCI density.
 
 Excited State   2:      Singlet-A      4.6048 eV  269.25 nm  f=0.0021  <S**2>=0.000
      31 -> 33         0.70434
 
 Excited State   3:      Singlet-A      4.7503 eV  261.00 nm  f=0.0143  <S**2>=0.000
      30 -> 32         0.55457
      31 -> 35        -0.42700
 
 Excited State   4:      Singlet-A      5.2073 eV  238.10 nm  f=0.0000  <S**2>=0.000
      31 -> 34        -0.69944
 
 Excited State   5:      Singlet-A      5.3371 eV  232.31 nm  f=0.0027  <S**2>=0.000
      31 -> 36        -0.69599
 
 Excited State   6:      Singlet-A      5.4687 eV  226.72 nm  f=0.0016  <S**2>=0.000
      30 -> 33         0.69699
 SavETr:  write IOETrn=   770 NScale= 10 NData=  16 NLR=1 NState=    6 LETran=     118.
          IDoAtm=1111111111111111
          Differentiating once with respect to electric field.
                with respect to dipole field.
          Differentiating once with respect to nuclear coordinates.
 Keep R1 ints in memory in canonical form, NReq=152083851.
          There are     1 degrees of freedom in the 1st order CPHF.  IDoFFX=0 NUNeed=     1.
 LinEq1:  Iter=  0 NonCon=     1 RMS=1.51D-02 Max=4.77D-01 NDo=     1
 AX will form     1 AO Fock derivatives at one time.
 LinEq1:  Iter=  1 NonCon=     1 RMS=5.77D-03 Max=1.18D-01 NDo=     1
 LinEq1:  Iter=  2 NonCon=     1 RMS=5.25D-03 Max=1.92D-01 NDo=     1
 LinEq1:  Iter=  3 NonCon=     1 RMS=2.28D-03 Max=5.16D-02 NDo=     1
 LinEq1:  Iter=  4 NonCon=     1 RMS=1.78D-03 Max=5.61D-02 NDo=     1
 LinEq1:  Iter=  5 NonCon=     1 RMS=8.10D-04 Max=1.60D-02 NDo=     1
 LinEq1:  Iter=  6 NonCon=     1 RMS=5.81D-04 Max=1.88D-02 NDo=     1
 LinEq1:  Iter=  7 NonCon=     1 RMS=2.52D-04 Max=6.35D-03 NDo=     1
 LinEq1:  Iter=  8 NonCon=     1 RMS=1.61D-04 Max=3.03D-03 NDo=     1
 LinEq1:  Iter=  9 NonCon=     1 RMS=7.71D-05 Max=2.18D-03 NDo=     1
 LinEq1:  Iter= 10 NonCon=     1 RMS=4.33D-05 Max=8.81D-04 NDo=     1
 LinEq1:  Iter= 11 NonCon=     1 RMS=2.49D-05 Max=5.94D-04 NDo=     1
 LinEq1:  Iter= 12 NonCon=     1 RMS=1.33D-05 Max=2.84D-04 NDo=     1
 LinEq1:  Iter= 13 NonCon=     1 RMS=4.43D-06 Max=1.07D-04 NDo=     1
 LinEq1:  Iter= 14 NonCon=     1 RMS=2.75D-06 Max=4.29D-05 NDo=     1
 LinEq1:  Iter= 15 NonCon=     1 RMS=5.08D-07 Max=1.14D-05 NDo=     1
 LinEq1:  Iter= 16 NonCon=     1 RMS=1.20D-07 Max=2.52D-06 NDo=     1
 LinEq1:  Iter= 17 NonCon=     1 RMS=8.41D-08 Max=1.56D-06 NDo=     1
 LinEq1:  Iter= 18 NonCon=     1 RMS=2.58D-08 Max=5.82D-07 NDo=     1
 LinEq1:  Iter= 19 NonCon=     1 RMS=4.50D-09 Max=5.03D-08 NDo=     1
 LinEq1:  Iter= 20 NonCon=     1 RMS=1.09D-09 Max=1.27D-08 NDo=     1
 LinEq1:  Iter= 21 NonCon=     1 RMS=3.02D-10 Max=3.97D-09 NDo=     1
 LinEq1:  Iter= 22 NonCon=     0 RMS=8.27D-11 Max=8.52D-10 NDo=     1
 Linear equations converged to 1.000D-10 1.000D-09 after    22 iterations.
 End of Minotr F.D. properties file   721 does not exist.
 End of Minotr F.D. properties file   722 does not exist.
 End of Minotr F.D. properties file   788 does not exist.
 Calling FoFJK, ICntrl=  10005127 FMM=F ISym2X=0 I1Cent= 0 IOpClX= 0 NMat=1 NMatS=1 NMatT=0.
 ***** Axes restored to original set *****
 -------------------------------------------------------------------
 Center     Atomic                   Forces (Hartrees/Bohr)
 Number     Number              X              Y              Z
 -------------------------------------------------------------------
      1        6          -0.001321028   -0.012119554   -0.000003485
      2        6          -0.002565764    0.013834493   -0.000000004
      3        6           0.007217269   -0.012120396    0.000002847
      4        6          -0.010439141    0.011602861   -0.000004463
      5        6           0.005091260   -0.009703358   -0.000010812
      6        6           0.003512486    0.010044155   -0.000002247
      7        7           0.013645285    0.005287969    0.000037398
      8        6          -0.012066754    0.013017877    0.000007842
      9        6          -0.002307631   -0.019440870   -0.000021194
     10        1          -0.000755398   -0.001152089   -0.000012116
     11        1           0.000732283    0.000528364    0.000002364
     12        1          -0.001049954    0.000715491    0.000000410
     13        1           0.000842615   -0.001313250    0.000001017
     14        1          -0.000966468    0.001041605   -0.000001459
     15        1           0.000453526    0.000967471    0.000001101
     16        1          -0.000022589   -0.001190769    0.000002801
 -------------------------------------------------------------------
 Cartesian Forces:  Max     0.019440870 RMS     0.006367795

 GradGradGradGradGradGradGradGradGradGradGradGradGradGradGradGradGradGrad
 Berny optimization.
 Using GEDIIS/GDIIS optimizer.
 FormGI is forming the generalized inverse of G from B-inverse, IUseBI=4.
 Internal  Forces:  Max     0.011800821 RMS     0.002645564
 Search for a local minimum.
 Step number   2 out of a maximum of   94
 All quantities printed in internal units (Hartrees-Bohrs-Radians)
 Mixed Optimization -- RFO/linear search
 Update second derivatives using D2CorX and points    1    2
 DE= -1.10D-02 DEPred=-1.04D-02 R= 1.06D+00
 TightC=F SS=  1.41D+00  RLast= 2.15D-01 DXNew= 5.0454D-01 6.4369D-01
 Trust test= 1.06D+00 RLast= 2.15D-01 DXMaxT set to 5.05D-01
 ITU=  1  0
 Use linear search instead of GDIIS.
     Eigenvalues ---    0.01852   0.01931   0.01986   0.02011   0.02069
     Eigenvalues ---    0.02113   0.02146   0.02150   0.02172   0.02210
     Eigenvalues ---    0.02234   0.02248   0.02341   0.15965   0.16000
     Eigenvalues ---    0.16000   0.16000   0.16000   0.16000   0.16024
     Eigenvalues ---    0.20748   0.22005   0.23871   0.24380   0.24679
     Eigenvalues ---    0.35648   0.35714   0.35787   0.35842   0.36119
     Eigenvalues ---    0.36466   0.36548   0.38630   0.40702   0.42802
     Eigenvalues ---    0.44074   0.46094   0.46983   0.47172   0.47656
     Eigenvalues ---    0.49118   0.53085
 RFO step:  Lambda=-1.73113817D-03 EMin= 1.85234670D-02
 Quartic linear search produced a step of  0.14663.
 Iteration  1 RMS(Cart)=  0.00931224 RMS(Int)=  0.00006482
 Iteration  2 RMS(Cart)=  0.00011508 RMS(Int)=  0.00001767
 Iteration  3 RMS(Cart)=  0.00000000 RMS(Int)=  0.00001767
 Variable       Old X    -DE/DX   Delta X   Delta X   Delta X     New X
                                 (Linear)    (Quad)   (Total)
    R1        2.63616  -0.00610  -0.00283  -0.01445  -0.01731   2.61885
    R2        2.69175   0.00340   0.01156   0.00341   0.01494   2.70669
    R3        2.05329   0.00005   0.00133  -0.00036   0.00097   2.05426
    R4        2.72169   0.00476   0.01556   0.00516   0.02072   2.74241
    R5        2.05287  -0.00007   0.00128  -0.00071   0.00057   2.05344
    R6        2.65788  -0.00117   0.00354  -0.00421  -0.00065   2.65724
    R7        2.05408  -0.00107   0.00128  -0.00392  -0.00264   2.05144
    R8        2.66474  -0.00349  -0.00232  -0.00890  -0.01122   2.65352
    R9        2.64552   0.00563   0.00649   0.00967   0.01619   2.66170
   R10        2.69911  -0.00047   0.00754  -0.00417   0.00337   2.70248
   R11        2.71887  -0.00570   0.00154  -0.01609  -0.01458   2.70429
   R12        2.05418  -0.00119   0.00131  -0.00431  -0.00300   2.05117
   R13        2.58205  -0.01096  -0.00347  -0.02406  -0.02750   2.55455
   R14        1.91205   0.00087   0.00244   0.00115   0.00359   1.91564
   R15        2.66795   0.01180   0.01309   0.02141   0.03449   2.70243
   R16        2.04463   0.00075   0.00153   0.00174   0.00327   2.04790
   R17        2.04242  -0.00112   0.00119  -0.00399  -0.00280   2.03962
    A1        2.12131   0.00184   0.00104   0.00951   0.01050   2.13181
    A2        2.07512   0.00018  -0.00070   0.00309   0.00242   2.07753
    A3        2.08676  -0.00202  -0.00035  -0.01259  -0.01292   2.07384
    A4        2.11589   0.00250   0.00010   0.01340   0.01347   2.12936
    A5        2.07989   0.00035  -0.00055   0.00483   0.00429   2.08418
    A6        2.08740  -0.00285   0.00045  -0.01823  -0.01776   2.06964
    A7        2.03387  -0.00553  -0.00258  -0.02693  -0.02948   2.00438
    A8        2.12648   0.00180   0.00202   0.00637   0.00839   2.13486
    A9        2.12284   0.00372   0.00055   0.02055   0.02109   2.14394
   A10        2.14928   0.00352   0.00226   0.01650   0.01879   2.16807
   A11        2.26536  -0.00410  -0.00199  -0.01730  -0.01932   2.24603
   A12        1.86855   0.00058  -0.00026   0.00080   0.00053   1.86908
   A13        2.08875   0.00198   0.00235   0.00822   0.01061   2.09935
   A14        1.84984   0.00204  -0.00225   0.01051   0.00821   1.85805
   A15        2.34460  -0.00402  -0.00010  -0.01873  -0.01882   2.32578
   A16        2.05728  -0.00431  -0.00317  -0.02070  -0.02389   2.03339
   A17        2.11678   0.00210   0.00201   0.00982   0.01184   2.12862
   A18        2.10912   0.00221   0.00115   0.01088   0.01205   2.12117
   A19        1.95216  -0.00092   0.00656  -0.00851  -0.00189   1.95027
   A20        2.17159  -0.00056  -0.00273  -0.00320  -0.00596   2.16563
   A21        2.15944   0.00148  -0.00383   0.01170   0.00785   2.16729
   A22        1.90579  -0.00316   0.00529  -0.01554  -0.01028   1.89552
   A23        2.20173   0.00210  -0.00226   0.01131   0.00906   2.21079
   A24        2.17566   0.00106  -0.00303   0.00423   0.00121   2.17687
   A25        1.84843   0.00146  -0.00934   0.01274   0.00343   1.85186
   A26        2.13183  -0.00013   0.00430  -0.00195   0.00233   2.13416
   A27        2.30292  -0.00133   0.00504  -0.01078  -0.00576   2.29717
    D1        0.00001   0.00000   0.00000  -0.00001  -0.00000   0.00000
    D2       -3.14155  -0.00000   0.00000  -0.00004  -0.00004  -3.14158
    D3        3.14155   0.00000   0.00000   0.00006   0.00006  -3.14157
    D4        0.00000   0.00000   0.00000   0.00003   0.00003   0.00003
    D5        0.00007   0.00000   0.00001   0.00003   0.00004   0.00011
    D6        3.14152   0.00000  -0.00000   0.00009   0.00009  -3.14158
    D7       -3.14148  -0.00000   0.00001  -0.00004  -0.00002  -3.14150
    D8       -0.00003   0.00000  -0.00000   0.00002   0.00002  -0.00001
    D9       -0.00009  -0.00000  -0.00002  -0.00000  -0.00002  -0.00011
   D10       -3.14144   0.00000   0.00001   0.00001   0.00003  -3.14141
   D11        3.14146   0.00000  -0.00002   0.00003   0.00001   3.14148
   D12        0.00011   0.00000   0.00002   0.00005   0.00006   0.00017
   D13        0.00010  -0.00000   0.00002  -0.00002   0.00000   0.00010
   D14       -3.14146  -0.00000  -0.00000  -0.00003  -0.00003  -3.14149
   D15        3.14145  -0.00000  -0.00002  -0.00003  -0.00005   3.14140
   D16       -0.00011  -0.00000  -0.00004  -0.00004  -0.00008  -0.00019
   D17       -0.00003   0.00000   0.00000   0.00004   0.00004   0.00001
   D18       -3.14157  -0.00000  -0.00001  -0.00003  -0.00004   3.14158
   D19        3.14154   0.00000   0.00002   0.00005   0.00006  -3.14158
   D20       -0.00000   0.00000   0.00001  -0.00002  -0.00002  -0.00002
   D21       -3.14138  -0.00000  -0.00002  -0.00020  -0.00023   3.14158
   D22       -0.00108   0.00001   0.00001   0.00030   0.00030  -0.00078
   D23        0.00024  -0.00000  -0.00004  -0.00021  -0.00025  -0.00001
   D24        3.14054   0.00001  -0.00001   0.00029   0.00028   3.14081
   D25       -0.00006  -0.00000  -0.00002  -0.00005  -0.00006  -0.00012
   D26       -3.14151  -0.00000  -0.00000  -0.00010  -0.00010   3.14157
   D27        3.14147   0.00000  -0.00000   0.00005   0.00004   3.14151
   D28        0.00002  -0.00000   0.00001  -0.00001   0.00000   0.00002
   D29       -0.00023   0.00001   0.00003   0.00024   0.00027   0.00004
   D30        3.14140   0.00000   0.00000   0.00006   0.00006   3.14146
   D31        3.14142   0.00000   0.00001   0.00016   0.00017  -3.14159
   D32       -0.00014   0.00000  -0.00001  -0.00002  -0.00003  -0.00017
   D33       -0.00038   0.00001   0.00006   0.00036   0.00041   0.00004
   D34        3.14150   0.00000   0.00003   0.00015   0.00018  -3.14151
   D35       -3.14069  -0.00000   0.00003  -0.00013  -0.00010  -3.14079
   D36        0.00119  -0.00001  -0.00000  -0.00033  -0.00034   0.00085
   D37        0.00037  -0.00001  -0.00005  -0.00036  -0.00041  -0.00004
   D38       -3.14155  -0.00000  -0.00002  -0.00013  -0.00015   3.14149
   D39       -3.14126  -0.00000  -0.00003  -0.00019  -0.00022  -3.14147
   D40        0.00001   0.00000   0.00001   0.00005   0.00005   0.00006
         Item               Value     Threshold  Converged?
 Maximum Force            0.011801     0.000450     NO 
 RMS     Force            0.002646     0.000300     NO 
 Maximum Displacement     0.029179     0.001800     NO 
 RMS     Displacement     0.009371     0.001200     NO 
 Predicted change in Energy=-1.027935D-03
 GradGradGradGradGradGradGradGradGradGradGradGradGradGradGradGradGradGrad

                          Input orientation:                          
 ---------------------------------------------------------------------
 Center     Atomic      Atomic             Coordinates (Angstroms)
 Number     Number       Type             X           Y           Z
 ---------------------------------------------------------------------
      1          6           0       -2.191152    0.683950   -0.000005
      2          6           0       -2.162094   -0.701582    0.000003
      3          6           0       -0.915581   -1.444716    0.000106
      4          6           0        0.245272   -0.651195    0.000055
      5          6           0        0.241988    0.752985    0.000034
      6          6           0       -0.994632    1.471273    0.000082
      7          7           0        1.592551   -1.061983    0.000017
      8          6           0        1.613446    1.161636    0.000004
      9          6           0        2.437732   -0.006971   -0.000043
     10          1           0        1.891045   -2.030752    0.000675
     11          1           0        1.985459    2.179486   -0.000133
[...]
 ! D9    D(1,2,3,4)              0.0            -DE/DX =    0.0                 !
 ! D10   D(1,2,3,14)          -179.9902         -DE/DX =    0.0                 !
 ! D11   D(13,2,3,4)           179.9994         -DE/DX =    0.0                 !
 ! D12   D(13,2,3,14)            0.0092         -DE/DX =    0.0                 !
 ! D13   D(2,3,4,5)             -0.0012         -DE/DX =    0.0                 !
 ! D14   D(2,3,4,7)           -179.9984         -DE/DX =    0.0                 !
 ! D15   D(14,3,4,5)           179.9888         -DE/DX =    0.0                 !
 ! D16   D(14,3,4,7)            -0.0083         -DE/DX =    0.0                 !
 ! D17   D(3,4,5,6)              0.0018         -DE/DX =    0.0                 !
 ! D18   D(3,4,5,8)            180.0042         -DE/DX =    0.0                 !
 ! D19   D(7,4,5,6)           -180.0005         -DE/DX =    0.0                 !
 ! D20   D(7,4,5,8)              0.0019         -DE/DX =    0.0                 !
 ! D21   D(3,4,7,9)            180.0093         -DE/DX =    0.0                 !
 ! D22   D(3,4,7,10)            -0.0104         -DE/DX =    0.0                 !
 ! D23   D(5,4,7,9)              0.0117         -DE/DX =    0.0                 !
 ! D24   D(5,4,7,10)           179.9921         -DE/DX =    0.0                 !
 ! D25   D(4,5,6,1)             -0.0011         -DE/DX =    0.0                 !
 ! D26   D(4,5,6,16)           179.9998         -DE/DX =    0.0                 !
 ! D27   D(8,5,6,1)            179.9959         -DE/DX =    0.0                 !
 ! D28   D(8,5,6,16)            -0.0033         -DE/DX =    0.0                 !
 ! D29   D(4,5,8,9)             -0.0138         -DE/DX =    0.0                 !
 ! D30   D(4,5,8,11)           179.9994         -DE/DX =    0.0                 !
 ! D31   D(6,5,8,9)           -180.011          -DE/DX =    0.0                 !
 ! D32   D(6,5,8,11)             0.0021         -DE/DX =    0.0                 !
 ! D33   D(4,7,9,8)             -0.0201         -DE/DX =    0.0                 !
 ! D34   D(4,7,9,12)          -180.009          -DE/DX =    0.0                 !
 ! D35   D(10,7,9,8)          -180.0002         -DE/DX =    0.0                 !
 ! D36   D(10,7,9,12)            0.0109         -DE/DX =    0.0                 !
 ! D37   D(5,8,9,7)              0.0208         -DE/DX =    0.0                 !
 ! D38   D(5,8,9,12)           180.0085         -DE/DX =    0.0                 !
 ! D39   D(11,8,9,7)          -179.992          -DE/DX =    0.0                 !
 ! D40   D(11,8,9,12)           -0.0043         -DE/DX =    0.0                 !
 --------------------------------------------------------------------------------
 GradGradGradGradGradGradGradGradGradGradGradGradGradGradGradGradGradGrad

                          Input orientation:                          
 ---------------------------------------------------------------------
 Center     Atomic      Atomic             Coordinates (Angstroms)
 Number     Number       Type             X           Y           Z
 ---------------------------------------------------------------------
      1          6           0       -2.187081    0.686213    0.000040
      2          6           0       -2.155578   -0.700361    0.000078
      3          6           0       -0.918573   -1.451269    0.000082
      4          6           0        0.241185   -0.652099    0.000044
      5          6           0        0.238502    0.747577   -0.000019
      6          6           0       -0.992534    1.473556   -0.000011
      7          7           0        1.597893   -1.062316    0.000006
      8          6           0        1.608714    1.162284   -0.000140
      9          6           0        2.433290   -0.009171    0.000179
     10          1           0        1.892971   -2.030881    0.000155
     11          1           0        1.984627    2.177319   -0.000223
     12          1           0        3.508058   -0.114684    0.000324
     13          1           0       -3.091977   -1.252778    0.000096
     14          1           0       -0.897702   -2.534735   -0.000045
     15          1           0       -3.149594    1.191343    0.000025
     16          1           0       -1.015296    2.557449   -0.000056
 ---------------------------------------------------------------------
                    Distance matrix (angstroms):
                    1          2          3          4          5
     1  C    0.000000
     2  C    1.386932   0.000000
     3  C    2.485546   1.447081   0.000000
     4  C    2.772644   2.397248   1.408443   0.000000
     5  C    2.426359   2.797882   2.484703   1.399679   0.000000
     6  C    1.430682   2.465479   2.925760   2.457737   1.429158
     7  N    4.169338   3.770882   2.546348   1.417369   2.263550
     8  C    3.825533   4.199921   3.635635   2.272031   1.431595
     9  C    4.672407   4.640630   3.648922   2.284443   2.321586
    10  H    4.901982   4.261576   2.870668   2.151613   3.233744
    11  H    4.430185   5.042057   4.647066   3.323431   2.256792
    12  H    5.751178   5.693838   4.624016   3.310782   3.381345
    13  H    2.139748   1.087202   2.182449   3.386855   3.885037
    14  H    3.469438   2.224225   1.083666   2.200314   3.473404
    15  H    1.087009   2.136963   3.458447   3.859490   3.417034
    16  H    2.207851   3.451604   4.009885   3.446729   2.201736
                    6          7          8          9         10
     6  C    0.000000
     7  N    3.625046   0.000000
     8  C    2.619806   2.224627   0.000000
     9  C    3.732927   1.344248   1.432561   0.000000
    10  H    4.539517   1.012516   3.205793   2.092668   0.000000
    11  H    3.059210   3.262637   1.082407   2.232047   4.209198
    12  H    4.772613   2.132309   2.288702   1.079935   2.506057
    13  H    3.441011   4.693736   5.284792   5.663491   5.045310
    14  H    4.009412   2.897587   4.466550   4.180189   2.835794
    15  H    2.175443   5.255246   4.758397   5.710501   5.984162
    16  H    1.084132   4.464466   2.971853   4.298870   5.432384
                   11         12         13         14         15
    11  H    0.000000
    12  H    2.752112   0.000000
    13  H    6.126783   6.697442   0.000000
    14  H    5.523700   5.026666   2.541310   0.000000
    15  H    5.228037   6.784544   2.444800   4.353696   0.000000
    16  H    3.023910   5.253668   4.339405   5.093541   2.534063
                   16
    16  H    0.000000
 Stoichiometry    C8H7N
 Framework group  C1[X(C8H7N)]
 Deg. of freedom    42
 Full point group                 C1      NOp   1
 Largest Abelian subgroup         C1      NOp   1
 Largest concise Abelian subgroup C1      NOp   1
                         Standard orientation:                         
 ---------------------------------------------------------------------
 Center     Atomic      Atomic             Coordinates (Angstroms)
 Number     Number       Type             X           Y           Z
 ---------------------------------------------------------------------
      1          6           0       -2.197604    0.651370    0.000010
      2          6           0       -2.145062   -0.734566    0.000048
      3          6           0       -0.896805   -1.466615    0.000052
      4          6           0        0.250692   -0.649937    0.000015
      5          6           0        0.226768    0.749537   -0.000049
      6          6           0       -1.015143    1.456750   -0.000041
      7          7           0        1.613469   -1.039518   -0.000023
      8          6           0        1.590529    1.184990   -0.000169
      9          6           0        2.432787    0.026184    0.000150
     10          1           0        1.923212   -2.003493    0.000125
     11          1           0        1.950994    2.205613   -0.000253
     12          1           0        3.509033   -0.063006    0.000294
     13          1           0       -3.072971   -1.301130    0.000066
     14          1           0       -0.859494   -2.549639   -0.000075
     15          1           0       -3.167672    1.141835   -0.000004
     16          1           0       -1.054351    2.540173   -0.000086
 ---------------------------------------------------------------------
 Rotational constants (GHZ):           3.8381881           1.6000423           1.1292761

 **********************************************************************

            Population analysis using the CI Density.

 **********************************************************************

 Orbital symmetries:
       Occupied  (A) (A) (A) (A) (A) (A) (A) (A) (A) (A) (A) (A)
                 (A) (A) (A) (A) (A) (A) (A) (A) (A) (A) (A) (A)
                 (A) (A) (A) (A) (A) (A) (A)
       Virtual   (A) (A) (A) (A) (A) (A) (A) (A) (A) (A) (A) (A)
                 (A) (A) (A) (A) (A) (A) (A) (A) (A) (A) (A) (A)
                 (A) (A) (A) (A) (A) (A) (A) (A) (A) (A) (A) (A)
                 (A) (A) (A) (A) (A) (A) (A) (A) (A) (A) (A) (A)
                 (A) (A) (A) (A) (A) (A) (A) (A) (A) (A) (A) (A)
                 (A) (A) (A) (A) (A) (A) (A) (A) (A) (A) (A) (A)
                 (A) (A) (A) (A) (A) (A) (A) (A) (A) (A) (A) (A)
                 (A) (A) (A) (A) (A) (A) (A) (A) (A) (A) (A) (A)
                 (A) (A) (A) (A) (A) (A) (A) (A) (A) (A) (A) (A)
                 (A) (A) (A) (A) (A) (A) (A) (A) (A) (A) (A) (A)
                 (A) (A) (A) (A) (A) (A) (A) (A) (A) (A) (A) (A)
                 (A) (A) (A) (A) (A) (A) (A) (A) (A) (A) (A) (A)
                 (A) (A) (A) (A) (A) (A) (A) (A) (A) (A)
 The electronic state is 1-A.
 Alpha  occ. eigenvalues --  -14.38952 -10.23150 -10.22739 -10.20382 -10.19679
 Alpha  occ. eigenvalues --  -10.19356 -10.19207 -10.18974 -10.18162  -0.98545
 Alpha  occ. eigenvalues --   -0.83914  -0.77698  -0.74246  -0.71081  -0.63135
 Alpha  occ. eigenvalues --   -0.59840  -0.57971  -0.54430  -0.48718  -0.47652
 Alpha  occ. eigenvalues --   -0.44137  -0.43665  -0.42300  -0.40703  -0.39609
 Alpha  occ. eigenvalues --   -0.35577  -0.34890  -0.33636  -0.27473  -0.23621
 Alpha  occ. eigenvalues --   -0.19874
 Alpha virt. eigenvalues --   -0.03061  -0.00495   0.01469   0.01614   0.02155
 Alpha virt. eigenvalues --    0.03545   0.03723   0.03931   0.05700   0.05993
 Alpha virt. eigenvalues --    0.06418   0.06493   0.08407   0.08641   0.10437
 Alpha virt. eigenvalues --    0.10614   0.10896   0.12541   0.13248   0.13537
 Alpha virt. eigenvalues --    0.15105   0.15464   0.16314   0.16343   0.17305
 Alpha virt. eigenvalues --    0.17693   0.18492   0.18524   0.19526   0.19541
 Alpha virt. eigenvalues --    0.19931   0.20109   0.21527   0.21878   0.22931
 Alpha virt. eigenvalues --    0.23180   0.23365   0.24208   0.25002   0.25884
 Alpha virt. eigenvalues --    0.26756   0.27191   0.27750   0.28751   0.29746
 Alpha virt. eigenvalues --    0.30067   0.31502   0.33057   0.34699   0.35019
 Alpha virt. eigenvalues --    0.36373   0.38932   0.41731   0.44627   0.50117
 Alpha virt. eigenvalues --    0.57154   0.59670   0.66821   0.67042   0.69443
 Alpha virt. eigenvalues --    0.71313   0.71981   0.72244   0.72866   0.72997
 Alpha virt. eigenvalues --    0.75056   0.75108   0.76964   0.77993   0.78620
 Alpha virt. eigenvalues --    0.80474   0.84639   0.88106   0.88688   0.89548
 Alpha virt. eigenvalues --    0.93190   0.94064   0.94746   0.95453   0.97563
 Alpha virt. eigenvalues --    0.99194   1.02387   1.04111   1.05356   1.08671
 Alpha virt. eigenvalues --    1.11070   1.12259   1.16655   1.17115   1.20524
 Alpha virt. eigenvalues --    1.21915   1.24131   1.24258   1.31031   1.32295
 Alpha virt. eigenvalues --    1.34926   1.35376   1.39395   1.40655   1.42878
 Alpha virt. eigenvalues --    1.47092   1.47623   1.48979   1.50079   1.53595
 Alpha virt. eigenvalues --    1.57343   1.62330   1.78638   1.81444   1.86474
 Alpha virt. eigenvalues --    1.89346   1.89520   1.92456   1.98337   1.98914
 Alpha virt. eigenvalues --    2.00229   2.02587   2.05807   2.11415   2.15237
 Alpha virt. eigenvalues --    2.16193   2.19094   2.21404   2.23841   2.26666
 Alpha virt. eigenvalues --    2.27260   2.29837   2.36077   2.38964   2.44966
 Alpha virt. eigenvalues --    2.51060   2.54069   2.60745   2.63547   2.64888
 Alpha virt. eigenvalues --    2.66011   2.72518   2.78466   2.81964   2.83398
 Alpha virt. eigenvalues --    2.93334   2.97122   3.06356   3.21570   3.38675
 Alpha virt. eigenvalues --    4.13987   4.23152   4.27276   4.30658   4.34506
 Alpha virt. eigenvalues --    4.39051   4.46488   4.50958   4.76276
          Condensed to atoms (all electrons):
               1          2          3          4          5          6
     1  C    5.485664   0.523556   0.229102  -0.319547  -0.239368  -0.080545
     2  C    0.523556   5.714943  -0.325746   0.234968  -0.394435   0.539779
     3  C    0.229102  -0.325746  14.024282  -1.950837  -4.624854  -2.744303
     4  C   -0.319547   0.234968  -1.950837  14.154608  -4.383873  -1.977478
     5  C   -0.239368  -0.394435  -4.624854  -4.383873  16.744839   0.290526
     6  C   -0.080545   0.539779  -2.744303  -1.977478   0.290526  13.016854
     7  N   -0.017642   0.006037  -0.435843  -0.403107   0.853524   0.098507
     8  C    0.187954  -0.321957   3.322390   2.208270  -5.863916  -3.558927
     9  C   -0.078686   0.036491  -1.120793  -0.711077   1.958465   0.918275
    10  H   -0.003918  -0.004953  -0.134899  -0.086889   0.194834   0.024656
    11  H    0.001197   0.000809   0.007442   0.048431  -0.078646  -0.001795
    12  H    0.000840   0.000039   0.025459   0.088332  -0.077137  -0.018841
    13  H   -0.006755   0.294278  -0.039633   0.023906  -0.002722   0.026241
    14  H    0.025284   0.002198   0.287091  -0.023218   0.026833  -0.022105
    15  H    0.299241  -0.008079   0.027316  -0.020068   0.035307  -0.040850
    16  H   -0.011537   0.026251  -0.043667   0.035198   0.038730   0.306274
               7          8          9         10         11         12
     1  C   -0.017642   0.187954  -0.078686  -0.003918   0.001197   0.000840
     2  C    0.006037  -0.321957   0.036491  -0.004953   0.000809   0.000039
     3  C   -0.435843   3.322390  -1.120793  -0.134899   0.007442   0.025459
     4  C   -0.403107   2.208270  -0.711077  -0.086889   0.048431   0.088332
     5  C    0.853524  -5.863916   1.958465   0.194834  -0.078646  -0.077137
     6  C    0.098507  -3.558927   0.918275   0.024656  -0.001795  -0.018841
     7  N    7.167832  -0.638443   0.560361   0.262319   0.007337  -0.053014
     8  C   -0.638443  12.443750  -2.146968  -0.001620   0.368932  -0.005647
     9  C    0.560361  -2.146968   6.545926  -0.027711  -0.061197   0.350567
    10  H    0.262319  -0.001620  -0.027711   0.345433  -0.000086  -0.002595
    11  H    0.007337   0.368932  -0.061197  -0.000086   0.490635  -0.000624
    12  H   -0.053014  -0.005647   0.350567  -0.002595  -0.000624   0.474967
    13  H   -0.000435  -0.002040   0.001602  -0.000002  -0.000000  -0.000000
    14  H   -0.006535  -0.008937   0.007811   0.002214   0.000002   0.000002
    15  H    0.000240   0.002756  -0.000066  -0.000000  -0.000002  -0.000000
    16  H   -0.000799  -0.067149   0.004251   0.000004   0.001552  -0.000001
              13         14         15         16
     1  C   -0.006755   0.025284   0.299241  -0.011537
     2  C    0.294278   0.002198  -0.008079   0.026251
     3  C   -0.039633   0.287091   0.027316  -0.043667
     4  C    0.023906  -0.023218  -0.020068   0.035198
     5  C   -0.002722   0.026833   0.035307   0.038730
     6  C    0.026241  -0.022105  -0.040850   0.306274
     7  N   -0.000435  -0.006535   0.000240  -0.000799
     8  C   -0.002040  -0.008937   0.002756  -0.067149
     9  C    0.001602   0.007811  -0.000066   0.004251
    10  H   -0.000002   0.002214  -0.000000   0.000004
    11  H   -0.000000   0.000002  -0.000002   0.001552
    12  H   -0.000000   0.000002  -0.000000  -0.000001
    13  H    0.546222  -0.003747  -0.005533  -0.000145
    14  H   -0.003747   0.541175  -0.000135   0.000014
    15  H   -0.005533  -0.000135   0.546987  -0.003684
    16  H   -0.000145   0.000014  -0.003684   0.539415
 Mulliken charges:
               1
     1  C    0.005162
     2  C   -0.324179
     3  C   -0.502506
     4  C   -0.917619
     5  C    1.521894
     6  C   -0.776270
     7  N   -0.400339
     8  C    0.081552
     9  C   -0.237252
    10  H    0.433215
    11  H    0.216011
    12  H    0.217653
    13  H    0.168761
    14  H    0.172054
    15  H    0.166570
    16  H    0.175293
 Sum of Mulliken charges =  -0.00000
 Mulliken charges with hydrogens summed into heavy atoms:
               1
     1  C    0.171731
     2  C   -0.155418
     3  C   -0.330452
     4  C   -0.917619
     5  C    1.521894
     6  C   -0.600976
     7  N    0.032875
     8  C    0.297563
     9  C   -0.019599
 Electronic spatial extent (au):  <R**2>=           1029.6234
 Charge=             -0.0000 electrons
 Dipole moment (field-independent basis, Debye):
    X=              4.8429    Y=             -1.1348    Z=             -0.0006  Tot=              4.9741
 Quadrupole moment (field-independent basis, Debye-Ang):
   XX=            -44.5825   YY=            -47.4503   ZZ=            -60.8698
   XY=             -2.1423   XZ=              0.0001   YZ=              0.0003
 Traceless Quadrupole moment (field-independent basis, Debye-Ang):
   XX=              6.3850   YY=              3.5173   ZZ=             -9.9023
   XY=             -2.1423   XZ=              0.0001   YZ=              0.0003
 Octapole moment (field-independent basis, Debye-Ang**2):
  XXX=             31.4219  YYY=             -8.3789  ZZZ=             -0.0049  XYY=             17.1523
  XXY=             -6.7617  XXZ=              0.0001  XZZ=              6.0388  YZZ=             -1.0954
  YYZ=             -0.0057  XYZ=             -0.0009
 Hexadecapole moment (field-independent basis, Debye-Ang**3):
 XXXX=           -855.7612 YYYY=           -412.8430 ZZZZ=            -89.3375 XXXY=            -17.0336
 XXXZ=             -0.0016 YYYX=            -15.2888 YYYZ=              0.0132 ZZZX=             -0.0066
 ZZZY=              0.0147 XXYY=           -202.5918 XXZZ=           -203.1663 YYZZ=           -108.3433
 XXYZ=              0.0023 YYXZ=             -0.0006 ZZXY=             -1.7571
 N-N= 3.968241073763D+02 E-N=-1.635668124919D+03  KE= 3.601159745032D+02
 Unable to Open any file for archive entry.
 1\1\GINC-EXP-1-49\FOpt\RB3LYP TD-FC\6-31+G(d)\C8H7N1\CWALDT\24-Jun-202
 1\0\\# td= (nstates=6, root=1) B3LYP/6-31+G* Opt density=current Empir
 icalDispersion=GD3\\FuncsB3LYP-V-1st\\0,1\C,-2.1870811296,0.6862126035
 ,0.0000399566\C,-2.1555777902,-0.7003611915,0.0000779755\C,-0.91857336
 16,-1.4512692075,0.0000821356\C,0.2411846757,-0.6520990803,0.000044335
 4\C,0.238501839,0.7475774121,-0.0000190548\C,-0.9925340791,1.473555685
 7,-0.0000110904\N,1.5978927659,-1.0623163265,0.000006242\C,1.608713980
 9,1.1622841603,-0.0001396581\C,2.4332897551,-0.0091708326,0.00017935\H
 ,1.8929710431,-2.030881341,0.0001545904\H,1.9846266077,2.1773187139,-0
 .0002229219\H,3.5080581614,-0.1146836805,0.0003242122\H,-3.0919771945,
 -1.2527782018,0.0000960162\H,-0.8977023887,-2.5347345636,-0.0000451442
 \H,-3.1495941516,1.1913428637,0.0000254064\H,-1.0152957334,2.557448986
 2,-0.0000563506\\Version=AS64L-G16RevC.01\State=1-A\HF=-363.8300298\RM
 SD=5.489e-09\RMSF=5.436e-05\Dipole=1.9053349,-0.4464687,-0.0002241\Qua
 drupole=4.7471054,2.6150132,-7.3621186,-1.5927438,0.0000767,0.00022\PG
 =C01 [X(C8H7N1)]\\@
 The archive entry for this job was punched.


 HE THAT RISETH LATE MUST TROT ALL DAY.

                  -- BENJAMIN FRANKLIN
 Job cpu time:       0 days  1 hours 47 minutes 55.5 seconds.
 Elapsed time:       0 days  0 hours 27 minutes 26.6 seconds.
 File lengths (MBytes):  RWF=    238 Int=      0 D2E=      0 Chk=     11 Scr=      1
 Normal termination of Gaussian 16 at Thu Jun 24 14:13:34 2021.
