 Entering Gaussian System, Link 0=/cm/shared/apps/spack/cpu/opt/spack/linux-centos8-zen/gcc-8.3.1/gaussian-16.C.01-po5bqktfeugvmjyga3v7eigbecnokxng/g16/g16
 Initial command:
 /cm/shared/apps/spack/cpu/opt/spack/linux-centos8-zen/gcc-8.3.1/gaussian-16.C.01-po5bqktfeugvmjyga3v7eigbecnokxng/g16/l1.exe "/scratch/scaparas/job_3318859/Gau-58372.inp" -scrdir="/scratch/scaparas/job_3318859/"
 Entering Link 1 = /cm/shared/apps/spack/cpu/opt/spack/linux-centos8-zen/gcc-8.3.1/gaussian-16.C.01-po5bqktfeugvmjyga3v7eigbecnokxng/g16/l1.exe PID=     58373.
  
 Copyright (c) 1988-2019, Gaussian, Inc.  All Rights Reserved.
  
 This is part of the Gaussian(R) 16 program.  It is based on
 the Gaussian(R) 09 system (copyright 2009, Gaussian, Inc.),
 the Gaussian(R) 03 system (copyright 2003, Gaussian, Inc.),
 the Gaussian(R) 98 system (copyright 1998, Gaussian, Inc.),
 the Gaussian(R) 94 system (copyright 1995, Gaussian, Inc.),
 the Gaussian 92(TM) system (copyright 1992, Gaussian, Inc.),
 the Gaussian 90(TM) system (copyright 1990, Gaussian, Inc.),
 the Gaussian 88(TM) system (copyright 1988, Gaussian, Inc.),
 the Gaussian 86(TM) system (copyright 1986, Carnegie Mellon
 University), and the Gaussian 82(TM) system (copyright 1983,
 Carnegie Mellon University). Gaussian is a federally registered
 trademark of Gaussian, Inc.
  
 This software contains proprietary and confidential information,
 including trade secrets, belonging to Gaussian, Inc.
  
 This software is provided under written license and may be
 used, copied, transmitted, or stored only in accord with that
 written license.
  
 The following legend is applicable only to US Government
 contracts under FAR:
  
                    RESTRICTED RIGHTS LEGEND
  
 Use, reproduction and disclosure by the US Government is
 subject to restrictions as set forth in subparagraphs (a)
 and (c) of the Commercial Computer Software - Restricted
 Rights clause in FAR 52.227-19.
  
 Gaussian, Inc.
 340 Quinnipiac St., Bldg. 40, Wallingford CT 06492
  
  
 ---------------------------------------------------------------
 Warning -- This program may not be used in any manner that
 competes with the business of Gaussian, Inc. or will provide
 assistance to any competitor of Gaussian, Inc.  The licensee
 of this program is prohibited from giving any competitor of
 Gaussian, Inc. access to this program.  By using this program,
 the user acknowledges that Gaussian, Inc. is engaged in the
 business of creating and licensing software in the field of
 computational chemistry and represents and warrants to the
 licensee that it is not a competitor of Gaussian, Inc. and that
 it will not use this program in any manner prohibited above.
 ---------------------------------------------------------------
  

 Cite this work as:
 Gaussian 16, Revision C.01,
 M. J. Frisch, G. W. Trucks, H. B. Schlegel, G. E. Scuseria, 
 M. A. Robb, J. R. Cheeseman, G. Scalmani, V. Barone, 
 G. A. Petersson, H. Nakatsuji, X. Li, M. Caricato, A. V. Marenich, 
 J. Bloino, B. G. Janesko, R. Gomperts, B. Mennucci, H. P. Hratchian, 
 J. V. Ortiz, A. F. Izmaylov, J. L. Sonnenberg, D. Williams-Young, 
 F. Ding, F. Lipparini, F. Egidi, J. Goings, B. Peng, A. Petrone, 
 T. Henderson, D. Ranasinghe, V. G. Zakrzewski, J. Gao, N. Rega, 
 G. Zheng, W. Liang, M. Hada, M. Ehara, K. Toyota, R. Fukuda, 
 J. Hasegawa, M. Ishida, T. Nakajima, Y. Honda, O. Kitao, H. Nakai, 
 T. Vreven, K. Throssell, J. A. Montgomery, Jr., J. E. Peralta, 
 F. Ogliaro, M. J. Bearpark, J. J. Heyd, E. N. Brothers, K. N. Kudin, 
 V. N. Staroverov, T. A. Keith, R. Kobayashi, J. Normand, 
 K. Raghavachari, A. P. Rendell, J. C. Burant, S. S. Iyengar, 
 J. Tomasi, M. Cossi, J. M. Millam, M. Klene, C. Adamo, R. Cammi, 
 J. W. Ochterski, R. L. Martin, K. Morokuma, O. Farkas, 
 J. B. Foresman, and D. J. Fox, Gaussian, Inc., Wallingford CT, 2019.
 
 ******************************************
 Gaussian 16:  AS64L-G16RevC.01  3-Jul-2019
                 9-Jun-2021 
 ******************************************
 %NProcShared=4
 Will use up to    4 processors via shared memory.
 %Chk=FuncsWB97X.chk
 ---------------------------------------------------------
 # td= (nstates=6, root=2) M06/6-31+G* Opt density=current
 ---------------------------------------------------------
 1/18=20,19=15,26=3,38=1/1,3;
 2/9=110,12=2,17=6,18=5,40=1/2;
 3/5=1,6=6,7=11,11=9,25=1,30=1,71=1,74=-54/1,2,3,8;
 4//1;
 5/5=2,38=5/2;
 8/6=1,10=2,107=2,108=6/1;
 9/8=2,15=2,41=6,42=1,70=2/14;
 10/5=4,28=2/2;
 6/7=2,8=2,9=2,10=2,22=-1/1;
 7/12=6,13=5,14=2/1,2,3,16;
 1/18=20,19=15,26=3/3(2);
 2/9=110/2;
 99//99;
 2/9=110/2;
 3/5=1,6=6,7=11,11=9,25=1,30=1,71=1,74=-54/1,2,3,8;
 4/5=5,16=3,69=1/1;
 5/5=2,38=5/2;
 8/6=1,10=2,107=2,108=6/1;
 9/8=2,15=2,41=6,42=1,49=4,70=2/14;
 10/5=4,28=2/2;
 7/12=6,13=5,14=2/1,2,3,16;
 1/18=20,19=15,26=3/3(-8);
 2/9=110/2;
 6/7=2,8=2,9=2,10=2,22=-1/1;
 99/9=10/99;
 -----------
 FuncsM062nd
 -----------
 Symbolic Z-matrix:
 Charge =  0 Multiplicity = 1
 C                    -2.15886   0.68918   0.02974 
 C                    -2.1332   -0.71621  -0.0157 
 C                    -0.93572  -1.41751  -0.00819 
 C                     0.2487   -0.67115   0.00319 
 C                     0.25025   0.7522   -0.00266 
 C                    -0.98322   1.4256   -0.0173 
 N                     1.5657   -1.08029   0.00974 
 C                     1.62609   1.16684  -0.00626 
 C                     2.39038   0.03059   0.00688 
 H                     1.87967  -2.03756   0.01447 
 H                     1.9972    2.18233  -0.0192 
 H                     3.46481  -0.08787   0.00753 
 H                    -3.075    -1.264    -0.03434 
 H                    -0.91687  -2.50699  -0.02386 
 H                    -3.12254   1.20382   0.09559 
 H                    -1.01374   2.5151   -0.04664 
 

 GradGradGradGradGradGradGradGradGradGradGradGradGradGradGradGradGradGrad
 Berny optimization.
 Initialization pass.
                           ----------------------------
                           !    Initial Parameters    !
                           ! (Angstroms and Degrees)  !
 --------------------------                            --------------------------
 ! Name  Definition              Value          Derivative Info.                !
 --------------------------------------------------------------------------------
 ! R1    R(1,2)                  1.4064         estimate D2E/DX2                !
 ! R2    R(1,6)                  1.388          estimate D2E/DX2                !
 ! R3    R(1,15)                 1.0945         estimate D2E/DX2                !
 ! R4    R(2,3)                  1.3877         estimate D2E/DX2                !
 ! R5    R(2,13)                 1.0897         estimate D2E/DX2                !
 ! R6    R(3,4)                  1.4            estimate D2E/DX2                !
 ! R7    R(3,14)                 1.0898         estimate D2E/DX2                !
 ! R8    R(4,5)                  1.4234         estimate D2E/DX2                !
 ! R9    R(4,7)                  1.3791         estimate D2E/DX2                !
 ! R10   R(5,6)                  1.4054         estimate D2E/DX2                !
 ! R11   R(5,8)                  1.437          estimate D2E/DX2                !
 ! R12   R(6,16)                 1.0903         estimate D2E/DX2                !
 ! R13   R(7,9)                  1.3835         estimate D2E/DX2                !
 ! R14   R(7,10)                 1.0075         estimate D2E/DX2                !
 ! R15   R(8,9)                  1.3694         estimate D2E/DX2                !
 ! R16   R(8,11)                 1.0813         estimate D2E/DX2                !
 ! R17   R(9,12)                 1.0809         estimate D2E/DX2                !
 ! A1    A(2,1,6)              120.9061         estimate D2E/DX2                !
 ! A2    A(2,1,15)             119.2028         estimate D2E/DX2                !
 ! A3    A(6,1,15)             119.8895         estimate D2E/DX2                !
 ! A4    A(1,2,3)              121.3707         estimate D2E/DX2                !
 ! A5    A(1,2,13)             119.153          estimate D2E/DX2                !
 ! A6    A(3,2,13)             119.4616         estimate D2E/DX2                !
 ! A7    A(2,3,4)              117.4292         estimate D2E/DX2                !
 ! A8    A(2,3,14)             121.3371         estimate D2E/DX2                !
 ! A9    A(4,3,14)             121.2289         estimate D2E/DX2                !
 ! A10   A(3,4,5)              122.2756         estimate D2E/DX2                !
 ! A11   A(3,4,7)              130.5258         estimate D2E/DX2                !
 ! A12   A(5,4,7)              107.1964         estimate D2E/DX2                !
 ! A13   A(4,5,6)              118.5703         estimate D2E/DX2                !
 ! A14   A(4,5,8)              106.8342         estimate D2E/DX2                !
 ! A15   A(6,5,8)              134.5914         estimate D2E/DX2                !
 ! A16   A(1,6,5)              119.2617         estimate D2E/DX2                !
 ! A17   A(1,6,16)             120.4875         estimate D2E/DX2                !
 ! A18   A(5,6,16)             120.2412         estimate D2E/DX2                !
 ! A19   A(4,7,9)              109.3301         estimate D2E/DX2                !
 ! A20   A(4,7,10)             125.4173         estimate D2E/DX2                !
 ! A21   A(9,7,10)             125.2525         estimate D2E/DX2                !
 ! A22   A(5,8,9)              107.1528         estimate D2E/DX2                !
 ! A23   A(5,8,11)             126.8451         estimate D2E/DX2                !
 ! A24   A(9,8,11)             126.002          estimate D2E/DX2                !
 ! A25   A(7,9,8)              109.4848         estimate D2E/DX2                !
 ! A26   A(7,9,12)             120.2971         estimate D2E/DX2                !
 ! A27   A(8,9,12)             130.2163         estimate D2E/DX2                !
 ! D1    D(6,1,2,3)              4.8678         estimate D2E/DX2                !
 ! D2    D(6,1,2,13)          -176.5353         estimate D2E/DX2                !
 ! D3    D(15,1,2,3)          -175.5899         estimate D2E/DX2                !
 ! D4    D(15,1,2,13)            3.0069         estimate D2E/DX2                !
 ! D5    D(2,1,6,5)             -5.0972         estimate D2E/DX2                !
 ! D6    D(2,1,6,16)           176.0299         estimate D2E/DX2                !
 ! D7    D(15,1,6,5)           175.3637         estimate D2E/DX2                !
 ! D8    D(15,1,6,16)           -3.5093         estimate D2E/DX2                !
 ! D9    D(1,2,3,4)             -1.9941         estimate D2E/DX2                !
 ! D10   D(1,2,3,14)           178.7955         estimate D2E/DX2                !
 ! D11   D(13,2,3,4)           179.4132         estimate D2E/DX2                !
 ! D12   D(13,2,3,14)            0.2029         estimate D2E/DX2                !
 ! D13   D(2,3,4,5)             -0.4651         estimate D2E/DX2                !
 ! D14   D(2,3,4,7)           -179.8522         estimate D2E/DX2                !
 ! D15   D(14,3,4,5)           178.7462         estimate D2E/DX2                !
 ! D16   D(14,3,4,7)            -0.641          estimate D2E/DX2                !
 ! D17   D(3,4,5,6)              0.1482         estimate D2E/DX2                !
 ! D18   D(3,4,5,8)           -179.2217         estimate D2E/DX2                !
 ! D19   D(7,4,5,6)            179.6606         estimate D2E/DX2                !
 ! D20   D(7,4,5,8)              0.2907         estimate D2E/DX2                !
 ! D21   D(3,4,7,9)            179.3989         estimate D2E/DX2                !
 ! D22   D(3,4,7,10)            -0.5167         estimate D2E/DX2                !
 ! D23   D(5,4,7,9)             -0.0587         estimate D2E/DX2                !
 ! D24   D(5,4,7,10)          -179.9743         estimate D2E/DX2                !
 ! D25   D(4,5,6,1)              2.618          estimate D2E/DX2                !
 ! D26   D(4,5,6,16)          -178.5062         estimate D2E/DX2                !
 ! D27   D(8,5,6,1)           -178.2289         estimate D2E/DX2                !
 ! D28   D(8,5,6,16)             0.6469         estimate D2E/DX2                !
 ! D29   D(4,5,8,9)             -0.4171         estimate D2E/DX2                !
 ! D30   D(4,5,8,11)           179.4533         estimate D2E/DX2                !
 ! D31   D(6,5,8,9)           -179.64           estimate D2E/DX2                !
 ! D32   D(6,5,8,11)             0.2304         estimate D2E/DX2                !
 ! D33   D(4,7,9,8)             -0.2113         estimate D2E/DX2                !
 ! D34   D(4,7,9,12)          -179.7792         estimate D2E/DX2                !
 ! D35   D(10,7,9,8)           179.7044         estimate D2E/DX2                !
 ! D36   D(10,7,9,12)            0.1366         estimate D2E/DX2                !
 ! D37   D(5,8,9,7)              0.3888         estimate D2E/DX2                !
 ! D38   D(5,8,9,12)           179.9002         estimate D2E/DX2                !
 ! D39   D(11,8,9,7)          -179.483          estimate D2E/DX2                !
 ! D40   D(11,8,9,12)            0.0284         estimate D2E/DX2                !
 --------------------------------------------------------------------------------
 Trust Radius=3.00D-01 FncErr=1.00D-07 GrdErr=1.00D-06 EigMax=2.50D+02 EigMin=1.00D-04
 Number of steps in this run=     94 maximum allowed number of steps=    100.
 GradGradGradGradGradGradGradGradGradGradGradGradGradGradGradGradGradGrad

                          Input orientation:                          
 ---------------------------------------------------------------------
 Center     Atomic      Atomic             Coordinates (Angstroms)
 Number     Number       Type             X           Y           Z
 ---------------------------------------------------------------------
      1          6           0       -2.158860    0.689180    0.029740
      2          6           0       -2.133200   -0.716210   -0.015700
      3          6           0       -0.935720   -1.417510   -0.008190
      4          6           0        0.248700   -0.671150    0.003190
      5          6           0        0.250250    0.752200   -0.002660
      6          6           0       -0.983220    1.425600   -0.017300
      7          7           0        1.565700   -1.080290    0.009740
      8          6           0        1.626090    1.166840   -0.006260
      9          6           0        2.390380    0.030590    0.006880
     10          1           0        1.879670   -2.037560    0.014470
     11          1           0        1.997200    2.182330   -0.019200
     12          1           0        3.464810   -0.087870    0.007530
     13          1           0       -3.075000   -1.264000   -0.034340
     14          1           0       -0.916870   -2.506990   -0.023860
     15          1           0       -3.122540    1.203820    0.095590
     16          1           0       -1.013740    2.515100   -0.046640
 ---------------------------------------------------------------------
                    Distance matrix (angstroms):
                    1          2          3          4          5
     1  C    0.000000
     2  C    1.406359   0.000000
     3  C    2.436320   1.387745   0.000000
     4  C    2.765420   2.382401   1.400012   0.000000
     5  C    2.410152   2.799506   2.472690   1.423363   0.000000
     6  C    1.388041   2.431009   2.843521   2.431955   1.405393
     7  N    4.123563   3.716862   2.524112   1.379104   2.255789
     8  C    3.815141   4.204548   3.638920   2.296846   1.436967
     9  C    4.596721   4.584866   3.627694   2.253718   2.258532
    10  H    4.872891   4.224926   2.882949   2.127737   3.230799
    11  H    4.416416   5.045964   4.643381   3.346655   2.257738
    12  H    5.677144   5.633211   4.597048   3.268577   3.322532
    13  H    2.158317   1.089683   2.144940   3.376368   3.888876
    14  H    3.429419   2.164814   1.089756   2.174763   3.461927
    15  H    1.094472   2.162798   3.415307   3.858667   3.404310
    16  H    2.156645   3.419870   3.933572   3.427598   2.169659
                    6          7          8          9         10
     6  C    0.000000
     7  N    3.574522   0.000000
     8  C    2.622132   2.247998   0.000000
     9  C    3.650728   1.383532   1.369444   0.000000
    10  H    4.493398   1.007455   3.214485   2.130288   0.000000
    11  H    3.074987   3.291158   1.081254   2.187523   4.221661
    12  H    4.698529   2.142784   2.226068   1.080941   2.512769
    13  H    3.407313   4.644544   5.292449   5.616764   5.014931
    14  H    3.933155   2.863522   4.468107   4.168712   2.835925
    15  H    2.153746   5.215757   4.749866   5.637076   5.961143
    16  H    1.090322   4.425327   2.964479   4.214699   5.394652
                   11         12         13         14         15
    11  H    0.000000
    12  H    2.703406   0.000000
    13  H    6.132262   6.644859   0.000000
    14  H    5.521010   5.005222   2.490514   0.000000
    15  H    5.213674   6.713375   2.471695   4.318490   0.000000
    16  H    3.029397   5.180328   4.304711   5.023076   2.487312
                   16
    16  H    0.000000
 Stoichiometry    C8H7N
 Framework group  C1[X(C8H7N)]
 Deg. of freedom    42
 Full point group                 C1      NOp   1
 Largest Abelian subgroup         C1      NOp   1
 Largest concise Abelian subgroup C1      NOp   1
                         Standard orientation:                         
 ---------------------------------------------------------------------
 Center     Atomic      Atomic             Coordinates (Angstroms)
 Number     Number       Type             X           Y           Z
 ---------------------------------------------------------------------
      1          6           0       -2.158858    0.689183    0.029741
      2          6           0       -2.133200   -0.716207   -0.015699
      3          6           0       -0.935722   -1.417509   -0.008189
      4          6           0        0.248700   -0.671151    0.003191
      5          6           0        0.250252    0.752199   -0.002659
      6          6           0       -0.983217    1.425601   -0.017299
      7          7           0        1.565699   -1.080293    0.009741
      8          6           0        1.626093    1.166837   -0.006259
      9          6           0        2.390381    0.030585    0.006881
     10          1           0        1.879667   -2.037564    0.014471
     11          1           0        1.997205    2.182326   -0.019199
     12          1           0        3.464811   -0.087877    0.007531
     13          1           0       -3.075001   -1.263995   -0.034339
     14          1           0       -0.916873   -2.506989   -0.023859
     15          1           0       -3.122537    1.203825    0.095591
     16          1           0       -1.013735    2.515101   -0.046639
 ---------------------------------------------------------------------
 Rotational constants (GHZ):           3.8861076           1.6317910           1.1494058
 Standard basis: 6-31+G(d) (6D, 7F)
 There are   185 symmetry adapted cartesian basis functions of A   symmetry.
 There are   185 symmetry adapted basis functions of A   symmetry.
   185 basis functions,   316 primitive gaussians,   185 cartesian basis functions
    31 alpha electrons       31 beta electrons
       nuclear repulsion energy       400.0099183022 Hartrees.
 NAtoms=   16 NActive=   16 NUniq=   16 SFac= 1.00D+00 NAtFMM=   60 NAOKFM=F Big=F
 Integral buffers will be    131072 words long.
 Regular integral format.
 Two-electron integral symmetry is turned on.
 One-electron integrals computed using PRISM.
 NBasis=   185 RedAO= T EigKep=  1.37D-06  NBF=   185
 NBsUse=   185 1.00D-06 EigRej= -1.00D+00 NBFU=   185
 ExpMin= 4.38D-02 ExpMax= 4.17D+03 ExpMxC= 6.27D+02 IAcc=3 IRadAn=         5 AccDes= 0.00D+00
 Harris functional with IExCor= 1009 and IRadAn=       5 diagonalized for initial guess.
 HarFok:  IExCor= 1009 AccDes= 0.00D+00 IRadAn=         5 IDoV= 1 UseB2=F ITyADJ=14
 ICtDFT=  3500011 ScaDFX=  1.000000  1.000000  1.000000  1.000000
 FoFCou: FMM=F IPFlag=           0 FMFlag=      100000 FMFlg1=           0
         NFxFlg=           0 DoJE=T BraDBF=F KetDBF=T FulRan=T
         wScrn=  0.000000 ICntrl=       500 IOpCl=  0 I1Cent=   200000004 NGrid=           0
         NMat0=    1 NMatS0=      1 NMatT0=    0 NMatD0=    1 NMtDS0=    0 NMtDT0=    0
 Petite list used in FoFCou.
 Requested convergence on RMS density matrix=1.00D-08 within 128 cycles.
 Requested convergence on MAX density matrix=1.00D-06.
 Requested convergence on             energy=1.00D-06.
 No special actions if energy rises.
 SCF Done:  E(RM06) =  -363.550676085     A.U. after   15 cycles
            NFock= 15  Conv=0.83D-08     -V/T= 2.0115
 DoSCS=F DFT=T ScalE2(SS,OS)=  1.000000  1.000000
 ExpMin= 4.38D-02 ExpMax= 4.17D+03 ExpMxC= 6.27D+02 IAcc=3 IRadAn=         5 AccDes= 0.00D+00
 HarFok:  IExCor=  205 AccDes= 0.00D+00 IRadAn=         5 IDoV=-2 UseB2=F ITyADJ=14
 ICtDFT= 12500011 ScaDFX=  1.000000  1.000000  1.000000  1.000000
 Range of M.O.s used for correlation:    10   185
 NBasis=   185 NAE=    31 NBE=    31 NFC=     9 NFV=     0
 NROrb=    176 NOA=    22 NOB=    22 NVA=   154 NVB=   154

 **** Warning!!: The largest alpha MO coefficient is  0.17598385D+03

 Orbital symmetries:
       Occupied  (A) (A) (A) (A) (A) (A) (A) (A) (A) (A) (A) (A)
                 (A) (A) (A) (A) (A) (A) (A) (A) (A) (A) (A) (A)
                 (A) (A) (A) (A) (A) (A) (A)
       Virtual   (A) (A) (A) (A) (A) (A) (A) (A) (A) (A) (A) (A)
                 (A) (A) (A) (A) (A) (A) (A) (A) (A) (A) (A) (A)
                 (A) (A) (A) (A) (A) (A) (A) (A) (A) (A) (A) (A)
                 (A) (A) (A) (A) (A) (A) (A) (A) (A) (A) (A) (A)
                 (A) (A) (A) (A) (A) (A) (A) (A) (A) (A) (A) (A)
                 (A) (A) (A) (A) (A) (A) (A) (A) (A) (A) (A) (A)
                 (A) (A) (A) (A) (A) (A) (A) (A) (A) (A) (A) (A)
                 (A) (A) (A) (A) (A) (A) (A) (A) (A) (A) (A) (A)
                 (A) (A) (A) (A) (A) (A) (A) (A) (A) (A) (A) (A)
                 (A) (A) (A) (A) (A) (A) (A) (A) (A) (A) (A) (A)
                 (A) (A) (A) (A) (A) (A) (A) (A) (A) (A) (A) (A)
                 (A) (A) (A) (A) (A) (A) (A) (A) (A) (A) (A) (A)
                 (A) (A) (A) (A) (A) (A) (A) (A) (A) (A)
    24 initial guesses have been made.
 Convergence on wavefunction:    0.000001000000000
 Iteration     1 Dimension    24 NMult     0 NNew     24
 CISAX will form    24 AO SS matrices at one time.
 New state      3 was old state      4
 New state      4 was old state      5
 New state      5 was old state      6
 New state      6 was old state      3
 Iteration     2 Dimension    36 NMult    24 NNew     12
 New state      3 was old state      6
 New state      4 was old state      3
 New state      6 was old state      4
 Iteration     3 Dimension    48 NMult    36 NNew     12
 New state      2 was old state      3
 New state      3 was old state      2
 Iteration     4 Dimension    60 NMult    48 NNew     12
 Iteration     5 Dimension    72 NMult    60 NNew     12
 Iteration     6 Dimension    84 NMult    72 NNew     12
 Iteration     7 Dimension    96 NMult    84 NNew     12
 Iteration     8 Dimension   108 NMult    96 NNew     12
 Iteration     9 Dimension   120 NMult   108 NNew     12
 Iteration    10 Dimension   128 NMult   120 NNew      8
 Iteration    11 Dimension   132 NMult   128 NNew      4
 ***********************************************************************
 Excited states from <AA,BB:AA,BB> singles matrix:
 ***********************************************************************
 
 Ground to excited state transition densities written to RWF  633
 Ground to excited state transition electric dipole moments (Au):
       state          X           Y           Z        Dip. S.      Osc.
         1        -0.0030     -0.0021     -0.0885      0.0078      0.0008
         2        -0.5935      0.6201     -0.0193      0.7372      0.0845
         3         0.0935     -0.1115     -0.0822      0.0279      0.0032
         4        -0.5023     -0.1350     -0.0040      0.2705      0.0318
         5         0.2511      0.0492     -0.0284      0.0663      0.0078
         6         0.0900      0.0071      0.0462      0.0103      0.0012
 Ground to excited state transition velocity dipole moments (Au):
       state          X           Y           Z        Dip. S.      Osc.
         1         0.0006     -0.0000      0.0059      0.0000      0.0001
         2         0.0975     -0.1172      0.0043      0.0233      0.0903
         3        -0.0152      0.0214      0.0176      0.0010      0.0039
         4         0.0863      0.0255      0.0011      0.0081      0.0306
         5        -0.0435     -0.0092      0.0065      0.0020      0.0076
         6        -0.0162     -0.0015     -0.0068      0.0003      0.0011
 Ground to excited state transition magnetic dipole moments (Au):
       state          X           Y           Z
         1         0.1121     -0.0393     -0.0029
         2         0.0117     -0.0248      0.1638
         3         0.0058     -0.1680     -0.0223
         4         0.0777     -0.0550     -0.0675
         5         0.1136     -0.1590      0.0295
         6         0.1399      0.1595      0.0131
 Ground to excited state transition velocity quadrupole moments (Au):
       state          XX          YY          ZZ          XY          XZ          YZ
         1        -0.0041     -0.0002     -0.0031      0.0094      0.0380      0.0423
         2         0.2326     -0.1324      0.0210      0.0354      0.0147      0.0047
         3        -0.0452      0.0319     -0.0006     -0.0106      0.1020     -0.0407
         4         0.0566     -0.0960      0.0188     -0.0141      0.0625      0.0700
         5        -0.0453      0.0453     -0.0043      0.0056      0.1635      0.1213
         6        -0.0180      0.0267      0.0005      0.0122     -0.1124      0.0657
 <0|del|b> * <b|rxdel|0> + <0|del|b> * <b|delr+rdel|0>
 Rotatory Strengths (R) in cgs (10**-40 erg-esu-cm/Gauss)
       state          XX          YY          ZZ    R(velocity)    E-M Angle
         1         0.0878      0.0481      0.0960      0.0773       90.00
         2        11.2831      4.4135      3.8486      6.5151       79.19
         3       -13.0272      0.6639     -4.3456     -5.5697      139.46
         4        -6.1879     25.4641      1.7201      6.9988       60.12
         5         6.3689    -20.0594      0.5834     -4.3690      111.73
         6        -1.1145     -6.5439     -2.4924     -3.3836      133.70
 1/2[<0|r|b>*<b|rxdel|0> + (<0|rxdel|b>*<b|r|0>)*]
 Rotatory Strengths (R) in cgs (10**-40 erg-esu-cm/Gauss)
       state          XX          YY          ZZ     R(length)
         1         0.2391     -0.0588     -0.1797      0.0002
         2         4.9110     10.8947      2.2306      6.0121
         3        -0.3853    -13.2402     -1.2949     -4.9734
         4        27.6166     -5.2455     -0.1915      7.3932
         5       -20.1690      5.5380      0.5919     -4.6797
         6        -8.9001     -0.8008     -0.4281     -3.3764
  1/2[<0|del|b>*<b|r|0> + (<0|r|b>*<b|del|0>)*] (Au)
       state          X           Y           Z        Dip. S.   Osc.(frdel)
         1        -0.0000      0.0000     -0.0005      0.0005      0.0003
         2        -0.0579     -0.0727     -0.0001      0.1307      0.0871
         3        -0.0014     -0.0024     -0.0014      0.0053      0.0035
         4        -0.0433     -0.0034     -0.0000      0.0468      0.0312
         5        -0.0109     -0.0005     -0.0002      0.0116      0.0077
         6        -0.0015     -0.0000     -0.0003      0.0018      0.0012

 Excitation energies and oscillator strengths:
 
 Excited State   1:      Singlet-A      4.2213 eV  293.71 nm  f=0.0008  <S**2>=0.000
      31 -> 32         0.70398
 
 Excited State   2:      Singlet-A      4.6767 eV  265.11 nm  f=0.0845  <S**2>=0.000
      30 -> 32         0.11585
      30 -> 33        -0.11123
      30 -> 38         0.17300
      31 -> 33         0.65588
 This state for optimization and/or second-order correction.
 Total Energy, E(TD-HF/TD-DFT) =  -363.378809469    
 Copying the excited state density for this state as the 1-particle RhoCI density.
 
 Excited State   3:      Singlet-A      4.6936 eV  264.15 nm  f=0.0032  <S**2>=0.000
      30 -> 32         0.68750
      31 -> 33        -0.10841
 
 Excited State   4:      Singlet-A      4.7956 eV  258.54 nm  f=0.0318  <S**2>=0.000
      30 -> 33         0.52467
      31 -> 34         0.27917
      31 -> 38        -0.34030
 
 Excited State   5:      Singlet-A      4.8235 eV  257.04 nm  f=0.0078  <S**2>=0.000
      30 -> 33        -0.22765
      31 -> 34         0.64126
      31 -> 38         0.15046
 
 Excited State   6:      Singlet-A      4.8918 eV  253.45 nm  f=0.0012  <S**2>=0.000
      31 -> 35         0.69634
 SavETr:  write IOETrn=   770 NScale= 10 NData=  16 NLR=1 NState=    6 LETran=     118.
          IDoAtm=1111111111111111
          Differentiating once with respect to electric field.
                with respect to dipole field.
          Differentiating once with respect to nuclear coordinates.
          There are     1 degrees of freedom in the 1st order CPHF.  IDoFFX=0 NUNeed=     1.
 LinEq1:  Iter=  0 NonCon=     1 RMS=8.97D-03 Max=2.27D-01 NDo=     1
 AX will form     1 AO Fock derivatives at one time.
 LinEq1:  Iter=  1 NonCon=     1 RMS=4.39D-03 Max=1.09D-01 NDo=     1
 LinEq1:  Iter=  2 NonCon=     1 RMS=2.96D-03 Max=6.87D-02 NDo=     1
 LinEq1:  Iter=  3 NonCon=     1 RMS=1.25D-03 Max=2.64D-02 NDo=     1
 LinEq1:  Iter=  4 NonCon=     1 RMS=7.68D-04 Max=2.23D-02 NDo=     1
 LinEq1:  Iter=  5 NonCon=     1 RMS=4.49D-04 Max=1.01D-02 NDo=     1
 LinEq1:  Iter=  6 NonCon=     1 RMS=2.90D-04 Max=8.68D-03 NDo=     1
 LinEq1:  Iter=  7 NonCon=     1 RMS=1.13D-04 Max=2.53D-03 NDo=     1
 LinEq1:  Iter=  8 NonCon=     1 RMS=8.99D-05 Max=1.60D-03 NDo=     1
 LinEq1:  Iter=  9 NonCon=     1 RMS=3.15D-05 Max=6.37D-04 NDo=     1
 LinEq1:  Iter= 10 NonCon=     1 RMS=2.17D-05 Max=6.04D-04 NDo=     1
 LinEq1:  Iter= 11 NonCon=     1 RMS=7.91D-06 Max=1.15D-04 NDo=     1
 LinEq1:  Iter= 12 NonCon=     1 RMS=5.30D-06 Max=7.81D-05 NDo=     1
 LinEq1:  Iter= 13 NonCon=     1 RMS=2.04D-06 Max=2.68D-05 NDo=     1
 LinEq1:  Iter= 14 NonCon=     1 RMS=7.05D-07 Max=9.74D-06 NDo=     1
 LinEq1:  Iter= 15 NonCon=     1 RMS=4.67D-07 Max=9.27D-06 NDo=     1
 LinEq1:  Iter= 16 NonCon=     1 RMS=1.16D-07 Max=1.30D-06 NDo=     1
 LinEq1:  Iter= 17 NonCon=     1 RMS=4.83D-08 Max=5.12D-07 NDo=     1
 LinEq1:  Iter= 18 NonCon=     1 RMS=1.45D-08 Max=2.97D-07 NDo=     1
 LinEq1:  Iter= 19 NonCon=     1 RMS=8.54D-09 Max=1.47D-07 NDo=     1
 LinEq1:  Iter= 20 NonCon=     1 RMS=1.98D-09 Max=2.92D-08 NDo=     1
 LinEq1:  Iter= 21 NonCon=     1 RMS=5.47D-10 Max=7.78D-09 NDo=     1
 LinEq1:  Iter= 22 NonCon=     1 RMS=1.04D-10 Max=1.24D-09 NDo=     1
 LinEq1:  Iter= 23 NonCon=     0 RMS=2.44D-11 Max=2.13D-10 NDo=     1
 Linear equations converged to 1.000D-10 1.000D-09 after    23 iterations.
 End of Minotr F.D. properties file   721 does not exist.
 End of Minotr F.D. properties file   722 does not exist.
 End of Minotr F.D. properties file   788 does not exist.

 **********************************************************************

            Population analysis using the CI Density.

 **********************************************************************

 Orbital symmetries:
       Occupied  (A) (A) (A) (A) (A) (A) (A) (A) (A) (A) (A) (A)
                 (A) (A) (A) (A) (A) (A) (A) (A) (A) (A) (A) (A)
                 (A) (A) (A) (A) (A) (A) (A)
       Virtual   (A) (A) (A) (A) (A) (A) (A) (A) (A) (A) (A) (A)
                 (A) (A) (A) (A) (A) (A) (A) (A) (A) (A) (A) (A)
                 (A) (A) (A) (A) (A) (A) (A) (A) (A) (A) (A) (A)
                 (A) (A) (A) (A) (A) (A) (A) (A) (A) (A) (A) (A)
                 (A) (A) (A) (A) (A) (A) (A) (A) (A) (A) (A) (A)
                 (A) (A) (A) (A) (A) (A) (A) (A) (A) (A) (A) (A)
                 (A) (A) (A) (A) (A) (A) (A) (A) (A) (A) (A) (A)
                 (A) (A) (A) (A) (A) (A) (A) (A) (A) (A) (A) (A)
                 (A) (A) (A) (A) (A) (A) (A) (A) (A) (A) (A) (A)
                 (A) (A) (A) (A) (A) (A) (A) (A) (A) (A) (A) (A)
                 (A) (A) (A) (A) (A) (A) (A) (A) (A) (A) (A) (A)
                 (A) (A) (A) (A) (A) (A) (A) (A) (A) (A) (A) (A)
                 (A) (A) (A) (A) (A) (A) (A) (A) (A) (A)
 The electronic state is 1-A.
 Alpha  occ. eigenvalues --  -14.46012 -10.29566 -10.29403 -10.26357 -10.25960
 Alpha  occ. eigenvalues --  -10.25902 -10.25880 -10.25428 -10.25027  -0.99732
 Alpha  occ. eigenvalues --   -0.85303  -0.79636  -0.74800  -0.72934  -0.63620
 Alpha  occ. eigenvalues --   -0.60642  -0.59272  -0.55083  -0.49258  -0.48187
 Alpha  occ. eigenvalues --   -0.44839  -0.43985  -0.43846  -0.42303  -0.40268
 Alpha  occ. eigenvalues --   -0.36777  -0.34904  -0.34576  -0.29263  -0.23585
 Alpha  occ. eigenvalues --   -0.22000
 Alpha virt. eigenvalues --   -0.03166  -0.01565  -0.01299  -0.00883   0.00314
 Alpha virt. eigenvalues --    0.00573   0.01978   0.02823   0.02927   0.03354
 Alpha virt. eigenvalues --    0.03872   0.04164   0.06266   0.06596   0.06940
 Alpha virt. eigenvalues --    0.07209   0.09398   0.10002   0.10905   0.11716
 Alpha virt. eigenvalues --    0.11979   0.12172   0.13128   0.13447   0.15123
 Alpha virt. eigenvalues --    0.15508   0.15962   0.16636   0.17396   0.17546
 Alpha virt. eigenvalues --    0.17906   0.18893   0.19190   0.19929   0.20637
 Alpha virt. eigenvalues --    0.20865   0.21661   0.21931   0.23241   0.23579
 Alpha virt. eigenvalues --    0.24452   0.24858   0.25635   0.26770   0.27926
 Alpha virt. eigenvalues --    0.29109   0.29546   0.30669   0.32124   0.35150
 Alpha virt. eigenvalues --    0.35319   0.38755   0.42891   0.43520   0.50298
 Alpha virt. eigenvalues --    0.56918   0.61554   0.65305   0.66100   0.68094
 Alpha virt. eigenvalues --    0.69906   0.69995   0.71592   0.72039   0.72584
 Alpha virt. eigenvalues --    0.73296   0.74305   0.75900   0.77163   0.78304
 Alpha virt. eigenvalues --    0.79976   0.83502   0.86627   0.87297   0.88121
 Alpha virt. eigenvalues --    0.90139   0.90596   0.92291   0.95417   0.95683
 Alpha virt. eigenvalues --    0.98062   1.00386   1.02451   1.04139   1.08451
 Alpha virt. eigenvalues --    1.10090   1.10517   1.15517   1.16725   1.18963
 Alpha virt. eigenvalues --    1.21094   1.23817   1.24943   1.28932   1.32168
 Alpha virt. eigenvalues --    1.33622   1.34945   1.39111   1.40424   1.42087
 Alpha virt. eigenvalues --    1.45821   1.46257   1.49250   1.50564   1.52058
 Alpha virt. eigenvalues --    1.56103   1.62019   1.77103   1.82151   1.85290
 Alpha virt. eigenvalues --    1.87301   1.87906   1.88455   1.92956   1.94890
 Alpha virt. eigenvalues --    1.99113   2.04208   2.06929   2.11018   2.14438
 Alpha virt. eigenvalues --    2.15007   2.15723   2.23134   2.23959   2.24401
 Alpha virt. eigenvalues --    2.25407   2.29457   2.35938   2.38849   2.40790
 Alpha virt. eigenvalues --    2.51000   2.53862   2.60836   2.63298   2.64250
 Alpha virt. eigenvalues --    2.66612   2.71134   2.78134   2.80368   2.83303
 Alpha virt. eigenvalues --    2.92497   2.94266   3.05712   3.21974   3.39210
 Alpha virt. eigenvalues --    4.13211   4.21893   4.24909   4.28453   4.32004
 Alpha virt. eigenvalues --    4.36280   4.43969   4.48328   4.74308
          Condensed to atoms (all electrons):
               1          2          3          4          5          6
     1  C    8.025572  -0.288452   1.130885  -2.293838  -0.751218  -1.093666
     2  C   -0.288452   9.502413  -1.778246  -0.431085  -0.540529  -1.066370
     3  C    1.130885  -1.778246  20.195316  -5.374117  -4.432263  -4.284809
     4  C   -2.293838  -0.431085  -5.374117  18.816274  -2.543934   0.960589
     5  C   -0.751218  -0.540529  -4.432263  -2.543934  21.133863  -3.358191
     6  C   -1.093666  -1.066370  -4.284809   0.960589  -3.358191  17.347524
     7  N   -0.009464  -0.033296  -0.127578  -0.346120   0.638171   0.173486
     8  C    1.458169   1.367726   1.450202  -3.295122  -9.164678  -3.222438
     9  C   -0.561750  -0.543187  -0.786125   1.512423   3.521012   1.068678
    10  H   -0.002012  -0.009713  -0.151264  -0.033271   0.159192   0.016109
    11  H    0.004673   0.001290  -0.002786  -0.017606   0.091045   0.053088
    12  H    0.002141  -0.000452   0.046708   0.126592  -0.156128  -0.021440
    13  H    0.054611   0.185862   0.029068   0.019526   0.002759   0.010137
    14  H   -0.019110   0.115168  -0.142024   0.320764   0.001700   0.019451
    15  H    0.223820   0.036138   0.036487  -0.038597   0.052466  -0.020191
    16  H    0.091778  -0.004880  -0.007774  -0.005678   0.243380  -0.024542
               7          8          9         10         11         12
     1  C   -0.009464   1.458169  -0.561750  -0.002012   0.004673   0.002141
     2  C   -0.033296   1.367726  -0.543187  -0.009713   0.001290  -0.000452
     3  C   -0.127578   1.450202  -0.786125  -0.151264  -0.002786   0.046708
     4  C   -0.346120  -3.295122   1.512423  -0.033271  -0.017606   0.126592
     5  C    0.638171  -9.164678   3.521012   0.159192   0.091045  -0.156128
     6  C    0.173486  -3.222438   1.068678   0.016109   0.053088  -0.021440
     7  N    7.442245  -1.763401   1.205967   0.232624   0.003823  -0.049864
     8  C   -1.763401  29.527167 -10.684304   0.086312   0.111162   0.147205
     9  C    1.205967 -10.684304  11.205473  -0.076368   0.050790   0.213131
    10  H    0.232624   0.086312  -0.076368   0.342290  -0.000078  -0.002252
    11  H    0.003823   0.111162   0.050790  -0.000078   0.473644  -0.000688
    12  H   -0.049864   0.147205   0.213131  -0.002252  -0.000688   0.475612
    13  H   -0.000335  -0.002229   0.002111  -0.000003   0.000000  -0.000000
    14  H   -0.006037  -0.031607   0.024240   0.002104   0.000002   0.000002
    15  H    0.000279   0.013744  -0.000906  -0.000000  -0.000002  -0.000000
    16  H   -0.000580  -0.014786   0.007977   0.000004   0.001353  -0.000001
              13         14         15         16
     1  C    0.054611  -0.019110   0.223820   0.091778
     2  C    0.185862   0.115168   0.036138  -0.004880
     3  C    0.029068  -0.142024   0.036487  -0.007774
     4  C    0.019526   0.320764  -0.038597  -0.005678
     5  C    0.002759   0.001700   0.052466   0.243380
     6  C    0.010137   0.019451  -0.020191  -0.024542
     7  N   -0.000335  -0.006037   0.000279  -0.000580
     8  C   -0.002229  -0.031607   0.013744  -0.014786
     9  C    0.002111   0.024240  -0.000906   0.007977
    10  H   -0.000003   0.002104  -0.000000   0.000004
    11  H    0.000000   0.000002  -0.000002   0.001353
    12  H   -0.000000   0.000002  -0.000000  -0.000001
    13  H    0.523005  -0.004519  -0.004320  -0.000154
    14  H   -0.004519   0.540067  -0.000152   0.000018
    15  H   -0.004320  -0.000152   0.519345  -0.004166
    16  H   -0.000154   0.000018  -0.004166   0.535310
 Mulliken charges:
               1
     1  C    0.027863
     2  C   -0.512384
     3  C    0.198320
     4  C   -1.376798
     5  C    1.103354
     6  C   -0.557414
     7  N   -0.359920
     8  C    0.016878
     9  C   -0.159163
    10  H    0.436326
    11  H    0.230291
    12  H    0.219434
    13  H    0.184482
    14  H    0.179933
    15  H    0.186057
    16  H    0.182741
 Sum of Mulliken charges =  -0.00000
 Mulliken charges with hydrogens summed into heavy atoms:
               1
     1  C    0.213920
     2  C   -0.327902
     3  C    0.378254
     4  C   -1.376798
     5  C    1.103354
     6  C   -0.374673
     7  N    0.076405
     8  C    0.247169
     9  C    0.060271
 Electronic spatial extent (au):  <R**2>=           1015.5005
 Charge=             -0.0000 electrons
 Dipole moment (field-independent basis, Debye):
    X=              3.2594    Y=             -0.8623    Z=              0.0788  Tot=              3.3725
 Quadrupole moment (field-independent basis, Debye-Ang):
   XX=            -46.9386   YY=            -46.6684   ZZ=            -60.9083
   XY=             -1.8160   XZ=              0.0381   YZ=             -0.2480
 Traceless Quadrupole moment (field-independent basis, Debye-Ang):
   XX=              4.5665   YY=              4.8366   ZZ=             -9.4032
   XY=             -1.8160   XZ=              0.0381   YZ=             -0.2480
 Octapole moment (field-independent basis, Debye-Ang**2):
  XXX=             17.9194  YYY=             -5.5853  ZZZ=              0.5526  XYY=             13.2108
  XXY=             -3.6129  XXZ=             -0.0599  XZZ=              2.8363  YZZ=              0.3124
  YYZ=              0.6952  XYZ=             -0.7525
 Hexadecapole moment (field-independent basis, Debye-Ang**3):
 XXXX=           -880.9374 YYYY=           -407.9197 ZZZZ=            -94.0970 XXXY=            -11.0372
 XXXZ=              1.8561 YYYX=             -9.9251 YYYZ=             -3.8364 ZZZX=              0.3413
 ZZZY=             -1.2847 XXYY=           -200.9738 XXZZ=           -206.7509 YYZZ=           -107.0581
 XXYZ=             -0.0474 YYXZ=             -0.2172 ZZXY=              0.3365
 N-N= 4.000099183022D+02 E-N=-1.641181832561D+03  KE= 3.595643107897D+02
 Calling FoFJK, ICntrl=  10005127 FMM=F ISym2X=0 I1Cent= 0 IOpClX= 0 NMat=1 NMatS=1 NMatT=0.
 ***** Axes restored to original set *****
 -------------------------------------------------------------------
 Center     Atomic                   Forces (Hartrees/Bohr)
 Number     Number              X              Y              Z
 -------------------------------------------------------------------
      1        6          -0.023820876   -0.030308690   -0.001723033
      2        6          -0.037054487    0.035909023    0.003622325
      3        6           0.037491467   -0.026203057   -0.002731609
      4        6          -0.011415769    0.014850741    0.000823205
      5        6           0.016372335   -0.015318837   -0.001815786
      6        6           0.010658707    0.029853993    0.001522183
      7        7           0.010377671    0.026004921    0.000823707
      8        6          -0.037924655    0.014811028    0.000283199
      9        6           0.026058373   -0.044986310   -0.000579547
     10        1           0.002267093   -0.004358686   -0.000345151
     11        1           0.001202390    0.001455425    0.000344415
     12        1           0.001393023   -0.000329914    0.000046651
     13        1           0.000441747    0.000486796    0.001141741
     14        1           0.000343649    0.000356836    0.000266484
     15        1           0.003400539   -0.001869860   -0.002286810
     16        1           0.000208792   -0.000353410    0.000608025
 -------------------------------------------------------------------
 Cartesian Forces:  Max     0.044986310 RMS     0.016662971

 GradGradGradGradGradGradGradGradGradGradGradGradGradGradGradGradGradGrad
 Berny optimization.
 FormGI is forming the generalized inverse of G from B-inverse, IUseBI=4.
 Internal  Forces:  Max     0.041405700 RMS     0.008029499
 Search for a local minimum.
 Step number   1 out of a maximum of   94
 All quantities printed in internal units (Hartrees-Bohrs-Radians)
 Mixed Optimization -- RFO/linear search
 Second derivative matrix not updated -- first step.
 ITU=  0
     Eigenvalues ---    0.01796   0.01876   0.01936   0.01957   0.02014
     Eigenvalues ---    0.02077   0.02091   0.02104   0.02135   0.02150
     Eigenvalues ---    0.02171   0.02192   0.02277   0.15995   0.15997
     Eigenvalues ---    0.15999   0.15999   0.16000   0.16000   0.16000
     Eigenvalues ---    0.21967   0.22184   0.22640   0.24007   0.24641
     Eigenvalues ---    0.34301   0.34775   0.34841   0.34849   0.35843
     Eigenvalues ---    0.35881   0.36568   0.37979   0.41971   0.43107
     Eigenvalues ---    0.45016   0.46141   0.46401   0.46720   0.46776
     Eigenvalues ---    0.47290   0.50149
 RFO step:  Lambda=-1.26051212D-02 EMin= 1.79641872D-02
 Linear search not attempted -- first point.
 Iteration  1 RMS(Cart)=  0.02597599 RMS(Int)=  0.00033716
 Iteration  2 RMS(Cart)=  0.00036335 RMS(Int)=  0.00015678
 Iteration  3 RMS(Cart)=  0.00000010 RMS(Int)=  0.00015678
 Variable       Old X    -DE/DX   Delta X   Delta X   Delta X     New X
                                 (Linear)    (Quad)   (Total)
    R1        2.65763  -0.01498   0.00000  -0.03065  -0.03071   2.62693
    R2        2.62302   0.02745   0.00000   0.05732   0.05729   2.68031
    R3        2.06825  -0.00401   0.00000  -0.01127  -0.01127   2.05698
    R4        2.62246   0.04141   0.00000   0.08535   0.08532   2.70778
    R5        2.05920  -0.00065   0.00000  -0.00180  -0.00180   2.05741
    R6        2.64564   0.00024   0.00000  -0.00073  -0.00070   2.64494
    R7        2.05934  -0.00036   0.00000  -0.00100  -0.00100   2.05834
    R8        2.68977  -0.00857   0.00000  -0.02521  -0.02533   2.66443
    R9        2.60613   0.01134   0.00000   0.02033   0.02050   2.62663
   R10        2.65581   0.01530   0.00000   0.03247   0.03250   2.68830
   R11        2.71547  -0.00914   0.00000  -0.02151  -0.02179   2.69369
   R12        2.06041  -0.00037   0.00000  -0.00103  -0.00103   2.05938
   R13        2.61450  -0.01977   0.00000  -0.03835  -0.03806   2.57643
   R14        1.90381   0.00485   0.00000   0.01018   0.01018   1.91400
   R15        2.58787   0.03412   0.00000   0.06811   0.06812   2.65600
   R16        2.04327   0.00177   0.00000   0.00477   0.00477   2.04804
   R17        2.04268   0.00142   0.00000   0.00383   0.00383   2.04651
    A1        2.11021   0.00055   0.00000   0.00851   0.00823   2.11844
    A2        2.08048  -0.00031   0.00000  -0.00440  -0.00429   2.07620
    A3        2.09247  -0.00024   0.00000  -0.00403  -0.00392   2.08854
    A4        2.11832  -0.00138   0.00000  -0.00061  -0.00094   2.11738
    A5        2.07961   0.00044   0.00000  -0.00093  -0.00086   2.07875
    A6        2.08500   0.00095   0.00000   0.00197   0.00205   2.08704
    A7        2.04953  -0.00269   0.00000  -0.01270  -0.01293   2.03659
    A8        2.11773   0.00169   0.00000   0.00845   0.00850   2.12623
    A9        2.11584   0.00100   0.00000   0.00446   0.00451   2.12036
   A10        2.13411   0.00358   0.00000   0.01268   0.01259   2.14671
   A11        2.27810  -0.00578   0.00000  -0.01393  -0.01385   2.26426
   A12        1.87093   0.00220   0.00000   0.00126   0.00126   1.87219
   A13        2.06944   0.00499   0.00000   0.01632   0.01643   2.08587
   A14        1.86461  -0.00249   0.00000  -0.01220  -0.01261   1.85199
   A15        2.34906  -0.00250   0.00000  -0.00405  -0.00376   2.34530
   A16        2.08151  -0.00494   0.00000  -0.02064  -0.02089   2.06062
   A17        2.10290   0.00268   0.00000   0.01163   0.01169   2.11459
   A18        2.09860   0.00227   0.00000   0.00931   0.00937   2.10797
   A19        1.90817   0.00834   0.00000   0.03274   0.03310   1.94127
   A20        2.18895  -0.00343   0.00000  -0.01206  -0.01225   2.17670
   A21        2.18607  -0.00491   0.00000  -0.02068  -0.02087   2.16519
   A22        1.87017   0.00585   0.00000   0.03086   0.03057   1.90074
   A23        2.21386  -0.00227   0.00000  -0.01161  -0.01148   2.20239
   A24        2.19915  -0.00359   0.00000  -0.01926  -0.01912   2.18003
   A25        1.91087  -0.01390   0.00000  -0.05254  -0.05231   1.85856
   A26        2.09958   0.00675   0.00000   0.02516   0.02503   2.12461
   A27        2.27270   0.00715   0.00000   0.02745   0.02731   2.30002
    D1        0.08496  -0.00185   0.00000  -0.05340  -0.05348   0.03148
    D2       -3.08112  -0.00118   0.00000  -0.03317  -0.03324  -3.11436
    D3       -3.06462  -0.00144   0.00000  -0.04147  -0.04145  -3.10607
    D4        0.05248  -0.00077   0.00000  -0.02124  -0.02120   0.03128
    D5       -0.08896   0.00147   0.00000   0.04434   0.04442  -0.04455
    D6        3.07230   0.00082   0.00000   0.02629   0.02650   3.09880
    D7        3.06067   0.00106   0.00000   0.03233   0.03229   3.09297
    D8       -0.06125   0.00041   0.00000   0.01428   0.01438  -0.04687
    D9       -0.03480   0.00102   0.00000   0.03244   0.03240  -0.00240
   D10        3.12057   0.00039   0.00000   0.01524   0.01533   3.13591
   D11        3.13135   0.00036   0.00000   0.01218   0.01210  -3.13973
   D12        0.00354  -0.00027   0.00000  -0.00501  -0.00496  -0.00142
   D13       -0.00812  -0.00033   0.00000  -0.00468  -0.00443  -0.01255
   D14       -3.13901  -0.00038   0.00000  -0.00585  -0.00562   3.13856
   D15        3.11971   0.00030   0.00000   0.01253   0.01261   3.13232
   D16       -0.01119   0.00026   0.00000   0.01136   0.01142   0.00023
   D17        0.00259  -0.00019   0.00000  -0.00401  -0.00385  -0.00126
   D18       -3.12801  -0.00033   0.00000  -0.00921  -0.00911  -3.13712
   D19        3.13567  -0.00020   0.00000  -0.00318  -0.00299   3.13268
   D20        0.00507  -0.00034   0.00000  -0.00838  -0.00825  -0.00318
   D21        3.13110   0.00013   0.00000   0.00114   0.00090   3.13200
   D22       -0.00902   0.00030   0.00000   0.00763   0.00749  -0.00152
   D23       -0.00102   0.00008   0.00000   0.00003  -0.00021  -0.00124
   D24       -3.14114   0.00024   0.00000   0.00652   0.00638  -3.13476
   D25        0.04569  -0.00070   0.00000  -0.01658  -0.01631   0.02938
   D26       -3.11552  -0.00005   0.00000   0.00145   0.00156  -3.11396
   D27       -3.11068  -0.00049   0.00000  -0.00959  -0.00924  -3.11992
   D28        0.01129   0.00017   0.00000   0.00844   0.00863   0.01992
   D29       -0.00728   0.00051   0.00000   0.01364   0.01367   0.00639
   D30        3.13205   0.00030   0.00000   0.00852   0.00853   3.14058
   D31       -3.13531   0.00026   0.00000   0.00706   0.00709  -3.12822
   D32        0.00402   0.00006   0.00000   0.00193   0.00195   0.00597
   D33       -0.00369   0.00031   0.00000   0.00904   0.00888   0.00519
   D34       -3.13774   0.00000   0.00000   0.00033   0.00033  -3.13741
   D35        3.13643   0.00014   0.00000   0.00257   0.00235   3.13878
   D36        0.00238  -0.00017   0.00000  -0.00615  -0.00621  -0.00382
   D37        0.00679  -0.00049   0.00000  -0.01400  -0.01391  -0.00713
   D38        3.13985  -0.00017   0.00000  -0.00422  -0.00424   3.13561
   D39       -3.13257  -0.00029   0.00000  -0.00894  -0.00887  -3.14144
   D40        0.00050   0.00004   0.00000   0.00084   0.00081   0.00130
         Item               Value     Threshold  Converged?
 Maximum Force            0.041406     0.000450     NO 
 RMS     Force            0.008029     0.000300     NO 
 Maximum Displacement     0.082966     0.001800     NO 
 RMS     Displacement     0.025934     0.001200     NO 
 Predicted change in Energy=-6.571911D-03
 GradGradGradGradGradGradGradGradGradGradGradGradGradGradGradGradGradGrad

                          Input orientation:                          
 ---------------------------------------------------------------------
 Center     Atomic      Atomic             Coordinates (Angstroms)
 Number     Number       Type             X           Y           Z
 ---------------------------------------------------------------------
      1          6           0       -2.187498    0.685353    0.014312
      2          6           0       -2.158333   -0.704360   -0.001577
      3          6           0       -0.918852   -1.423279   -0.006907
      4          6           0        0.252360   -0.657002    0.001650
      5          6           0        0.247520    0.752945    0.000067
      6          6           0       -0.992841    1.449445   -0.012205
      7          7           0        1.581068   -1.065055    0.002592
      8          6           0        1.615598    1.153215    0.004473
      9          6           0        2.426038    0.004922    0.000126
     10          1           0        1.888061   -2.030242   -0.001898
     11          1           0        1.984131    2.172409    0.003765
     12          1           0        3.501892   -0.118940   -0.003439
     13          1           0       -3.098282   -1.253737   -0.006065
     14          1           0       -0.886369   -2.512000   -0.014068
     15          1           0       -3.150244    1.191880    0.051686
     16          1           0       -1.020600    2.538526   -0.039523
 ---------------------------------------------------------------------
                    Distance matrix (angstroms):
                    1          2          3          4          5
     1  C    0.000000
     2  C    1.390109   0.000000
     3  C    2.460943   1.432895   0.000000
     4  C    2.784777   2.411161   1.399640   0.000000
     5  C    2.435998   2.812805   2.469094   1.409956   0.000000
     6  C    1.418359   2.448950   2.873681   2.447005   1.422589
     7  N    4.155256   3.756759   2.525474   1.389954   2.254657
     8  C    3.831779   4.206326   3.614124   2.266123   1.425438
     9  C    4.663464   4.638916   3.637045   2.272228   2.303362
    10  H    4.897437   4.258083   2.871792   2.135724   3.230713
    11  H    4.428762   5.043396   4.621299   3.317319   2.242924
    12  H    5.745986   5.690420   4.609154   3.293782   3.369144
    13  H    2.142432   1.088733   2.186014   3.403374   3.901436
    14  H    3.452073   2.210342   1.089229   2.176688   3.456266
    15  H    1.088507   2.140666   3.438255   3.872800   3.426387
    16  H    2.190617   3.436886   3.963246   3.439989   2.190433
                    6          7          8          9         10
     6  C    0.000000
     7  N    3.598324   0.000000
     8  C    2.625259   2.218540   0.000000
     9  C    3.711540   1.363389   1.405492   0.000000
    10  H    4.517513   1.012843   3.195102   2.105069   0.000000
    11  H    3.063543   3.262458   1.083777   2.212080   4.203753
    12  H    4.760519   2.141200   2.275203   1.082967   2.501506
    13  H    3.426384   4.683161   5.292844   5.665895   5.046444
    14  H    3.962876   2.860450   4.437791   4.160185   2.815973
    15  H    2.173662   5.242278   4.766233   5.701442   5.980757
    16  H    1.089778   4.444800   2.978349   4.277854   5.416213
                   11         12         13         14         15
    11  H    0.000000
    12  H    2.748442   0.000000
    13  H    6.129396   6.697020   0.000000
    14  H    5.493977   4.998369   2.544768   0.000000
    15  H    5.227383   6.780280   2.446851   4.341449   0.000000
    16  H    3.027263   5.245604   4.324251   5.052374   2.521340
                   16
    16  H    0.000000
 Stoichiometry    C8H7N
 Framework group  C1[X(C8H7N)]
 Deg. of freedom    42
 Full point group                 C1      NOp   1
 Largest Abelian subgroup         C1      NOp   1
 Largest concise Abelian subgroup C1      NOp   1
                         Standard orientation:                         
 ---------------------------------------------------------------------
 Center     Atomic      Atomic             Coordinates (Angstroms)
 Number     Number       Type             X           Y           Z
 ---------------------------------------------------------------------
      1          6           0       -2.195636    0.656627    0.012856
      2          6           0       -2.149270   -0.732626   -0.002301
      3          6           0       -0.900985   -1.436154   -0.006710
      4          6           0        0.260651   -0.655438    0.001970
      5          6           0        0.238365    0.754341   -0.000345
      6          6           0       -1.010515    1.435431   -0.013527
      7          7           0        1.594307   -1.047016    0.003712
      8          6           0        1.601383    1.171512    0.004460
      9          6           0        2.425972    0.033334    0.001067
     10          1           0        1.913222   -2.008332   -0.000143
     11          1           0        1.957275    2.195188    0.003388
     12          1           0        3.503278   -0.077206   -0.001957
     13          1           0       -3.082346   -1.293595   -0.006921
     14          1           0       -0.855029   -2.524393   -0.013293
     15          1           0       -3.164594    1.151221    0.049541
     16          1           0       -1.051737    2.524071   -0.041421
 ---------------------------------------------------------------------
 Rotational constants (GHZ):           3.8962124           1.6033195           1.1359414
 Standard basis: 6-31+G(d) (6D, 7F)
 There are   185 symmetry adapted cartesian basis functions of A   symmetry.
 There are   185 symmetry adapted basis functions of A   symmetry.
   185 basis functions,   316 primitive gaussians,   185 cartesian basis functions
    31 alpha electrons       31 beta electrons
       nuclear repulsion energy       398.1888243391 Hartrees.
 NAtoms=   16 NActive=   16 NUniq=   16 SFac= 1.00D+00 NAtFMM=   60 NAOKFM=F Big=F
 Integral buffers will be    131072 words long.
 Regular integral format.
 Two-electron integral symmetry is turned on.
 One-electron integrals computed using PRISM.
 NBasis=   185 RedAO= T EigKep=  1.30D-06  NBF=   185
 NBsUse=   185 1.00D-06 EigRej= -1.00D+00 NBFU=   185
 Initial guess from the checkpoint file:  "FuncsWB97X.chk"
 B after Tr=     0.000000    0.000000    0.000000
         Rot=    0.999982   -0.000060    0.000011   -0.006077 Ang=  -0.70 deg.
 ExpMin= 4.38D-02 ExpMax= 4.17D+03 ExpMxC= 6.27D+02 IAcc=3 IRadAn=         5 AccDes= 0.00D+00
 Harris functional with IExCor= 1009 and IRadAn=       5 diagonalized for initial guess.
 HarFok:  IExCor= 1009 AccDes= 0.00D+00 IRadAn=         5 IDoV= 1 UseB2=F ITyADJ=14
 ICtDFT=  3500011 ScaDFX=  1.000000  1.000000  1.000000  1.000000
 FoFCou: FMM=F IPFlag=           0 FMFlag=      100000 FMFlg1=           0
         NFxFlg=           0 DoJE=T BraDBF=F KetDBF=T FulRan=T
         wScrn=  0.000000 ICntrl=       500 IOpCl=  0 I1Cent=   200000004 NGrid=           0
         NMat0=    1 NMatS0=      1 NMatT0=    0 NMatD0=    1 NMtDS0=    0 NMtDT0=    0
 Petite list used in FoFCou.
 Requested convergence on RMS density matrix=1.00D-08 within 128 cycles.
 Requested convergence on MAX density matrix=1.00D-06.
 Requested convergence on             energy=1.00D-06.
 No special actions if energy rises.
 SCF Done:  E(RM06) =  -363.545480567     A.U. after   14 cycles
            NFock= 14  Conv=0.47D-08     -V/T= 2.0120
 DoSCS=F DFT=T ScalE2(SS,OS)=  1.000000  1.000000
 ExpMin= 4.38D-02 ExpMax= 4.17D+03 ExpMxC= 6.27D+02 IAcc=3 IRadAn=         5 AccDes= 0.00D+00
 HarFok:  IExCor=  205 AccDes= 0.00D+00 IRadAn=         5 IDoV=-2 UseB2=F ITyADJ=14
 ICtDFT= 12500011 ScaDFX=  1.000000  1.000000  1.000000  1.000000
 Range of M.O.s used for correlation:    10   185
 NBasis=   185 NAE=    31 NBE=    31 NFC=     9 NFV=     0
 NROrb=    176 NOA=    22 NOB=    22 NVA=   154 NVB=   154

 **** Warning!!: The largest alpha MO coefficient is  0.18297679D+03

 Orbital symmetries:
       Occupied  (A) (A) (A) (A) (A) (A) (A) (A) (A) (A) (A) (A)
                 (A) (A) (A) (A) (A) (A) (A) (A) (A) (A) (A) (A)
                 (A) (A) (A) (A) (A) (A) (A)
       Virtual   (A) (A) (A) (A) (A) (A) (A) (A) (A) (A) (A) (A)
                 (A) (A) (A) (A) (A) (A) (A) (A) (A) (A) (A) (A)
                 (A) (A) (A) (A) (A) (A) (A) (A) (A) (A) (A) (A)
                 (A) (A) (A) (A) (A) (A) (A) (A) (A) (A) (A) (A)
                 (A) (A) (A) (A) (A) (A) (A) (A) (A) (A) (A) (A)
                 (A) (A) (A) (A) (A) (A) (A) (A) (A) (A) (A) (A)
                 (A) (A) (A) (A) (A) (A) (A) (A) (A) (A) (A) (A)
                 (A) (A) (A) (A) (A) (A) (A) (A) (A) (A) (A) (A)
                 (A) (A) (A) (A) (A) (A) (A) (A) (A) (A) (A) (A)
                 (A) (A) (A) (A) (A) (A) (A) (A) (A) (A) (A) (A)
                 (A) (A) (A) (A) (A) (A) (A) (A) (A) (A) (A) (A)
                 (A) (A) (A) (A) (A) (A) (A) (A) (A) (A) (A) (A)
                 (A) (A) (A) (A) (A) (A) (A) (A) (A) (A)
 Generating guess from densities on rwf.
 Convergence on wavefunction:    0.000001000000000
 Iteration     1 Dimension    12 NMult     0 NNew     12
 CISAX will form    12 AO SS matrices at one time.
 New state      1 was old state      2
 New state      2 was old state      1
 New state      3 was old state      4
 New state      4 was old state      6
 New state      6 was old state      3
 Iteration     2 Dimension    24 NMult    12 NNew     12
 New state      1 was old state      2
 New state      2 was old state      1
 New state      3 was old state      4
 New state      4 was old state      3
 Iteration     3 Dimension    36 NMult    24 NNew     12
 New state      4 was old state      5
 New state      5 was old state      4
 Iteration     4 Dimension    48 NMult    36 NNew     12
 Iteration     5 Dimension    60 NMult    48 NNew     12
 Iteration     6 Dimension    72 NMult    60 NNew     12
 Iteration     7 Dimension    84 NMult    72 NNew     12
 Iteration     8 Dimension    96 NMult    84 NNew     12
 Iteration     9 Dimension   108 NMult    96 NNew     12
 Iteration    10 Dimension   120 NMult   108 NNew     12
 Iteration    11 Dimension   128 NMult   120 NNew      8
 ***********************************************************************
 Excited states from <AA,BB:AA,BB> singles matrix:
 ***********************************************************************
 
 Ground to excited state transition densities written to RWF  633
 Ground to excited state transition electric dipole moments (Au):
       state          X           Y           Z        Dip. S.      Osc.
         1         0.0016     -0.0041     -0.0909      0.0083      0.0008
         2        -0.7627      0.6936      0.0007      1.0628      0.1124
         3         0.0015     -0.0166     -0.0334      0.0014      0.0002
         4        -0.0765     -0.0577      0.0424      0.0110      0.0013
         5        -0.3510     -0.1852     -0.0050      0.1575      0.0182
         6        -0.0026     -0.0034     -0.0733      0.0054      0.0006
 Ground to excited state transition velocity dipole moments (Au):
       state          X           Y           Z        Dip. S.      Osc.
         1        -0.0002      0.0005      0.0058      0.0000      0.0002
         2         0.1159     -0.1218      0.0000      0.0283      0.1187
         3        -0.0004      0.0030      0.0079      0.0001      0.0003
         4         0.0126      0.0105     -0.0057      0.0003      0.0012
         5         0.0586      0.0346      0.0001      0.0046      0.0178
         6         0.0005      0.0008      0.0168      0.0003      0.0011
 Ground to excited state transition magnetic dipole moments (Au):
       state          X           Y           Z
         1         0.1183     -0.0397     -0.0047
         2         0.0069      0.0003      0.1461
         3         0.1425     -0.1592      0.0034
         4         0.1195      0.1711      0.0052
         5        -0.0335     -0.0351      0.0162
         6        -0.0016     -0.1549      0.0009
 Ground to excited state transition velocity quadrupole moments (Au):
       state          XX          YY          ZZ          XY          XZ          YZ
         1        -0.0028     -0.0010     -0.0004      0.0030      0.0403      0.0400
         2         0.2197     -0.1429      0.0183      0.0623      0.0012      0.0067
         3        -0.0056      0.0009      0.0017      0.0001      0.1668      0.1325
         4         0.0028     -0.0031      0.0034      0.0041     -0.1269      0.0433
         5         0.0352     -0.0820      0.0184     -0.0039      0.0256     -0.0146
         6        -0.0020      0.0045      0.0011     -0.0029      0.0844     -0.0504
 <0|del|b> * <b|rxdel|0> + <0|del|b> * <b|delr+rdel|0>
 Rotatory Strengths (R) in cgs (10**-40 erg-esu-cm/Gauss)
       state          XX          YY          ZZ    R(velocity)    E-M Angle
         1        -0.1120     -0.1858     -0.0377     -0.1118       90.00
         2         0.2667      3.5027     -0.3725      1.1323       88.22
         3        -1.9505     -0.1996      0.0373     -0.7043      106.38
         4         6.3030      4.1696      2.9078      4.4601       25.48
         5        -4.2707     -5.7418     -2.9235     -4.3120      155.70
         6        -0.4455      0.0715     -0.0594     -0.1445       92.40
 1/2[<0|r|b>*<b|rxdel|0> + (<0|rxdel|b>*<b|r|0>)*]
 Rotatory Strengths (R) in cgs (10**-40 erg-esu-cm/Gauss)
       state          XX          YY          ZZ     R(length)
         1        -0.1349     -0.1162     -0.3019     -0.1843
         2         3.6983     -0.1450     -0.0747      1.1595
         3        -0.1480     -1.8672      0.0800     -0.6451
         4         6.4594      6.9769     -0.1568      4.4265
         5        -8.3035     -4.5961      0.0574     -4.2807
         6        -0.0028     -0.3770      0.0449     -0.1117
  1/2[<0|del|b>*<b|r|0> + (<0|r|b>*<b|del|0>)*] (Au)
       state          X           Y           Z        Dip. S.   Osc.(frdel)
         1        -0.0000     -0.0000     -0.0005      0.0005      0.0004
         2        -0.0884     -0.0845      0.0000      0.1729      0.1152
         3        -0.0000     -0.0000     -0.0003      0.0003      0.0002
         4        -0.0010     -0.0006     -0.0002      0.0018      0.0012
         5        -0.0206     -0.0064     -0.0000      0.0270      0.0180
         6        -0.0000     -0.0000     -0.0012      0.0012      0.0008

 Excitation energies and oscillator strengths:
 
 Excited State   1:      Singlet-A      4.0021 eV  309.80 nm  f=0.0008  <S**2>=0.000
      31 -> 32         0.70409
 
 Excited State   2:      Singlet-A      4.3177 eV  287.15 nm  f=0.1124  <S**2>=0.000
      30 -> 38         0.12218
      31 -> 33         0.68363
 This state for optimization and/or second-order correction.
 Total Energy, E(TD-HF/TD-DFT) =  -363.386807212    
 Copying the excited state density for this state as the 1-particle RhoCI density.
 
 Excited State   3:      Singlet-A      4.6259 eV  268.02 nm  f=0.0002  <S**2>=0.000
      31 -> 34         0.70064
 
 Excited State   4:      Singlet-A      4.7051 eV  263.51 nm  f=0.0013  <S**2>=0.000
      30 -> 33         0.12825
      31 -> 35         0.68269
 
 Excited State   5:      Singlet-A      4.7182 eV  262.78 nm  f=0.0182  <S**2>=0.000
      30 -> 33         0.55004
      31 -> 35        -0.16033
      31 -> 38        -0.38731
 
 Excited State   6:      Singlet-A      4.8457 eV  255.86 nm  f=0.0006  <S**2>=0.000
      30 -> 32         0.69831
 SavETr:  write IOETrn=   770 NScale= 10 NData=  16 NLR=1 NState=    6 LETran=     118.
          IDoAtm=1111111111111111
          Differentiating once with respect to electric field.
                with respect to dipole field.
          Differentiating once with respect to nuclear coordinates.
          There are     1 degrees of freedom in the 1st order CPHF.  IDoFFX=0 NUNeed=     1.
 LinEq1:  Iter=  0 NonCon=     1 RMS=1.10D-02 Max=3.19D-01 NDo=     1
 AX will form     1 AO Fock derivatives at one time.
 LinEq1:  Iter=  1 NonCon=     1 RMS=4.89D-03 Max=1.14D-01 NDo=     1
 LinEq1:  Iter=  2 NonCon=     1 RMS=3.60D-03 Max=1.11D-01 NDo=     1
 LinEq1:  Iter=  3 NonCon=     1 RMS=1.61D-03 Max=3.42D-02 NDo=     1
 LinEq1:  Iter=  4 NonCon=     1 RMS=9.76D-04 Max=2.72D-02 NDo=     1
 LinEq1:  Iter=  5 NonCon=     1 RMS=5.56D-04 Max=1.01D-02 NDo=     1
 LinEq1:  Iter=  6 NonCon=     1 RMS=4.08D-04 Max=1.49D-02 NDo=     1
 LinEq1:  Iter=  7 NonCon=     1 RMS=1.48D-04 Max=1.76D-03 NDo=     1
 LinEq1:  Iter=  8 NonCon=     1 RMS=1.14D-04 Max=2.67D-03 NDo=     1
 LinEq1:  Iter=  9 NonCon=     1 RMS=4.61D-05 Max=1.28D-03 NDo=     1
 LinEq1:  Iter= 10 NonCon=     1 RMS=3.07D-05 Max=6.15D-04 NDo=     1
 LinEq1:  Iter= 11 NonCon=     1 RMS=1.36D-05 Max=3.17D-04 NDo=     1
 LinEq1:  Iter= 12 NonCon=     1 RMS=9.16D-06 Max=1.31D-04 NDo=     1
 LinEq1:  Iter= 13 NonCon=     1 RMS=2.93D-06 Max=4.03D-05 NDo=     1
 LinEq1:  Iter= 14 NonCon=     1 RMS=1.30D-06 Max=1.70D-05 NDo=     1
 LinEq1:  Iter= 15 NonCon=     1 RMS=7.01D-07 Max=1.05D-05 NDo=     1
 LinEq1:  Iter= 16 NonCon=     1 RMS=1.24D-07 Max=2.10D-06 NDo=     1
 LinEq1:  Iter= 17 NonCon=     1 RMS=5.02D-08 Max=8.37D-07 NDo=     1
 LinEq1:  Iter= 18 NonCon=     1 RMS=2.48D-08 Max=3.67D-07 NDo=     1
 LinEq1:  Iter= 19 NonCon=     1 RMS=1.17D-08 Max=1.89D-07 NDo=     1
 LinEq1:  Iter= 20 NonCon=     1 RMS=3.14D-09 Max=7.14D-08 NDo=     1
 LinEq1:  Iter= 21 NonCon=     1 RMS=8.06D-10 Max=1.45D-08 NDo=     1
 LinEq1:  Iter= 22 NonCon=     1 RMS=1.52D-10 Max=2.47D-09 NDo=     1
 LinEq1:  Iter= 23 NonCon=     0 RMS=3.35D-11 Max=3.84D-10 NDo=     1
 Linear equations converged to 1.000D-10 1.000D-09 after    23 iterations.
 End of Minotr F.D. properties file   721 does not exist.
 End of Minotr F.D. properties file   722 does not exist.
 End of Minotr F.D. properties file   788 does not exist.
 Calling FoFJK, ICntrl=  10005127 FMM=F ISym2X=0 I1Cent= 0 IOpClX= 0 NMat=1 NMatS=1 NMatT=0.
 ***** Axes restored to original set *****
 -------------------------------------------------------------------
 Center     Atomic                   Forces (Hartrees/Bohr)
 Number     Number              X              Y              Z
 -------------------------------------------------------------------
      1        6          -0.000795659   -0.011090216   -0.000531038
      2        6          -0.004724314    0.013614001    0.001255240
      3        6           0.010029092   -0.009747204   -0.000955790
      4        6          -0.011353852    0.007555912   -0.000169890
      5        6           0.007009236   -0.007787106   -0.000314713
      6        6           0.001425808    0.008685848    0.001084832
      7        7           0.011214608    0.005980495   -0.000043318
      8        6          -0.013508868    0.011015127   -0.000694550
      9        6           0.001362867   -0.018646184    0.000313268
     10        1          -0.000753291   -0.000541214    0.000005271
     11        1           0.000963909    0.000557825    0.000124643
     12        1          -0.000833772    0.001020021    0.000102333
     13        1           0.000757755   -0.001095689    0.000653767
     14        1          -0.001047389    0.000533460   -0.000011422
     15        1           0.000290559    0.000824804   -0.001294886
     16        1          -0.000036688   -0.000879880    0.000476253
 -------------------------------------------------------------------
 Cartesian Forces:  Max     0.018646184 RMS     0.006004453

 GradGradGradGradGradGradGradGradGradGradGradGradGradGradGradGradGradGrad
 Berny optimization.
 Using GEDIIS/GDIIS optimizer.
 FormGI is forming the generalized inverse of G from B-inverse, IUseBI=4.
 Internal  Forces:  Max     0.011747973 RMS     0.002449499
 Search for a local minimum.
 Step number   2 out of a maximum of   94
 All quantities printed in internal units (Hartrees-Bohrs-Radians)
 Mixed Optimization -- RFO/linear search
 Update second derivatives using D2CorX and points    1    2
 DE= -8.00D-03 DEPred=-6.57D-03 R= 1.22D+00
 TightC=F SS=  1.41D+00  RLast= 2.07D-01 DXNew= 5.0454D-01 6.2057D-01
 Trust test= 1.22D+00 RLast= 2.07D-01 DXMaxT set to 5.05D-01
 ITU=  1  0
 Use linear search instead of GDIIS.
     Eigenvalues ---    0.01797   0.01878   0.01937   0.01955   0.02012
     Eigenvalues ---    0.02069   0.02089   0.02104   0.02134   0.02149
     Eigenvalues ---    0.02166   0.02191   0.02279   0.15867   0.15999
     Eigenvalues ---    0.16000   0.16000   0.16000   0.16000   0.16022
     Eigenvalues ---    0.20215   0.22001   0.23655   0.24511   0.24693
     Eigenvalues ---    0.34219   0.34366   0.34818   0.34850   0.34986
     Eigenvalues ---    0.35862   0.35966   0.37940   0.39479   0.42159
     Eigenvalues ---    0.43451   0.45397   0.46285   0.46416   0.46805
     Eigenvalues ---    0.47896   0.50995
 RFO step:  Lambda=-1.18054464D-03 EMin= 1.79729190D-02
 Quartic linear search produced a step of  0.23716.
 Iteration  1 RMS(Cart)=  0.01004477 RMS(Int)=  0.00010954
 Iteration  2 RMS(Cart)=  0.00011393 RMS(Int)=  0.00006296
 Iteration  3 RMS(Cart)=  0.00000001 RMS(Int)=  0.00006296
 Variable       Old X    -DE/DX   Delta X   Delta X   Delta X     New X
                                 (Linear)    (Quad)   (Total)
    R1        2.62693  -0.00618  -0.00728  -0.01181  -0.01913   2.60779
    R2        2.68031   0.00266   0.01359  -0.00292   0.01064   2.69095
    R3        2.05698   0.00008  -0.00267   0.00236  -0.00031   2.05667
    R4        2.70778   0.00658   0.02023   0.00247   0.02269   2.73047
    R5        2.05741  -0.00011  -0.00043  -0.00005  -0.00048   2.05693
    R6        2.64494  -0.00269  -0.00017  -0.00712  -0.00726   2.63768
    R7        2.05834  -0.00057  -0.00024  -0.00184  -0.00207   2.05627
    R8        2.66443  -0.00262  -0.00601  -0.00382  -0.00981   2.65462
    R9        2.62663   0.00536   0.00486   0.00933   0.01425   2.64088
   R10        2.68830   0.00110   0.00771  -0.00258   0.00514   2.69344
   R11        2.69369  -0.00585  -0.00517  -0.01377  -0.01900   2.67468
   R12        2.05938  -0.00088  -0.00024  -0.00295  -0.00319   2.05619
   R13        2.57643  -0.00931  -0.00903  -0.01714  -0.02611   2.55032
   R14        1.91400   0.00030   0.00241  -0.00096   0.00145   1.91545
   R15        2.65600   0.01175   0.01616   0.01755   0.03368   2.68968
   R16        2.04804   0.00084   0.00113   0.00204   0.00317   2.05122
   R17        2.04651  -0.00094   0.00091  -0.00393  -0.00303   2.04349
    A1        2.11844   0.00155   0.00195   0.00733   0.00915   2.12759
    A2        2.07620   0.00014  -0.00102   0.00344   0.00247   2.07866
    A3        2.08854  -0.00169  -0.00093  -0.01073  -0.01161   2.07693
    A4        2.11738   0.00189  -0.00022   0.01120   0.01086   2.12824
    A5        2.07875   0.00039  -0.00020   0.00500   0.00483   2.08358
    A6        2.08704  -0.00228   0.00049  -0.01621  -0.01569   2.07135
    A7        2.03659  -0.00439  -0.00307  -0.02135  -0.02445   2.01214
    A8        2.12623   0.00112   0.00202   0.00194   0.00396   2.13019
    A9        2.12036   0.00327   0.00107   0.01941   0.02049   2.14084
   A10        2.14671   0.00301   0.00299   0.01358   0.01657   2.16328
   A11        2.26426  -0.00291  -0.00328  -0.01090  -0.01421   2.25005
   A12        1.87219  -0.00010   0.00030  -0.00261  -0.00233   1.86986
   A13        2.08587   0.00140   0.00390   0.00391   0.00786   2.09373
   A14        1.85199   0.00186  -0.00299   0.01159   0.00848   1.86048
   A15        2.34530  -0.00326  -0.00089  -0.01552  -0.01636   2.32894
   A16        2.06062  -0.00344  -0.00495  -0.01458  -0.01963   2.04099
   A17        2.11459   0.00167   0.00277   0.00666   0.00946   2.12404
   A18        2.10797   0.00177   0.00222   0.00792   0.01017   2.11814
   A19        1.94127   0.00032   0.00785  -0.00595   0.00195   1.94322
   A20        2.17670  -0.00102  -0.00291  -0.00458  -0.00754   2.16916
   A21        2.16519   0.00070  -0.00495   0.01062   0.00561   2.17081
   A22        1.90074  -0.00181   0.00725  -0.01391  -0.00681   1.89393
   A23        2.20239   0.00166  -0.00272   0.01190   0.00919   2.21158
   A24        2.18003   0.00015  -0.00453   0.00213  -0.00239   2.17764
   A25        1.85856  -0.00027  -0.01241   0.01106  -0.00135   1.85721
   A26        2.12461   0.00105   0.00594   0.00177   0.00769   2.13230
   A27        2.30002  -0.00078   0.00648  -0.01282  -0.00635   2.29366
    D1        0.03148  -0.00071  -0.01268   0.00266  -0.01011   0.02137
    D2       -3.11436  -0.00051  -0.00788  -0.00225  -0.01018  -3.12455
    D3       -3.10607  -0.00071  -0.00983  -0.00691  -0.01681  -3.12287
    D4        0.03128  -0.00051  -0.00503  -0.01182  -0.01688   0.01440
    D5       -0.04455   0.00070   0.01053   0.00217   0.01268  -0.03186
    D6        3.09880   0.00040   0.00629   0.00032   0.00667   3.10547
    D7        3.09297   0.00070   0.00766   0.01184   0.01941   3.11238
    D8       -0.04687   0.00040   0.00341   0.00999   0.01340  -0.03347
    D9       -0.00240   0.00040   0.00768  -0.00482   0.00281   0.00041
   D10        3.13591   0.00020   0.00364  -0.00180   0.00188   3.13779
   D11       -3.13973   0.00019   0.00287   0.00006   0.00284  -3.13689
   D12       -0.00142  -0.00001  -0.00118   0.00308   0.00191   0.00049
   D13       -0.01255  -0.00002  -0.00105   0.00283   0.00188  -0.01066
   D14        3.13856  -0.00021  -0.00133  -0.00752  -0.00873   3.12982
   D15        3.13232   0.00018   0.00299  -0.00015   0.00286   3.13517
   D16        0.00023  -0.00001   0.00271  -0.01049  -0.00776  -0.00753
   D17       -0.00126  -0.00005  -0.00091   0.00149   0.00064  -0.00061
   D18       -3.13712  -0.00005  -0.00216   0.00476   0.00266  -3.13445
   D19        3.13268   0.00008  -0.00071   0.00975   0.00920  -3.14130
   D20       -0.00318   0.00008  -0.00196   0.01302   0.01122   0.00804
   D21        3.13200   0.00019   0.00021   0.00973   0.00984  -3.14134
   D22       -0.00152   0.00008   0.00178  -0.00174   0.00002  -0.00150
   D23       -0.00124   0.00001  -0.00005   0.00056   0.00053  -0.00071
   D24       -3.13476  -0.00011   0.00151  -0.01091  -0.00930   3.13913
   D25        0.02938  -0.00031  -0.00387  -0.00409  -0.00787   0.02152
   D26       -3.11396  -0.00001   0.00037  -0.00225  -0.00188  -3.11583
   D27       -3.11992  -0.00029  -0.00219  -0.00834  -0.01039  -3.13031
   D28        0.01992   0.00001   0.00205  -0.00651  -0.00440   0.01552
   D29        0.00639  -0.00018   0.00324  -0.02195  -0.01869  -0.01230
   D30        3.14058   0.00005   0.00202  -0.00437  -0.00225   3.13834
   D31       -3.12822  -0.00020   0.00168  -0.01809  -0.01642   3.13855
   D32        0.00597   0.00002   0.00046  -0.00051   0.00002   0.00600
   D33        0.00519  -0.00013   0.00211  -0.01416  -0.01207  -0.00688
   D34       -3.13741  -0.00010   0.00008  -0.00524  -0.00510   3.14068
   D35        3.13878  -0.00002   0.00056  -0.00287  -0.00231   3.13647
   D36       -0.00382   0.00000  -0.00147   0.00606   0.00466   0.00084
   D37       -0.00713   0.00018  -0.00330   0.02227   0.01900   0.01187
   D38        3.13561   0.00015  -0.00100   0.01208   0.01111  -3.13646
   D39       -3.14144  -0.00005  -0.00210   0.00492   0.00289  -3.13855
   D40        0.00130  -0.00008   0.00019  -0.00527  -0.00499  -0.00369
         Item               Value     Threshold  Converged?
 Maximum Force            0.011748     0.000450     NO 
 RMS     Force            0.002449     0.000300     NO 
 Maximum Displacement     0.026759     0.001800     NO 
 RMS     Displacement     0.010097     0.001200     NO 
 Predicted change in Energy=-1.010878D-03
 GradGradGradGradGradGradGradGradGradGradGradGradGradGradGradGradGradGrad

                          Input orientation:                          
 ---------------------------------------------------------------------
 Center     Atomic      Atomic             Coordinates (Angstroms)
 Number     Number       Type             X           Y           Z
 ---------------------------------------------------------------------
      1          6           0       -2.182072    0.682523    0.015840
      2          6           0       -2.152095   -0.697055    0.000903
      3          6           0       -0.909629   -1.434539   -0.010610
      4          6           0        0.247289   -0.653664   -0.005016
      5          6           0        0.245542    0.751095   -0.001822
      6          6           0       -0.990158    1.461400   -0.005038
      7          7           0        1.583252   -1.063750   -0.000340
      8          6           0        1.601438    1.157091   -0.006111
      9          6           0        2.421566   -0.006139    0.004698
     10          1           0        1.883312   -2.031931    0.000780
     11          1           0        1.973484    2.176794   -0.008062
[...]
 ! D8    D(15,1,6,16)           -0.0354         -DE/DX =    0.0                 !
 ! D9    D(1,2,3,4)              0.0044         -DE/DX =    0.0                 !
 ! D10   D(1,2,3,14)          -179.9751         -DE/DX =    0.0                 !
 ! D11   D(13,2,3,4)           180.0114         -DE/DX =    0.0                 !
 ! D12   D(13,2,3,14)            0.0319         -DE/DX =    0.0                 !
 ! D13   D(2,3,4,5)             -0.0049         -DE/DX =    0.0                 !
 ! D14   D(2,3,4,7)            179.947          -DE/DX =    0.0                 !
 ! D15   D(14,3,4,5)           179.9743         -DE/DX =    0.0                 !
 ! D16   D(14,3,4,7)            -0.0738         -DE/DX =    0.0                 !
 ! D17   D(3,4,5,6)             -0.0086         -DE/DX =    0.0                 !
 ! D18   D(3,4,5,8)            179.9559         -DE/DX =    0.0                 !
 ! D19   D(7,4,5,6)           -179.9695         -DE/DX =    0.0                 !
 ! D20   D(7,4,5,8)             -0.0049         -DE/DX =    0.0                 !
 ! D21   D(3,4,7,9)           -179.9564         -DE/DX =    0.0                 !
 ! D22   D(3,4,7,10)             0.0727         -DE/DX =    0.0                 !
 ! D23   D(5,4,7,9)              0.002          -DE/DX =    0.0                 !
 ! D24   D(5,4,7,10)          -179.9689         -DE/DX =    0.0                 !
 ! D25   D(4,5,6,1)              0.0219         -DE/DX =    0.0                 !
 ! D26   D(4,5,6,16)          -179.9708         -DE/DX =    0.0                 !
 ! D27   D(8,5,6,1)           -179.9317         -DE/DX =    0.0                 !
 ! D28   D(8,5,6,16)             0.0756         -DE/DX =    0.0                 !
 ! D29   D(4,5,8,9)              0.006          -DE/DX =    0.0                 !
 ! D30   D(4,5,8,11)          -179.9906         -DE/DX =    0.0                 !
 ! D31   D(6,5,8,9)            179.9641         -DE/DX =    0.0                 !
 ! D32   D(6,5,8,11)            -0.0325         -DE/DX =    0.0                 !
 ! D33   D(4,7,9,8)              0.0017         -DE/DX =    0.0                 !
 ! D34   D(4,7,9,12)          -179.9397         -DE/DX =    0.0                 !
 ! D35   D(10,7,9,8)           179.9724         -DE/DX =    0.0                 !
 ! D36   D(10,7,9,12)            0.031          -DE/DX =    0.0                 !
 ! D37   D(5,8,9,7)             -0.0048         -DE/DX =    0.0                 !
 ! D38   D(5,8,9,12)           179.9301         -DE/DX =    0.0                 !
 ! D39   D(11,8,9,7)           179.9919         -DE/DX =    0.0                 !
 ! D40   D(11,8,9,12)           -0.0731         -DE/DX =    0.0                 !
 --------------------------------------------------------------------------------
 GradGradGradGradGradGradGradGradGradGradGradGradGradGradGradGradGradGrad

                          Input orientation:                          
 ---------------------------------------------------------------------
 Center     Atomic      Atomic             Coordinates (Angstroms)
 Number     Number       Type             X           Y           Z
 ---------------------------------------------------------------------
      1          6           0       -2.179082    0.684879    0.003386
      2          6           0       -2.148101   -0.696998    0.002515
      3          6           0       -0.911782   -1.441576   -0.000204
      4          6           0        0.243539   -0.655262   -0.001775
      5          6           0        0.242853    0.747549   -0.000954
      6          6           0       -0.989722    1.464307    0.001444
      7          7           0        1.587160   -1.063782   -0.003456
      8          6           0        1.598928    1.157840   -0.002053
      9          6           0        2.420308   -0.007184   -0.003688
     10          1           0        1.883797   -2.032519   -0.004797
     11          1           0        1.974782    2.175286   -0.001688
     12          1           0        3.497168   -0.112198   -0.005856
     13          1           0       -3.086079   -1.250744    0.004035
     14          1           0       -0.892963   -2.528341   -0.001280
     15          1           0       -3.143244    1.191247    0.005715
     16          1           0       -1.013913    2.551576    0.001645
 ---------------------------------------------------------------------
                    Distance matrix (angstroms):
                    1          2          3          4          5
     1  C    0.000000
     2  C    1.382225   0.000000
     3  C    2.475455   1.443223   0.000000
     4  C    2.768592   2.392009   1.397519   0.000000
     5  C    2.422750   2.793455   2.474965   1.402811   0.000000
     6  C    1.422002   2.452159   2.906929   2.452247   1.425829
     7  N    4.152402   3.753231   2.527340   1.404354   2.255679
     8  C    3.807504   4.180989   3.613949   2.263717   1.416785
     9  C    4.651171   4.620200   3.627715   2.271196   2.304548
    10  H    4.887873   4.247337   2.857358   2.141796   3.228233
    11  H    4.413154   5.024759   4.627520   3.318012   2.244552
    12  H    5.731949   5.675485   4.605010   3.298642   3.365971
    13  H    2.137588   1.089238   2.182660   3.382453   3.882652
    14  H    3.461055   2.220180   1.086928   2.190904   3.467208
    15  H    1.089046   2.134429   3.451263   3.857454   3.415049
    16  H    2.200495   3.440874   3.994459   3.444562   2.198631
                    6          7          8          9         10
     6  C    0.000000
     7  N    3.609928   0.000000
     8  C    2.606730   2.221653   0.000000
     9  C    3.713975   1.345561   1.425464   0.000000
    10  H    4.526029   1.013137   3.203052   2.095191   0.000000
    11  H    3.048571   3.262179   1.084649   2.227481   4.208789
    12  H    4.755797   2.133928   2.283928   1.081971   2.508107
    13  H    3.430193   4.676983   5.267884   5.645068   5.030995
    14  H    3.993821   2.880269   4.449432   4.163413   2.820683
    15  H    2.170769   5.240416   4.742296   5.691171   5.971927
    16  H    1.087538   4.453810   2.961326   4.282657   5.423162
                   11         12         13         14         15
    11  H    0.000000
    12  H    2.747773   0.000000
    13  H    6.111467   6.680983   0.000000
    14  H    5.508908   5.011090   2.538116   0.000000
    15  H    5.211773   6.767139   2.442661   4.347314   0.000000
    16  H    3.012292   5.238855   4.330302   5.081357   2.526769
                   16
    16  H    0.000000
 Stoichiometry    C8H7N
 Framework group  C1[X(C8H7N)]
 Deg. of freedom    42
 Full point group                 C1      NOp   1
 Largest Abelian subgroup         C1      NOp   1
 Largest concise Abelian subgroup C1      NOp   1
                         Standard orientation:                         
 ---------------------------------------------------------------------
 Center     Atomic      Atomic             Coordinates (Angstroms)
 Number     Number       Type             X           Y           Z
 ---------------------------------------------------------------------
      1          6           0       -2.189722    0.648426    0.000301
      2          6           0       -2.136389   -0.732770    0.000290
      3          6           0       -0.888183   -1.457251   -0.000154
      4          6           0        0.254267   -0.652350   -0.000472
      5          6           0        0.230886    0.750267   -0.000478
      6          6           0       -1.013124    1.446992   -0.000333
      7          7           0        1.604322   -1.039081    0.000084
      8          6           0        1.580147    1.182441    0.000196
      9          6           0        2.420267    0.030858    0.000468
     10          1           0        1.916593   -2.002892   -0.000246
     11          1           0        1.939492    2.205835    0.000521
     12          1           0        3.498688   -0.056722   -0.000039
     13          1           0       -3.065287   -1.301617    0.000743
     14          1           0       -0.851785   -2.543569   -0.000562
     15          1           0       -3.161951    1.139130    0.000900
     16          1           0       -1.054901    2.533727   -0.000808
 ---------------------------------------------------------------------
 Rotational constants (GHZ):           3.8630832           1.6144897           1.1386263

 **********************************************************************

            Population analysis using the CI Density.

 **********************************************************************

 Orbital symmetries:
       Occupied  (A) (A) (A) (A) (A) (A) (A) (A) (A) (A) (A) (A)
                 (A) (A) (A) (A) (A) (A) (A) (A) (A) (A) (A) (A)
                 (A) (A) (A) (A) (A) (A) (A)
       Virtual   (A) (A) (A) (A) (A) (A) (A) (A) (A) (A) (A) (A)
                 (A) (A) (A) (A) (A) (A) (A) (A) (A) (A) (A) (A)
                 (A) (A) (A) (A) (A) (A) (A) (A) (A) (A) (A) (A)
                 (A) (A) (A) (A) (A) (A) (A) (A) (A) (A) (A) (A)
                 (A) (A) (A) (A) (A) (A) (A) (A) (A) (A) (A) (A)
                 (A) (A) (A) (A) (A) (A) (A) (A) (A) (A) (A) (A)
                 (A) (A) (A) (A) (A) (A) (A) (A) (A) (A) (A) (A)
                 (A) (A) (A) (A) (A) (A) (A) (A) (A) (A) (A) (A)
                 (A) (A) (A) (A) (A) (A) (A) (A) (A) (A) (A) (A)
                 (A) (A) (A) (A) (A) (A) (A) (A) (A) (A) (A) (A)
                 (A) (A) (A) (A) (A) (A) (A) (A) (A) (A) (A) (A)
                 (A) (A) (A) (A) (A) (A) (A) (A) (A) (A) (A) (A)
                 (A) (A) (A) (A) (A) (A) (A) (A) (A) (A)
 The electronic state is 1-A.
 Alpha  occ. eigenvalues --  -14.46237 -10.29997 -10.29543 -10.27111 -10.26508
 Alpha  occ. eigenvalues --  -10.26216 -10.26029 -10.25791 -10.24889  -1.00078
 Alpha  occ. eigenvalues --   -0.85109  -0.79033  -0.75230  -0.72010  -0.63989
 Alpha  occ. eigenvalues --   -0.60695  -0.58824  -0.55130  -0.49267  -0.48257
 Alpha  occ. eigenvalues --   -0.44967  -0.44345  -0.43964  -0.41341  -0.40335
 Alpha  occ. eigenvalues --   -0.36092  -0.35599  -0.34854  -0.28696  -0.24479
 Alpha  occ. eigenvalues --   -0.20856
 Alpha virt. eigenvalues --   -0.03258  -0.02507  -0.01330  -0.00833   0.00279
 Alpha virt. eigenvalues --    0.00579   0.02043   0.02751   0.02940   0.03415
 Alpha virt. eigenvalues --    0.03828   0.04145   0.06404   0.06805   0.06807
 Alpha virt. eigenvalues --    0.06925   0.09470   0.10077   0.10785   0.11603
 Alpha virt. eigenvalues --    0.11905   0.11953   0.13066   0.13525   0.15217
 Alpha virt. eigenvalues --    0.15724   0.15755   0.16656   0.17267   0.17522
 Alpha virt. eigenvalues --    0.18288   0.18859   0.18938   0.19611   0.20725
 Alpha virt. eigenvalues --    0.20979   0.21365   0.21909   0.23115   0.23602
 Alpha virt. eigenvalues --    0.24276   0.25094   0.25606   0.26808   0.27559
 Alpha virt. eigenvalues --    0.28760   0.29403   0.30814   0.32289   0.33989
 Alpha virt. eigenvalues --    0.35235   0.37527   0.41813   0.43663   0.50087
 Alpha virt. eigenvalues --    0.56923   0.60199   0.65266   0.65703   0.67955
 Alpha virt. eigenvalues --    0.70184   0.70247   0.71273   0.71345   0.72353
 Alpha virt. eigenvalues --    0.73544   0.74477   0.75551   0.77184   0.77302
 Alpha virt. eigenvalues --    0.79535   0.83387   0.85731   0.86627   0.87769
 Alpha virt. eigenvalues --    0.90258   0.91373   0.92456   0.95417   0.95498
 Alpha virt. eigenvalues --    0.97777   1.00328   1.02369   1.03864   1.08005
 Alpha virt. eigenvalues --    1.10107   1.11353   1.15908   1.16208   1.19388
 Alpha virt. eigenvalues --    1.20752   1.23189   1.24588   1.29366   1.32089
 Alpha virt. eigenvalues --    1.33637   1.34979   1.37799   1.40198   1.40446
 Alpha virt. eigenvalues --    1.46222   1.47411   1.48899   1.49565   1.51810
 Alpha virt. eigenvalues --    1.55324   1.60390   1.77091   1.80273   1.85081
 Alpha virt. eigenvalues --    1.86515   1.88178   1.88577   1.93578   1.95279
 Alpha virt. eigenvalues --    1.98889   2.01024   2.04283   2.10196   2.13722
 Alpha virt. eigenvalues --    2.14014   2.15017   2.20284   2.21968   2.25015
 Alpha virt. eigenvalues --    2.25711   2.28604   2.34580   2.37761   2.41556
 Alpha virt. eigenvalues --    2.48858   2.53382   2.59519   2.61666   2.62149
 Alpha virt. eigenvalues --    2.63932   2.70593   2.76856   2.79413   2.82180
 Alpha virt. eigenvalues --    2.91553   2.94608   3.03134   3.21237   3.36372
 Alpha virt. eigenvalues --    4.13382   4.20549   4.24011   4.27402   4.31795
 Alpha virt. eigenvalues --    4.36599   4.43664   4.48088   4.73550
          Condensed to atoms (all electrons):
               1          2          3          4          5          6
     1  C    6.161127   0.047594   0.775237  -0.616623  -0.024399  -0.688226
     2  C    0.047594   6.343484  -1.005416   0.422228  -0.349336   0.894368
     3  C    0.775237  -1.005416  16.248920  -2.207974  -5.798809  -3.539635
     4  C   -0.616623   0.422228  -2.207974  14.215122  -4.425848  -1.593291
     5  C   -0.024399  -0.349336  -5.798809  -4.425848  17.813291   0.039047
     6  C   -0.688226   0.894368  -3.539635  -1.593291   0.039047  13.716886
     7  N   -0.038858   0.038904  -0.496164  -0.333017   0.889394   0.135629
     8  C    0.243349  -0.418899   3.715108   2.323306  -5.843219  -3.681935
     9  C   -0.135301   0.068614  -1.460138  -0.735445   2.132433   1.066049
    10  H   -0.004879  -0.004489  -0.175210  -0.062270   0.205215   0.022562
    11  H    0.006241   0.001706   0.000788  -0.023602   0.053878   0.060242
    12  H    0.002126  -0.000744   0.044153   0.128147  -0.153644  -0.021693
    13  H    0.054372   0.213168  -0.005458   0.021497   0.002236   0.014365
    14  H   -0.024186   0.103236  -0.126798   0.294365   0.033633   0.025028
    15  H    0.220272   0.037135   0.034506  -0.030110   0.049155  -0.021200
    16  H    0.088770  -0.007003  -0.001156  -0.017969   0.232052  -0.000007
               7          8          9         10         11         12
     1  C   -0.038858   0.243349  -0.135301  -0.004879   0.006241   0.002126
     2  C    0.038904  -0.418899   0.068614  -0.004489   0.001706  -0.000744
     3  C   -0.496164   3.715108  -1.460138  -0.175210   0.000788   0.044153
     4  C   -0.333017   2.323306  -0.735445  -0.062270  -0.023602   0.128147
     5  C    0.889394  -5.843219   2.132433   0.205215   0.053878  -0.153644
     6  C    0.135629  -3.681935   1.066049   0.022562   0.060242  -0.021693
     7  N    7.177049  -0.789235   0.604277   0.254542   0.004844  -0.051405
     8  C   -0.789235  12.262826  -2.180338   0.008877   0.180842   0.122688
     9  C    0.604277  -2.180338   6.599867  -0.023030   0.011607   0.242016
    10  H    0.254542   0.008877  -0.023030   0.339922  -0.000081  -0.002310
    11  H    0.004844   0.180842   0.011607  -0.000081   0.473207  -0.000519
    12  H   -0.051405   0.122688   0.242016  -0.002310  -0.000519   0.465004
    13  H   -0.000425  -0.001345   0.001717  -0.000002   0.000000  -0.000000
    14  H   -0.006606  -0.030393   0.021492   0.002061   0.000002   0.000001
    15  H    0.000306   0.012349  -0.000675  -0.000000  -0.000002  -0.000000
    16  H   -0.000415  -0.011586   0.005755   0.000004   0.001425  -0.000001
              13         14         15         16
     1  C    0.054372  -0.024186   0.220272   0.088770
     2  C    0.213168   0.103236   0.037135  -0.007003
     3  C   -0.005458  -0.126798   0.034506  -0.001156
     4  C    0.021497   0.294365  -0.030110  -0.017969
     5  C    0.002236   0.033633   0.049155   0.232052
     6  C    0.014365   0.025028  -0.021200  -0.000007
     7  N   -0.000425  -0.006606   0.000306  -0.000415
     8  C   -0.001345  -0.030393   0.012349  -0.011586
     9  C    0.001717   0.021492  -0.000675   0.005755
    10  H   -0.000002   0.002061  -0.000000   0.000004
    11  H    0.000000   0.000002  -0.000002   0.001425
    12  H   -0.000000   0.000001  -0.000000  -0.000001
    13  H    0.527198  -0.003645  -0.004975  -0.000142
    14  H   -0.003645   0.533438  -0.000133   0.000014
    15  H   -0.004975  -0.000133   0.527011  -0.003474
    16  H   -0.000142   0.000014  -0.003474   0.533177
 Mulliken charges:
               1
     1  C   -0.066615
     2  C   -0.384549
     3  C   -0.001955
     4  C   -1.358516
     5  C    1.144920
     6  C   -0.428188
     7  N   -0.388819
     8  C    0.087604
     9  C   -0.218901
    10  H    0.439089
    11  H    0.229423
    12  H    0.226184
    13  H    0.181440
    14  H    0.178493
    15  H    0.179835
    16  H    0.180556
 Sum of Mulliken charges =   0.00000
 Mulliken charges with hydrogens summed into heavy atoms:
               1
     1  C    0.113220
     2  C   -0.203109
     3  C    0.176538
     4  C   -1.358516
     5  C    1.144920
     6  C   -0.247632
     7  N    0.050270
     8  C    0.317027
     9  C    0.007282
 Electronic spatial extent (au):  <R**2>=           1021.7728
 Charge=              0.0000 electrons
 Dipole moment (field-independent basis, Debye):
    X=              4.1654    Y=             -1.1619    Z=             -0.0011  Tot=              4.3244
 Quadrupole moment (field-independent basis, Debye-Ang):
   XX=            -44.6234   YY=            -46.6336   ZZ=            -60.6475
   XY=             -2.0712   XZ=             -0.0049   YZ=              0.0020
 Traceless Quadrupole moment (field-independent basis, Debye-Ang):
   XX=              6.0114   YY=              4.0013   ZZ=            -10.0127
   XY=             -2.0712   XZ=             -0.0049   YZ=              0.0020
 Octapole moment (field-independent basis, Debye-Ang**2):
  XXX=             27.1873  YYY=             -8.7640  ZZZ=             -0.0057  XYY=             15.3798
  XXY=             -6.7831  XXZ=             -0.0062  XZZ=              4.7406  YZZ=             -0.9488
  YYZ=             -0.0043  XYZ=              0.0036
 Hexadecapole moment (field-independent basis, Debye-Ang**3):
 XXXX=           -844.6344 YYYY=           -400.6541 ZZZZ=            -89.2642 XXXY=            -16.3303
 XXXZ=             -0.0443 YYYX=            -14.4297 YYYZ=              0.0020 ZZZX=             -0.0154
 ZZZY=              0.0021 XXYY=           -197.9359 XXZZ=           -202.1270 YYZZ=           -106.4926
 XXYZ=              0.0115 YYXZ=             -0.0100 ZZXY=             -1.0534
 N-N= 3.982862954998D+02 E-N=-1.637757715149D+03  KE= 3.593689231677D+02
 Unable to Open any file for archive entry.
 1\1\GINC-EXP-1-30\FOpt\RM06 TD-FC\6-31+G(d)\C8H7N1\SCAPARAS\09-Jun-202
 1\0\\# td= (nstates=6, root=2) M06/6-31+G* Opt density=current\\FuncsM
 062nd\\0,1\C,-2.1790824176,0.6848791614,0.0033859017\C,-2.1481014497,-
 0.6969979308,0.0025148944\C,-0.9117815036,-1.4415763156,-0.0002044684\
 C,0.243539241,-0.6552618168,-0.0017751421\C,0.2428527508,0.7475491184,
 -0.0009543637\C,-0.9897217261,1.4643071985,0.001444292\N,1.5871602066,
 -1.0637820605,-0.0034560298\C,1.598927993,1.1578395063,-0.0020532075\C
 ,2.4203078725,-0.0071836851,-0.0036878898\H,1.8837969737,-2.0325186475
 ,-0.0047968907\H,1.9747824116,2.1752857193,-0.001687677\H,3.4971683388
 ,-0.1121978219,-0.0058557213\H,-3.0860787867,-1.2507444348,0.004035492
 4\H,-0.8929634617,-2.5283405019,-0.0012796967\H,-3.1432436374,1.191246
 5629,0.0057150449\H,-1.0139128053,2.5515759479,0.0016454616\\Version=A
 S64L-G16RevC.01\State=1-A\HF=-363.5416821\RMSD=8.496e-09\RMSF=2.133e-0
 5\Dipole=1.638778,-0.4571247,-0.0004427\Quadrupole=4.4693414,2.97484,-
 7.4441815,-1.5398742,-0.0036255,0.0014977\PG=C01 [X(C8H7N1)]\\@
 The archive entry for this job was punched.


 SIGN SEEN IN A RESTAURANT-
 WE RESERVE THE RIGHT TO SERVE REFUSE TO ANYONE.
 Job cpu time:       0 days  5 hours 54 minutes 38.5 seconds.
 Elapsed time:       0 days  1 hours 29 minutes 10.7 seconds.
 File lengths (MBytes):  RWF=    238 Int=      0 D2E=      0 Chk=     16 Scr=      1
 Normal termination of Gaussian 16 at Wed Jun  9 10:00:44 2021.
