 Entering Gaussian System, Link 0=/cm/shared/apps/spack/cpu/opt/spack/linux-centos8-zen/gcc-8.3.1/gaussian-16.C.01-po5bqktfeugvmjyga3v7eigbecnokxng/g16/g16
 Initial command:
 /cm/shared/apps/spack/cpu/opt/spack/linux-centos8-zen/gcc-8.3.1/gaussian-16.C.01-po5bqktfeugvmjyga3v7eigbecnokxng/g16/l1.exe "/scratch/scaparas/job_3351588/Gau-82204.inp" -scrdir="/scratch/scaparas/job_3351588/"
 Entering Link 1 = /cm/shared/apps/spack/cpu/opt/spack/linux-centos8-zen/gcc-8.3.1/gaussian-16.C.01-po5bqktfeugvmjyga3v7eigbecnokxng/g16/l1.exe PID=     82205.
  
 Copyright (c) 1988-2019, Gaussian, Inc.  All Rights Reserved.
  
 This is part of the Gaussian(R) 16 program.  It is based on
 the Gaussian(R) 09 system (copyright 2009, Gaussian, Inc.),
 the Gaussian(R) 03 system (copyright 2003, Gaussian, Inc.),
 the Gaussian(R) 98 system (copyright 1998, Gaussian, Inc.),
 the Gaussian(R) 94 system (copyright 1995, Gaussian, Inc.),
 the Gaussian 92(TM) system (copyright 1992, Gaussian, Inc.),
 the Gaussian 90(TM) system (copyright 1990, Gaussian, Inc.),
 the Gaussian 88(TM) system (copyright 1988, Gaussian, Inc.),
 the Gaussian 86(TM) system (copyright 1986, Carnegie Mellon
 University), and the Gaussian 82(TM) system (copyright 1983,
 Carnegie Mellon University). Gaussian is a federally registered
 trademark of Gaussian, Inc.
  
 This software contains proprietary and confidential information,
 including trade secrets, belonging to Gaussian, Inc.
  
 This software is provided under written license and may be
 used, copied, transmitted, or stored only in accord with that
 written license.
  
 The following legend is applicable only to US Government
 contracts under FAR:
  
                    RESTRICTED RIGHTS LEGEND
  
 Use, reproduction and disclosure by the US Government is
 subject to restrictions as set forth in subparagraphs (a)
 and (c) of the Commercial Computer Software - Restricted
 Rights clause in FAR 52.227-19.
  
 Gaussian, Inc.
 340 Quinnipiac St., Bldg. 40, Wallingford CT 06492
  
  
 ---------------------------------------------------------------
 Warning -- This program may not be used in any manner that
 competes with the business of Gaussian, Inc. or will provide
 assistance to any competitor of Gaussian, Inc.  The licensee
 of this program is prohibited from giving any competitor of
 Gaussian, Inc. access to this program.  By using this program,
 the user acknowledges that Gaussian, Inc. is engaged in the
 business of creating and licensing software in the field of
 computational chemistry and represents and warrants to the
 licensee that it is not a competitor of Gaussian, Inc. and that
 it will not use this program in any manner prohibited above.
 ---------------------------------------------------------------
  

 Cite this work as:
 Gaussian 16, Revision C.01,
 M. J. Frisch, G. W. Trucks, H. B. Schlegel, G. E. Scuseria, 
 M. A. Robb, J. R. Cheeseman, G. Scalmani, V. Barone, 
 G. A. Petersson, H. Nakatsuji, X. Li, M. Caricato, A. V. Marenich, 
 J. Bloino, B. G. Janesko, R. Gomperts, B. Mennucci, H. P. Hratchian, 
 J. V. Ortiz, A. F. Izmaylov, J. L. Sonnenberg, D. Williams-Young, 
 F. Ding, F. Lipparini, F. Egidi, J. Goings, B. Peng, A. Petrone, 
 T. Henderson, D. Ranasinghe, V. G. Zakrzewski, J. Gao, N. Rega, 
 G. Zheng, W. Liang, M. Hada, M. Ehara, K. Toyota, R. Fukuda, 
 J. Hasegawa, M. Ishida, T. Nakajima, Y. Honda, O. Kitao, H. Nakai, 
 T. Vreven, K. Throssell, J. A. Montgomery, Jr., J. E. Peralta, 
 F. Ogliaro, M. J. Bearpark, J. J. Heyd, E. N. Brothers, K. N. Kudin, 
 V. N. Staroverov, T. A. Keith, R. Kobayashi, J. Normand, 
 K. Raghavachari, A. P. Rendell, J. C. Burant, S. S. Iyengar, 
 J. Tomasi, M. Cossi, J. M. Millam, M. Klene, C. Adamo, R. Cammi, 
 J. W. Ochterski, R. L. Martin, K. Morokuma, O. Farkas, 
 J. B. Foresman, and D. J. Fox, Gaussian, Inc., Wallingford CT, 2019.
 
 ******************************************
 Gaussian 16:  AS64L-G16RevC.01  3-Jul-2019
                11-Jun-2021 
 ******************************************
 %nprocshared=4
 Will use up to    4 processors via shared memory.
 %chk=FuncsCAM-B3LYPII2nd.chk
 %Mem=3GB
 ---------------------------------------------------------------
 # td= (nstates=6, root=2) CAM-B3LYP/6-31+G* Opt density=current
 ---------------------------------------------------------------
 1/18=20,19=15,26=3,38=1/1,3;
 2/9=110,12=2,17=6,18=5,40=1/2;
 3/5=1,6=6,7=11,11=9,25=1,30=1,71=1,74=-40/1,2,3,8;
 4//1;
 5/5=2,38=5/2;
 8/6=1,10=2,107=2,108=6/1;
 9/8=2,15=2,41=6,42=1,70=2/14;
 10/5=4,28=2/2;
 6/7=2,8=2,9=2,10=2,22=-1/1;
 7/12=6,13=5,14=2/1,2,3,16;
 1/18=20,19=15,26=3/3(2);
 2/9=110/2;
 99//99;
 2/9=110/2;
 3/5=1,6=6,7=11,11=9,25=1,30=1,71=1,74=-40/1,2,3,8;
 4/5=5,16=3,69=1/1;
 5/5=2,38=5/2;
 8/6=1,10=2,107=2,108=6/1;
 9/8=2,15=2,41=6,42=1,49=4,70=2/14;
 10/5=4,28=2/2;
 7/12=6,13=5,14=2/1,2,3,16;
 1/18=20,19=15,26=3/3(-8);
 2/9=110/2;
 6/7=2,8=2,9=2,10=2,22=-1/1;
 99/9=10/99;
 -------------------
 FuncsCAM-B3LYPII2nd
 -------------------
 Symbolic Z-matrix:
 Charge =  0 Multiplicity = 1
 C                    -2.15106   0.68921   0.00009 
 C                    -2.12793  -0.71582   0.00008 
 C                    -0.9323   -1.4131   -0.00001 
 C                     0.24691  -0.6702   -0.00004 
 C                     0.24819   0.7483    0. 
 C                    -0.97947   1.42353   0.00003 
 N                     1.56177  -1.07759  -0.00029 
 C                     1.62013   1.1629   -0.00016 
 C                     2.38201   0.03081   0.00025 
 H                     1.87632  -2.03001   0.00044 
 H                     1.99217   2.17301  -0.00035 
 H                     3.45255  -0.08243   0.00041 
 H                    -3.06159  -1.26202   0.00009 
 H                    -0.91725  -2.49534  -0.00007 
 H                    -3.1042    1.20079   0.00009 
 H                    -1.00935   2.50542  -0.00002 
 

 GradGradGradGradGradGradGradGradGradGradGradGradGradGradGradGradGradGrad
 Berny optimization.
 Initialization pass.
                           ----------------------------
                           !    Initial Parameters    !
                           ! (Angstroms and Degrees)  !
 --------------------------                            --------------------------
 ! Name  Definition              Value          Derivative Info.                !
 --------------------------------------------------------------------------------
 ! R1    R(1,2)                  1.4052         estimate D2E/DX2                !
 ! R2    R(1,6)                  1.3827         estimate D2E/DX2                !
 ! R3    R(1,15)                 1.0818         estimate D2E/DX2                !
 ! R4    R(2,3)                  1.3841         estimate D2E/DX2                !
 ! R5    R(2,13)                 1.0817         estimate D2E/DX2                !
 ! R6    R(3,4)                  1.3937         estimate D2E/DX2                !
 ! R7    R(3,14)                 1.0823         estimate D2E/DX2                !
 ! R8    R(4,5)                  1.4185         estimate D2E/DX2                !
 ! R9    R(4,7)                  1.3765         estimate D2E/DX2                !
 ! R10   R(5,6)                  1.4011         estimate D2E/DX2                !
 ! R11   R(5,8)                  1.4332         estimate D2E/DX2                !
 ! R12   R(6,16)                 1.0823         estimate D2E/DX2                !
 ! R13   R(7,9)                  1.3789         estimate D2E/DX2                !
 ! R14   R(7,10)                 1.003          estimate D2E/DX2                !
 ! R15   R(8,9)                  1.3646         estimate D2E/DX2                !
 ! R16   R(8,11)                 1.0764         estimate D2E/DX2                !
 ! R17   R(9,12)                 1.0765         estimate D2E/DX2                !
 ! A1    A(2,1,6)              121.1349         estimate D2E/DX2                !
 ! A2    A(2,1,15)             119.1671         estimate D2E/DX2                !
 ! A3    A(6,1,15)             119.698          estimate D2E/DX2                !
 ! A4    A(1,2,3)              121.1938         estimate D2E/DX2                !
 ! A5    A(1,2,13)             119.3846         estimate D2E/DX2                !
 ! A6    A(3,2,13)             119.4217         estimate D2E/DX2                !
 ! A7    A(2,3,4)              117.5387         estimate D2E/DX2                !
 ! A8    A(2,3,14)             121.0469         estimate D2E/DX2                !
 ! A9    A(4,3,14)             121.4144         estimate D2E/DX2                !
 ! A10   A(3,4,5)              122.2626         estimate D2E/DX2                !
 ! A11   A(3,4,7)              130.5743         estimate D2E/DX2                !
 ! A12   A(5,4,7)              107.163          estimate D2E/DX2                !
 ! A13   A(4,5,6)              118.7594         estimate D2E/DX2                !
 ! A14   A(4,5,8)              106.8666         estimate D2E/DX2                !
 ! A15   A(6,5,8)              134.374          estimate D2E/DX2                !
 ! A16   A(1,6,5)              119.1105         estimate D2E/DX2                !
 ! A17   A(1,6,16)             120.4966         estimate D2E/DX2                !
 ! A18   A(5,6,16)             120.3928         estimate D2E/DX2                !
 ! A19   A(4,7,9)              109.2874         estimate D2E/DX2                !
 ! A20   A(4,7,10)             125.4909         estimate D2E/DX2                !
 ! A21   A(9,7,10)             125.2217         estimate D2E/DX2                !
 ! A22   A(5,8,9)              107.125          estimate D2E/DX2                !
 ! A23   A(5,8,11)             127.0344         estimate D2E/DX2                !
 ! A24   A(9,8,11)             125.8405         estimate D2E/DX2                !
 ! A25   A(7,9,8)              109.5578         estimate D2E/DX2                !
 ! A26   A(7,9,12)             120.4645         estimate D2E/DX2                !
 ! A27   A(8,9,12)             129.9776         estimate D2E/DX2                !
 ! D1    D(6,1,2,3)             -0.0008         estimate D2E/DX2                !
 ! D2    D(6,1,2,13)          -179.9981         estimate D2E/DX2                !
 ! D3    D(15,1,2,3)           179.996          estimate D2E/DX2                !
 ! D4    D(15,1,2,13)           -0.0013         estimate D2E/DX2                !
 ! D5    D(2,1,6,5)             -0.0018         estimate D2E/DX2                !
 ! D6    D(2,1,6,16)           179.9965         estimate D2E/DX2                !
 ! D7    D(15,1,6,5)          -179.9986         estimate D2E/DX2                !
 ! D8    D(15,1,6,16)           -0.0003         estimate D2E/DX2                !
 ! D9    D(1,2,3,4)              0.002          estimate D2E/DX2                !
 ! D10   D(1,2,3,14)          -179.9968         estimate D2E/DX2                !
 ! D11   D(13,2,3,4)           179.9992         estimate D2E/DX2                !
 ! D12   D(13,2,3,14)            0.0005         estimate D2E/DX2                !
 ! D13   D(2,3,4,5)             -0.0005         estimate D2E/DX2                !
 ! D14   D(2,3,4,7)           -179.9911         estimate D2E/DX2                !
 ! D15   D(14,3,4,5)           179.9982         estimate D2E/DX2                !
 ! D16   D(14,3,4,7)             0.0076         estimate D2E/DX2                !
 ! D17   D(3,4,5,6)             -0.002          estimate D2E/DX2                !
 ! D18   D(3,4,5,8)           -179.9955         estimate D2E/DX2                !
 ! D19   D(7,4,5,6)            179.9905         estimate D2E/DX2                !
 ! D20   D(7,4,5,8)             -0.003          estimate D2E/DX2                !
 ! D21   D(3,4,7,9)           -179.98           estimate D2E/DX2                !
 ! D22   D(3,4,7,10)            -0.0649         estimate D2E/DX2                !
 ! D23   D(5,4,7,9)              0.0284         estimate D2E/DX2                !
 ! D24   D(5,4,7,10)           179.9434         estimate D2E/DX2                !
 ! D25   D(4,5,6,1)              0.0031         estimate D2E/DX2                !
 ! D26   D(4,5,6,16)          -179.9951         estimate D2E/DX2                !
 ! D27   D(8,5,6,1)            179.9944         estimate D2E/DX2                !
 ! D28   D(8,5,6,16)            -0.0038         estimate D2E/DX2                !
 ! D29   D(4,5,8,9)             -0.0234         estimate D2E/DX2                !
 ! D30   D(4,5,8,11)           179.9883         estimate D2E/DX2                !
 ! D31   D(6,5,8,9)            179.9846         estimate D2E/DX2                !
 ! D32   D(6,5,8,11)            -0.0037         estimate D2E/DX2                !
 ! D33   D(4,7,9,8)             -0.0444         estimate D2E/DX2                !
 ! D34   D(4,7,9,12)           179.9847         estimate D2E/DX2                !
 ! D35   D(10,7,9,8)          -179.9597         estimate D2E/DX2                !
 ! D36   D(10,7,9,12)            0.0693         estimate D2E/DX2                !
 ! D37   D(5,8,9,7)              0.0414         estimate D2E/DX2                !
 ! D38   D(5,8,9,12)          -179.9913         estimate D2E/DX2                !
 ! D39   D(11,8,9,7)          -179.9702         estimate D2E/DX2                !
 ! D40   D(11,8,9,12)           -0.0029         estimate D2E/DX2                !
 --------------------------------------------------------------------------------
 Trust Radius=3.00D-01 FncErr=1.00D-07 GrdErr=1.00D-06 EigMax=2.50D+02 EigMin=1.00D-04
 Number of steps in this run=     94 maximum allowed number of steps=    100.
 GradGradGradGradGradGradGradGradGradGradGradGradGradGradGradGradGradGrad

                          Input orientation:                          
 ---------------------------------------------------------------------
 Center     Atomic      Atomic             Coordinates (Angstroms)
 Number     Number       Type             X           Y           Z
 ---------------------------------------------------------------------
      1          6           0       -2.151063    0.689208    0.000088
      2          6           0       -2.127927   -0.715818    0.000075
      3          6           0       -0.932297   -1.413100   -0.000011
      4          6           0        0.246911   -0.670201   -0.000042
      5          6           0        0.248193    0.748299    0.000000
      6          6           0       -0.979474    1.423526    0.000032
      7          7           0        1.561774   -1.077592   -0.000285
      8          6           0        1.620133    1.162900   -0.000157
      9          6           0        2.382013    0.030806    0.000248
     10          1           0        1.876315   -2.030011    0.000438
     11          1           0        1.992173    2.173010   -0.000348
     12          1           0        3.452549   -0.082425    0.000408
     13          1           0       -3.061594   -1.262020    0.000088
     14          1           0       -0.917252   -2.495342   -0.000073
     15          1           0       -3.104203    1.200785    0.000090
     16          1           0       -1.009348    2.505421   -0.000015
 ---------------------------------------------------------------------
                    Distance matrix (angstroms):
                    1          2          3          4          5
     1  C    0.000000
     2  C    1.405216   0.000000
     3  C    2.430039   1.384100   0.000000
     4  C    2.756496   2.375276   1.393711   0.000000
     5  C    2.399984   2.790983   2.462763   1.418501   0.000000
     6  C    1.382694   2.428114   2.837018   2.426461   1.401106
     7  N    4.111781   3.707395   2.516536   1.376529   2.249305
     8  C    3.800829   4.192557   3.626386   2.290414   1.433218
     9  C    4.580641   4.571324   3.615178   2.247236   2.251218
    10  H    4.859416   4.214387   2.875566   2.122273   3.220216
    11  H    4.400917   5.031953   4.627387   3.336134   2.251948
    12  H    5.656491   5.616307   4.582311   3.259079   3.310287
    13  H    2.153220   1.081698   2.134650   3.361020   3.872476
    14  H    3.415208   2.152310   1.082347   2.164813   3.446661
    15  H    1.081752   2.150926   3.398466   3.838040   3.382795
    16  H    2.145261   3.409927   3.919278   3.415079   2.160761
                    6          7          8          9         10
     6  C    0.000000
     7  N    3.565604   0.000000
     8  C    2.612639   2.241252   0.000000
     9  C    3.638580   1.378890   1.364587   0.000000
    10  H    4.481345   1.003015   3.203172   2.121956   0.000000
    11  H    3.064704   3.278972   1.076446   2.177387   4.204618
    12  H    4.680888   2.136677   2.215532   1.076508   2.505515
    13  H    3.398144   4.627045   5.272457   5.595021   4.997275
    14  H    3.919362   2.855798   4.452085   4.155307   2.832058
    15  H    2.136372   5.192528   4.724488   5.609583   5.936632
    16  H    1.082307   4.410062   2.952378   4.198220   5.375611
                   11         12         13         14         15
    11  H    0.000000
    12  H    2.686947   0.000000
    13  H    6.110646   6.620083   0.000000
    14  H    5.500751   4.991726   2.473719   0.000000
    15  H    5.188282   6.681139   2.463174   4.294661   0.000000
    16  H    3.019872   5.158049   4.290143   5.001611   2.467892
                   16
    16  H    0.000000
 Stoichiometry    C8H7N
 Framework group  C1[X(C8H7N)]
 Deg. of freedom    42
 Full point group                 C1      NOp   1
 Largest Abelian subgroup         C1      NOp   1
 Largest concise Abelian subgroup C1      NOp   1
                         Standard orientation:                         
 ---------------------------------------------------------------------
 Center     Atomic      Atomic             Coordinates (Angstroms)
 Number     Number       Type             X           Y           Z
 ---------------------------------------------------------------------
      1          6           0       -2.151063    0.689208    0.000088
      2          6           0       -2.127927   -0.715818    0.000075
      3          6           0       -0.932297   -1.413100   -0.000011
      4          6           0        0.246911   -0.670201   -0.000042
      5          6           0        0.248193    0.748299    0.000000
      6          6           0       -0.979474    1.423526    0.000032
      7          7           0        1.561774   -1.077592   -0.000285
      8          6           0        1.620133    1.162900   -0.000157
      9          6           0        2.382013    0.030806    0.000248
     10          1           0        1.876315   -2.030011    0.000438
     11          1           0        1.992173    2.173010   -0.000348
     12          1           0        3.452549   -0.082425    0.000408
     13          1           0       -3.061594   -1.262020    0.000088
     14          1           0       -0.917252   -2.495342   -0.000073
     15          1           0       -3.104203    1.200785    0.000090
     16          1           0       -1.009348    2.505421   -0.000015
 ---------------------------------------------------------------------
 Rotational constants (GHZ):           3.9080822           1.6429452           1.1566805
 Standard basis: 6-31+G(d) (6D, 7F)
 There are   185 symmetry adapted cartesian basis functions of A   symmetry.
 There are   185 symmetry adapted basis functions of A   symmetry.
   185 basis functions,   316 primitive gaussians,   185 cartesian basis functions
    31 alpha electrons       31 beta electrons
       nuclear repulsion energy       401.3368668897 Hartrees.
 NAtoms=   16 NActive=   16 NUniq=   16 SFac= 1.00D+00 NAtFMM=   60 NAOKFM=F Big=F
 Integral buffers will be    131072 words long.
 Raffenetti 1 integral format.
 Two-electron integral symmetry is turned on.
 One-electron integrals computed using PRISM.
 NBasis=   185 RedAO= T EigKep=  1.26D-06  NBF=   185
 NBsUse=   185 1.00D-06 EigRej= -1.00D+00 NBFU=   185
 ExpMin= 4.38D-02 ExpMax= 4.17D+03 ExpMxC= 6.27D+02 IAcc=3 IRadAn=         5 AccDes= 0.00D+00
 Harris functional with IExCor=20419 and IRadAn=       5 diagonalized for initial guess.
 HarFok:  IExCor=20419 AccDes= 0.00D+00 IRadAn=         5 IDoV= 1 UseB2=F ITyADJ=14
 ICtDFT=  3500011 ScaDFX=  1.000000  1.000000  1.000000  1.000000
 FoFCou: FMM=F IPFlag=           0 FMFlag=      100000 FMFlg1=           0
         NFxFlg=           0 DoJE=T BraDBF=F KetDBF=T FulRan=T
         wScrn=  0.000000 ICntrl=       500 IOpCl=  0 I1Cent=   200000004 NGrid=           0
         NMat0=    1 NMatS0=      1 NMatT0=    0 NMatD0=    1 NMtDS0=    0 NMtDT0=    0
 Petite list used in FoFCou.
 Keep R1 ints in memory in canonical form, NReq=303303409.
 Requested convergence on RMS density matrix=1.00D-08 within 128 cycles.
 Requested convergence on MAX density matrix=1.00D-06.
 Requested convergence on             energy=1.00D-06.
 No special actions if energy rises.
 SCF Done:  E(RCAM-B3LYP) =  -363.624676885     A.U. after   15 cycles
            NFock= 15  Conv=0.38D-08     -V/T= 2.0091
 DoSCS=F DFT=T ScalE2(SS,OS)=  1.000000  1.000000
 ExpMin= 4.38D-02 ExpMax= 4.17D+03 ExpMxC= 6.27D+02 IAcc=3 IRadAn=         5 AccDes= 0.00D+00
 HarFok:  IExCor=  205 AccDes= 0.00D+00 IRadAn=         5 IDoV=-2 UseB2=F ITyADJ=14
 ICtDFT= 12500011 ScaDFX=  1.000000  1.000000  1.000000  1.000000
 Range of M.O.s used for correlation:    10   185
 NBasis=   185 NAE=    31 NBE=    31 NFC=     9 NFV=     0
 NROrb=    176 NOA=    22 NOB=    22 NVA=   154 NVB=   154

 **** Warning!!: The largest alpha MO coefficient is  0.20756579D+03

 Orbital symmetries:
       Occupied  (A) (A) (A) (A) (A) (A) (A) (A) (A) (A) (A) (A)
                 (A) (A) (A) (A) (A) (A) (A) (A) (A) (A) (A) (A)
                 (A) (A) (A) (A) (A) (A) (A)
       Virtual   (A) (A) (A) (A) (A) (A) (A) (A) (A) (A) (A) (A)
                 (A) (A) (A) (A) (A) (A) (A) (A) (A) (A) (A) (A)
                 (A) (A) (A) (A) (A) (A) (A) (A) (A) (A) (A) (A)
                 (A) (A) (A) (A) (A) (A) (A) (A) (A) (A) (A) (A)
                 (A) (A) (A) (A) (A) (A) (A) (A) (A) (A) (A) (A)
                 (A) (A) (A) (A) (A) (A) (A) (A) (A) (A) (A) (A)
                 (A) (A) (A) (A) (A) (A) (A) (A) (A) (A) (A) (A)
                 (A) (A) (A) (A) (A) (A) (A) (A) (A) (A) (A) (A)
                 (A) (A) (A) (A) (A) (A) (A) (A) (A) (A) (A) (A)
                 (A) (A) (A) (A) (A) (A) (A) (A) (A) (A) (A) (A)
                 (A) (A) (A) (A) (A) (A) (A) (A) (A) (A) (A) (A)
                 (A) (A) (A) (A) (A) (A) (A) (A) (A) (A) (A) (A)
                 (A) (A) (A) (A) (A) (A) (A) (A) (A) (A)
    24 initial guesses have been made.
 Convergence on wavefunction:    0.000001000000000
 Iteration     1 Dimension    24 NMult     0 NNew     24
 CISAX will form    24 AO SS matrices at one time.
 New state      2 was old state      4
 New state      3 was old state      2
 New state      4 was old state      3
 Iteration     2 Dimension    36 NMult    24 NNew     12
 New state      1 was old state      2
 New state      2 was old state      3
 New state      3 was old state      1
 Iteration     3 Dimension    48 NMult    36 NNew     12
 Iteration     4 Dimension    60 NMult    48 NNew     12
 Iteration     5 Dimension    72 NMult    60 NNew     12
 Iteration     6 Dimension    84 NMult    72 NNew     12
 Iteration     7 Dimension    96 NMult    84 NNew     12
 Iteration     8 Dimension   108 NMult    96 NNew     12
 Iteration     9 Dimension   120 NMult   108 NNew     12
 Iteration    10 Dimension   126 NMult   120 NNew      6
 Iteration    11 Dimension   130 NMult   126 NNew      4
 ***********************************************************************
 Excited states from <AA,BB:AA,BB> singles matrix:
 ***********************************************************************
 
 Ground to excited state transition densities written to RWF  633
 Ground to excited state transition electric dipole moments (Au):
       state          X           Y           Z        Dip. S.      Osc.
         1        -0.0609      0.6010     -0.0001      0.3649      0.0452
         2         0.8731     -0.3508      0.0003      0.8854      0.1107
         3         0.0011     -0.0008     -0.1552      0.0241      0.0031
         4        -0.0005     -0.0000     -0.1658      0.0275      0.0039
         5         0.0005     -0.0000     -0.0108      0.0001      0.0000
         6         0.0010      0.0003      0.1219      0.0149      0.0022
 Ground to excited state transition velocity dipole moments (Au):
       state          X           Y           Z        Dip. S.      Osc.
         1         0.0077     -0.1193      0.0000      0.0143      0.0512
         2        -0.1524      0.0711     -0.0000      0.0283      0.1005
         3        -0.0002      0.0002      0.0202      0.0004      0.0014
         4         0.0001      0.0000      0.0368      0.0014      0.0042
         5        -0.0001     -0.0000      0.0027      0.0000      0.0000
         6        -0.0002     -0.0001     -0.0267      0.0007      0.0022
 Ground to excited state transition magnetic dipole moments (Au):
       state          X           Y           Z
         1         0.0003      0.0001      0.1759
         2        -0.0002      0.0003     -0.0518
         3         0.1421     -0.0938     -0.0001
         4         0.0898     -0.3078     -0.0001
         5         0.2953     -0.2529      0.0002
         6         0.2520      0.3539      0.0008
 Ground to excited state transition velocity quadrupole moments (Au):
       state          XX          YY          ZZ          XY          XZ          YZ
         1         0.1280     -0.0197     -0.0051      0.0270      0.0000      0.0001
         2        -0.2097      0.1810     -0.0299     -0.0041     -0.0002     -0.0001
         3        -0.0004      0.0002      0.0001     -0.0000      0.0804      0.0670
         4         0.0000      0.0000      0.0000     -0.0000      0.2233      0.0318
         5        -0.0003      0.0000      0.0000      0.0002      0.2982      0.2951
         6        -0.0000     -0.0001      0.0001      0.0005     -0.2877      0.1299
 <0|del|b> * <b|rxdel|0> + <0|del|b> * <b|delr+rdel|0>
 Rotatory Strengths (R) in cgs (10**-40 erg-esu-cm/Gauss)
       state          XX          YY          ZZ    R(velocity)    E-M Angle
         1        -0.0001      0.0086     -0.0181     -0.0032       90.00
         2         0.0743      0.0969      0.0599      0.0770       90.00
         3        -0.0566     -0.0762     -0.0308     -0.0545       90.00
         4        -0.0076      0.0170      0.0100      0.0065       90.00
         5         0.0048     -0.1094     -0.0003     -0.0350       90.00
         6        -0.1091     -0.1434     -0.0468     -0.0998       90.00
 1/2[<0|r|b>*<b|rxdel|0> + (<0|rxdel|b>*<b|r|0>)*]
 Rotatory Strengths (R) in cgs (10**-40 erg-esu-cm/Gauss)
       state          XX          YY          ZZ     R(length)
         1         0.0130     -0.0231      0.0118      0.0006
         2         0.1537      0.0735      0.0111      0.0794
         3        -0.1134     -0.0537     -0.0076     -0.0582
         4         0.0304     -0.0045     -0.0107      0.0051
         5        -0.1125     -0.0008      0.0014     -0.0373
         6        -0.1802     -0.0754     -0.0698     -0.1085
  1/2[<0|del|b>*<b|r|0> + (<0|r|b>*<b|del|0>)*] (Au)
       state          X           Y           Z        Dip. S.   Osc.(frdel)
         1        -0.0005     -0.0717     -0.0000      0.0721      0.0481
         2        -0.1331     -0.0249     -0.0000      0.1580      0.1054
         3        -0.0000     -0.0000     -0.0031      0.0031      0.0021
         4        -0.0000     -0.0000     -0.0061      0.0061      0.0041
         5        -0.0000      0.0000     -0.0000      0.0000      0.0000
         6        -0.0000     -0.0000     -0.0033      0.0033      0.0022

 Excitation energies and oscillator strengths:
 
 Excited State   1:      Singlet-A      5.0595 eV  245.05 nm  f=0.0452  <S**2>=0.000
      30 -> 33         0.47238
      30 -> 37         0.12346
      31 -> 33        -0.42030
      31 -> 37         0.25318
 
 Excited State   2:      Singlet-A      5.1055 eV  242.85 nm  f=0.1107  <S**2>=0.000
      30 -> 33         0.34978
      30 -> 37        -0.14764
      31 -> 33         0.52274
      31 -> 37         0.26063
 This state for optimization and/or second-order correction.
 Total Energy, E(TD-HF/TD-DFT) =  -363.437053785    
 Copying the excited state density for this state as the 1-particle RhoCI density.
 
 Excited State   3:      Singlet-A      5.2852 eV  234.59 nm  f=0.0031  <S**2>=0.000
      31 -> 32         0.68599
 
 Excited State   4:      Singlet-A      5.7774 eV  214.60 nm  f=0.0039  <S**2>=0.000
      30 -> 32         0.64403
      31 -> 34         0.19448
 
 Excited State   5:      Singlet-A      5.9441 eV  208.59 nm  f=0.0000  <S**2>=0.000
      30 -> 32        -0.21098
      31 -> 34         0.62203
      31 -> 35        -0.17443
 
 Excited State   6:      Singlet-A      5.9906 eV  206.96 nm  f=0.0022  <S**2>=0.000
      31 -> 34         0.18522
      31 -> 35         0.63881
      31 -> 36         0.11632
 SavETr:  write IOETrn=   770 NScale= 10 NData=  16 NLR=1 NState=    6 LETran=     118.
          IDoAtm=1111111111111111
          Differentiating once with respect to electric field.
                with respect to dipole field.
          Differentiating once with respect to nuclear coordinates.
 Keep R1 ints in memory in canonical form, NReq=303315801.
          There are     1 degrees of freedom in the 1st order CPHF.  IDoFFX=0 NUNeed=     1.
 LinEq1:  Iter=  0 NonCon=     1 RMS=6.37D-03 Max=1.41D-01 NDo=     1
 AX will form     1 AO Fock derivatives at one time.
 LinEq1:  Iter=  1 NonCon=     1 RMS=2.15D-03 Max=6.02D-02 NDo=     1
 LinEq1:  Iter=  2 NonCon=     1 RMS=1.11D-03 Max=2.73D-02 NDo=     1
 LinEq1:  Iter=  3 NonCon=     1 RMS=6.00D-04 Max=1.36D-02 NDo=     1
 LinEq1:  Iter=  4 NonCon=     1 RMS=2.30D-04 Max=5.86D-03 NDo=     1
 LinEq1:  Iter=  5 NonCon=     1 RMS=1.22D-04 Max=3.56D-03 NDo=     1
 LinEq1:  Iter=  6 NonCon=     1 RMS=5.82D-05 Max=1.47D-03 NDo=     1
 LinEq1:  Iter=  7 NonCon=     1 RMS=3.22D-05 Max=8.57D-04 NDo=     1
 LinEq1:  Iter=  8 NonCon=     1 RMS=1.21D-05 Max=2.76D-04 NDo=     1
 LinEq1:  Iter=  9 NonCon=     1 RMS=6.66D-06 Max=1.41D-04 NDo=     1
 LinEq1:  Iter= 10 NonCon=     1 RMS=1.90D-06 Max=3.86D-05 NDo=     1
 LinEq1:  Iter= 11 NonCon=     1 RMS=1.03D-06 Max=1.84D-05 NDo=     1
 LinEq1:  Iter= 12 NonCon=     1 RMS=3.74D-07 Max=8.36D-06 NDo=     1
 LinEq1:  Iter= 13 NonCon=     1 RMS=1.14D-07 Max=2.27D-06 NDo=     1
 LinEq1:  Iter= 14 NonCon=     1 RMS=6.19D-08 Max=1.35D-06 NDo=     1
 LinEq1:  Iter= 15 NonCon=     1 RMS=2.05D-08 Max=3.41D-07 NDo=     1
 LinEq1:  Iter= 16 NonCon=     1 RMS=7.96D-09 Max=1.75D-07 NDo=     1
 LinEq1:  Iter= 17 NonCon=     1 RMS=4.12D-09 Max=8.64D-08 NDo=     1
 LinEq1:  Iter= 18 NonCon=     1 RMS=8.89D-10 Max=1.76D-08 NDo=     1
 LinEq1:  Iter= 19 NonCon=     1 RMS=3.90D-10 Max=9.14D-09 NDo=     1
 LinEq1:  Iter= 20 NonCon=     1 RMS=1.35D-10 Max=1.82D-09 NDo=     1
 LinEq1:  Iter= 21 NonCon=     0 RMS=2.43D-11 Max=2.51D-10 NDo=     1
 Linear equations converged to 1.000D-10 1.000D-09 after    21 iterations.
 End of Minotr F.D. properties file   721 does not exist.
 End of Minotr F.D. properties file   722 does not exist.
 End of Minotr F.D. properties file   788 does not exist.

 **********************************************************************

            Population analysis using the CI Density.

 **********************************************************************

 Orbital symmetries:
       Occupied  (A) (A) (A) (A) (A) (A) (A) (A) (A) (A) (A) (A)
                 (A) (A) (A) (A) (A) (A) (A) (A) (A) (A) (A) (A)
                 (A) (A) (A) (A) (A) (A) (A)
       Virtual   (A) (A) (A) (A) (A) (A) (A) (A) (A) (A) (A) (A)
                 (A) (A) (A) (A) (A) (A) (A) (A) (A) (A) (A) (A)
                 (A) (A) (A) (A) (A) (A) (A) (A) (A) (A) (A) (A)
                 (A) (A) (A) (A) (A) (A) (A) (A) (A) (A) (A) (A)
                 (A) (A) (A) (A) (A) (A) (A) (A) (A) (A) (A) (A)
                 (A) (A) (A) (A) (A) (A) (A) (A) (A) (A) (A) (A)
                 (A) (A) (A) (A) (A) (A) (A) (A) (A) (A) (A) (A)
                 (A) (A) (A) (A) (A) (A) (A) (A) (A) (A) (A) (A)
                 (A) (A) (A) (A) (A) (A) (A) (A) (A) (A) (A) (A)
                 (A) (A) (A) (A) (A) (A) (A) (A) (A) (A) (A) (A)
                 (A) (A) (A) (A) (A) (A) (A) (A) (A) (A) (A) (A)
                 (A) (A) (A) (A) (A) (A) (A) (A) (A) (A) (A) (A)
                 (A) (A) (A) (A) (A) (A) (A) (A) (A) (A)
 The electronic state is 1-A.
 Alpha  occ. eigenvalues --  -14.45747 -10.29795 -10.29500 -10.26497 -10.26010
 Alpha  occ. eigenvalues --  -10.25982 -10.25948 -10.25429 -10.25125  -1.06883
 Alpha  occ. eigenvalues --   -0.92649  -0.86751  -0.81881  -0.80023  -0.70325
 Alpha  occ. eigenvalues --   -0.67227  -0.65912  -0.61567  -0.55519  -0.54408
 Alpha  occ. eigenvalues --   -0.50768  -0.50010  -0.49701  -0.48101  -0.46004
 Alpha  occ. eigenvalues --   -0.42191  -0.40410  -0.40048  -0.34219  -0.27753
 Alpha  occ. eigenvalues --   -0.26016
 Alpha virt. eigenvalues --    0.02448   0.02472   0.04292   0.04765   0.06221
 Alpha virt. eigenvalues --    0.06311   0.06376   0.08060   0.08584   0.09076
 Alpha virt. eigenvalues --    0.09139   0.09387   0.11270   0.12002   0.13052
 Alpha virt. eigenvalues --    0.13185   0.14067   0.15441   0.16725   0.16816
 Alpha virt. eigenvalues --    0.18252   0.18592   0.19464   0.19885   0.20320
 Alpha virt. eigenvalues --    0.21691   0.21861   0.21871   0.22883   0.23596
 Alpha virt. eigenvalues --    0.24008   0.24955   0.25083   0.26083   0.26491
 Alpha virt. eigenvalues --    0.27031   0.27371   0.27979   0.29141   0.29603
 Alpha virt. eigenvalues --    0.30774   0.30969   0.32381   0.33831   0.35122
 Alpha virt. eigenvalues --    0.36019   0.36085   0.37699   0.39825   0.41976
 Alpha virt. eigenvalues --    0.43001   0.45417   0.49787   0.50632   0.57180
 Alpha virt. eigenvalues --    0.64350   0.68785   0.72881   0.73176   0.75498
 Alpha virt. eigenvalues --    0.77290   0.77656   0.79018   0.79269   0.80120
 Alpha virt. eigenvalues --    0.80958   0.81623   0.83464   0.84943   0.85850
 Alpha virt. eigenvalues --    0.87469   0.91142   0.95134   0.95816   0.96994
 Alpha virt. eigenvalues --    0.99369   1.00068   1.01105   1.02026   1.04228
 Alpha virt. eigenvalues --    1.06239   1.08863   1.10595   1.12323   1.15493
 Alpha virt. eigenvalues --    1.17459   1.18062   1.23161   1.24350   1.26944
 Alpha virt. eigenvalues --    1.28503   1.31034   1.31703   1.38232   1.39728
 Alpha virt. eigenvalues --    1.41693   1.43226   1.48234   1.49152   1.51587
 Alpha virt. eigenvalues --    1.53772   1.54323   1.57499   1.58118   1.60268
 Alpha virt. eigenvalues --    1.65599   1.71959   1.86243   1.91877   1.95872
 Alpha virt. eigenvalues --    1.97013   1.99461   2.01318   2.07034   2.07338
 Alpha virt. eigenvalues --    2.08490   2.13973   2.17604   2.21818   2.24897
 Alpha virt. eigenvalues --    2.25464   2.27427   2.33029   2.34162   2.34664
 Alpha virt. eigenvalues --    2.36207   2.39032   2.46281   2.49098   2.52268
 Alpha virt. eigenvalues --    2.62517   2.64230   2.71387   2.73525   2.75334
 Alpha virt. eigenvalues --    2.77720   2.81308   2.88750   2.92381   2.93595
 Alpha virt. eigenvalues --    3.03352   3.05673   3.19453   3.32160   3.52935
 Alpha virt. eigenvalues --    4.22050   4.32663   4.35646   4.39182   4.42791
 Alpha virt. eigenvalues --    4.46500   4.54802   4.58767   4.85958
          Condensed to atoms (all electrons):
               1          2          3          4          5          6
     1  C    5.700920   0.525800   0.051973  -0.497956  -0.111710  -0.120702
     2  C    0.525800   5.821936  -0.318152   0.546838  -0.658926   0.489564
     3  C    0.051973  -0.318152  14.048368  -3.559844  -3.246548  -2.572640
     4  C   -0.497956   0.546838  -3.559844  13.692176  -2.524387  -0.954658
     5  C   -0.111710  -0.658926  -3.246548  -2.524387  14.590023  -0.999355
     6  C   -0.120702   0.489564  -2.572640  -0.954658  -0.999355  12.939267
     7  N   -0.016273  -0.005009  -0.426253  -0.340031   0.690873   0.118620
     8  C    0.222238  -0.324686   3.402602   0.683034  -5.129825  -3.204776
     9  C   -0.098960   0.049825  -1.274898  -0.383112   2.004548   0.928011
    10  H   -0.002506  -0.010240  -0.133158  -0.083883   0.180233   0.032350
    11  H    0.000297   0.000543   0.007687   0.076048  -0.069293  -0.047157
    12  H    0.000462   0.000577   0.023364   0.078063  -0.056789  -0.023420
    13  H   -0.021468   0.310927  -0.036265   0.030811  -0.005152   0.024097
    14  H    0.024328   0.013079   0.290203  -0.027127   0.018563  -0.024066
    15  H    0.336289  -0.035708   0.027612  -0.020211   0.042433  -0.045468
    16  H   -0.020569   0.026826  -0.049021   0.052651   0.041683   0.301203
               7          8          9         10         11         12
     1  C   -0.016273   0.222238  -0.098960  -0.002506   0.000297   0.000462
     2  C   -0.005009  -0.324686   0.049825  -0.010240   0.000543   0.000577
     3  C   -0.426253   3.402602  -1.274898  -0.133158   0.007687   0.023364
     4  C   -0.340031   0.683034  -0.383112  -0.083883   0.076048   0.078063
     5  C    0.690873  -5.129825   2.004548   0.180233  -0.069293  -0.056789
     6  C    0.118620  -3.204776   0.928011   0.032350  -0.047157  -0.023420
     7  N    7.289534  -0.596509   0.558155   0.281154   0.007062  -0.054957
     8  C   -0.596509  12.957201  -2.514026  -0.005809   0.390060  -0.019776
     9  C    0.558155  -2.514026   6.741910  -0.022992  -0.065521   0.360927
    10  H    0.281154  -0.005809  -0.022992   0.333568  -0.000080  -0.002424
    11  H    0.007062   0.390060  -0.065521  -0.000080   0.486047  -0.000796
    12  H   -0.054957  -0.019776   0.360927  -0.002424  -0.000796   0.476144
    13  H   -0.000508  -0.001414   0.001355  -0.000002   0.000000  -0.000000
    14  H   -0.004891  -0.009156   0.009751   0.001897   0.000002   0.000003
    15  H    0.000240   0.000599   0.000243  -0.000000  -0.000002  -0.000000
    16  H   -0.000981  -0.066373   0.005867   0.000004   0.001414  -0.000001
              13         14         15         16
     1  C   -0.021468   0.024328   0.336289  -0.020569
     2  C    0.310927   0.013079  -0.035708   0.026826
     3  C   -0.036265   0.290203   0.027612  -0.049021
     4  C    0.030811  -0.027127  -0.020211   0.052651
     5  C   -0.005152   0.018563   0.042433   0.041683
     6  C    0.024097  -0.024066  -0.045468   0.301203
     7  N   -0.000508  -0.004891   0.000240  -0.000981
     8  C   -0.001414  -0.009156   0.000599  -0.066373
     9  C    0.001355   0.009751   0.000243   0.005867
    10  H   -0.000002   0.001897  -0.000000   0.000004
    11  H    0.000000   0.000002  -0.000002   0.001414
    12  H   -0.000000   0.000003  -0.000000  -0.000001
    13  H    0.517909  -0.004211  -0.004422  -0.000149
    14  H   -0.004211   0.526544  -0.000149   0.000017
    15  H   -0.004422  -0.000149   0.523529  -0.004355
    16  H   -0.000149   0.000017  -0.004355   0.528329
 Mulliken charges:
               1
     1  C    0.027836
     2  C   -0.433193
     3  C   -0.235029
     4  C   -0.768413
     5  C    1.233629
     6  C   -0.840870
     7  N   -0.500226
     8  C    0.216615
     9  C   -0.301081
    10  H    0.431888
    11  H    0.213688
    12  H    0.218621
    13  H    0.188492
    14  H    0.185215
    15  H    0.179370
    16  H    0.183456
 Sum of Mulliken charges =  -0.00000
 Mulliken charges with hydrogens summed into heavy atoms:
               1
     1  C    0.207207
     2  C   -0.244701
     3  C   -0.049814
     4  C   -0.768413
     5  C    1.233629
     6  C   -0.657414
     7  N   -0.068339
     8  C    0.430304
     9  C   -0.082459
 Electronic spatial extent (au):  <R**2>=           1008.9263
 Charge=             -0.0000 electrons
 Dipole moment (field-independent basis, Debye):
    X=              3.2718    Y=             -1.6299    Z=             -0.0020  Tot=              3.6553
 Quadrupole moment (field-independent basis, Debye-Ang):
   XX=            -45.6801   YY=            -47.3711   ZZ=            -60.6015
   XY=             -1.6002   XZ=             -0.0032   YZ=              0.0014
 Traceless Quadrupole moment (field-independent basis, Debye-Ang):
   XX=              5.5375   YY=              3.8464   ZZ=             -9.3839
   XY=             -1.6002   XZ=             -0.0032   YZ=              0.0014
 Octapole moment (field-independent basis, Debye-Ang**2):
  XXX=             23.3275  YYY=            -10.1715  ZZZ=             -0.0208  XYY=             13.2963
  XXY=             -7.6796  XXZ=             -0.0125  XZZ=              3.8930  YZZ=             -1.5982
  YYZ=             -0.0157  XYZ=              0.0001
 Hexadecapole moment (field-independent basis, Debye-Ang**3):
 XXXX=           -847.8515 YYYY=           -400.3742 ZZZZ=            -88.5496 XXXY=            -11.3225
 XXXZ=             -0.0624 YYYX=            -15.2257 YYYZ=              0.0245 ZZZX=             -0.0292
 ZZZY=              0.0224 XXYY=           -200.0574 XXZZ=           -202.1042 YYZZ=           -104.8747
 XXYZ=              0.0122 YYXZ=             -0.0041 ZZXY=             -1.2034
 N-N= 4.013368668897D+02 E-N=-1.644811495145D+03  KE= 3.604934526500D+02
 Calling FoFJK, ICntrl=  10005127 FMM=F ISym2X=0 I1Cent= 0 IOpClX= 0 NMat=1 NMatS=1 NMatT=0.
 ***** Axes restored to original set *****
 -------------------------------------------------------------------
 Center     Atomic                   Forces (Hartrees/Bohr)
 Number     Number              X              Y              Z
 -------------------------------------------------------------------
      1        6          -0.020565023   -0.011342580   -0.000007028
      2        6          -0.024906600    0.021804091    0.000001941
      3        6           0.027352483   -0.032443097    0.000013183
      4        6          -0.003249225    0.002171656   -0.000026245
      5        6           0.032914688    0.006786433   -0.000017396
      6        6          -0.000857199    0.033311841    0.000008042
      7        7           0.018691159    0.012076720    0.000036062
      8        6          -0.048727729    0.017886390    0.000021624
      9        6           0.016442078   -0.046737620   -0.000042962
     10        1           0.002322619   -0.004854408    0.000009623
     11        1           0.001084130    0.003040493    0.000005355
     12        1           0.003340542   -0.000705319    0.000001151
     13        1          -0.002444325   -0.001470209    0.000000225
     14        1           0.000541227   -0.002145269   -0.000004396
     15        1          -0.002291776    0.000552060    0.000000096
     16        1           0.000352951    0.002068817    0.000000726
 -------------------------------------------------------------------
 Cartesian Forces:  Max     0.048727729 RMS     0.015425538

 GradGradGradGradGradGradGradGradGradGradGradGradGradGradGradGradGradGrad
 Berny optimization.
 FormGI is forming the generalized inverse of G from B-inverse, IUseBI=4.
 Internal  Forces:  Max     0.041928458 RMS     0.008764787
 Search for a local minimum.
 Step number   1 out of a maximum of   94
 All quantities printed in internal units (Hartrees-Bohrs-Radians)
 Mixed Optimization -- RFO/linear search
 Second derivative matrix not updated -- first step.
 ITU=  0
     Eigenvalues ---    0.01853   0.01931   0.01986   0.02012   0.02070
     Eigenvalues ---    0.02113   0.02148   0.02153   0.02172   0.02209
     Eigenvalues ---    0.02233   0.02248   0.02338   0.16000   0.16000
     Eigenvalues ---    0.16000   0.16000   0.16000   0.16000   0.16000
     Eigenvalues ---    0.22000   0.22188   0.22662   0.24011   0.24651
     Eigenvalues ---    0.35712   0.35717   0.35783   0.35790   0.36420
     Eigenvalues ---    0.36427   0.37009   0.38432   0.42633   0.43465
     Eigenvalues ---    0.45769   0.46692   0.47162   0.47468   0.47567
     Eigenvalues ---    0.48125   0.50955
 RFO step:  Lambda=-1.38873883D-02 EMin= 1.85287394D-02
 Linear search not attempted -- first point.
 Iteration  1 RMS(Cart)=  0.02698564 RMS(Int)=  0.00018800
 Iteration  2 RMS(Cart)=  0.00026382 RMS(Int)=  0.00004543
 Iteration  3 RMS(Cart)=  0.00000005 RMS(Int)=  0.00004543
 Variable       Old X    -DE/DX   Delta X   Delta X   Delta X     New X
                                 (Linear)    (Quad)   (Total)
    R1        2.65547   0.00562   0.00000   0.01281   0.01280   2.66827
    R2        2.61291   0.02507   0.00000   0.05075   0.05074   2.66366
    R3        2.04421   0.00228   0.00000   0.00613   0.00613   2.05035
    R4        2.61557   0.03971   0.00000   0.07982   0.07981   2.69538
    R5        2.04411   0.00285   0.00000   0.00767   0.00767   2.05178
    R6        2.63373   0.00715   0.00000   0.01424   0.01425   2.64798
    R7        2.04534   0.00215   0.00000   0.00580   0.00580   2.05114
    R8        2.68058   0.01543   0.00000   0.03298   0.03287   2.71345
    R9        2.60126   0.01431   0.00000   0.02740   0.02739   2.62865
   R10        2.64771   0.02656   0.00000   0.05673   0.05674   2.70445
   R11        2.70839  -0.02125   0.00000  -0.05082  -0.05088   2.65751
   R12        2.04526   0.00206   0.00000   0.00555   0.00555   2.05081
   R13        2.60573  -0.01821   0.00000  -0.03511  -0.03500   2.57073
   R14        1.89542   0.00534   0.00000   0.01099   0.01099   1.90642
   R15        2.57870   0.04193   0.00000   0.07955   0.07963   2.65833
   R16        2.03419   0.00323   0.00000   0.00854   0.00854   2.04272
   R17        2.03430   0.00340   0.00000   0.00898   0.00898   2.04329
    A1        2.11420  -0.00074   0.00000  -0.00060  -0.00064   2.11356
    A2        2.07986  -0.00024   0.00000  -0.00321  -0.00319   2.07667
    A3        2.08912   0.00098   0.00000   0.00381   0.00383   2.09295
    A4        2.11523   0.00575   0.00000   0.02583   0.02578   2.14101
    A5        2.08365  -0.00284   0.00000  -0.01271  -0.01269   2.07097
    A6        2.08430  -0.00291   0.00000  -0.01312  -0.01309   2.07121
    A7        2.05144  -0.00577   0.00000  -0.02597  -0.02601   2.02543
    A8        2.11267   0.00341   0.00000   0.01599   0.01601   2.12868
    A9        2.11908   0.00236   0.00000   0.00998   0.01000   2.12908
   A10        2.13389   0.00100   0.00000   0.00340   0.00345   2.13734
   A11        2.27895  -0.00606   0.00000  -0.02003  -0.01997   2.25899
   A12        1.87035   0.00505   0.00000   0.01663   0.01651   1.88686
   A13        2.07274   0.00687   0.00000   0.02638   0.02646   2.09921
   A14        1.86517  -0.00517   0.00000  -0.02186  -0.02203   1.84314
   A15        2.34527  -0.00170   0.00000  -0.00452  -0.00443   2.34083
   A16        2.07887  -0.00712   0.00000  -0.02903  -0.02905   2.04982
   A17        2.10306   0.00398   0.00000   0.01693   0.01694   2.12000
   A18        2.10125   0.00314   0.00000   0.01210   0.01211   2.11336
   A19        1.90743  -0.00066   0.00000  -0.00296  -0.00286   1.90456
   A20        2.19023   0.00098   0.00000   0.00520   0.00515   2.19538
   A21        2.18553  -0.00032   0.00000  -0.00224  -0.00229   2.18324
   A22        1.86968   0.00564   0.00000   0.02569   0.02571   1.89540
   A23        2.21717  -0.00285   0.00000  -0.01304  -0.01305   2.20412
   A24        2.19633  -0.00279   0.00000  -0.01265  -0.01266   2.18367
   A25        1.91215  -0.00486   0.00000  -0.01751  -0.01733   1.89482
   A26        2.10250   0.00207   0.00000   0.00671   0.00662   2.10912
   A27        2.26854   0.00279   0.00000   0.01080   0.01071   2.27925
    D1       -0.00001  -0.00000   0.00000  -0.00004  -0.00004  -0.00005
    D2       -3.14156  -0.00000   0.00000  -0.00006  -0.00006   3.14156
    D3        3.14152   0.00000   0.00000   0.00004   0.00004   3.14156
    D4       -0.00002   0.00000   0.00000   0.00002   0.00002  -0.00000
    D5       -0.00003   0.00000   0.00000   0.00014   0.00014   0.00010
    D6        3.14153   0.00000   0.00000   0.00008   0.00008  -3.14158
    D7       -3.14157   0.00000   0.00000   0.00006   0.00005  -3.14151
    D8       -0.00001  -0.00000   0.00000  -0.00000  -0.00000  -0.00001
    D9        0.00003  -0.00000   0.00000  -0.00009  -0.00009  -0.00006
   D10       -3.14154  -0.00000   0.00000   0.00002   0.00002  -3.14152
   D11        3.14158  -0.00000   0.00000  -0.00007  -0.00007   3.14151
   D12        0.00001   0.00000   0.00000   0.00004   0.00004   0.00005
   D13       -0.00001   0.00000   0.00000   0.00013   0.00013   0.00012
   D14       -3.14144  -0.00000   0.00000  -0.00005  -0.00005  -3.14149
   D15        3.14156  -0.00000   0.00000   0.00002   0.00002   3.14158
   D16        0.00013  -0.00001   0.00000  -0.00016  -0.00016  -0.00003
   D17       -0.00004   0.00000   0.00000  -0.00003  -0.00004  -0.00007
   D18       -3.14151  -0.00000   0.00000  -0.00012  -0.00013   3.14155
   D19        3.14143   0.00000   0.00000   0.00011   0.00011   3.14154
   D20       -0.00005   0.00000   0.00000   0.00002   0.00002  -0.00003
   D21       -3.14124  -0.00000   0.00000  -0.00017  -0.00017  -3.14142
   D22       -0.00113   0.00001   0.00000   0.00007   0.00006  -0.00107
   D23        0.00049  -0.00001   0.00000  -0.00033  -0.00033   0.00016
   D24        3.14060   0.00000   0.00000  -0.00009  -0.00010   3.14050
   D25        0.00005  -0.00000   0.00000  -0.00010  -0.00010  -0.00004
   D26       -3.14151  -0.00000   0.00000  -0.00004  -0.00004  -3.14155
   D27        3.14150  -0.00000   0.00000   0.00002   0.00002   3.14152
   D28       -0.00007   0.00000   0.00000   0.00008   0.00008   0.00001
   D29       -0.00041   0.00001   0.00000   0.00031   0.00031  -0.00010
   D30        3.14139   0.00001   0.00000   0.00010   0.00010   3.14148
   D31        3.14132   0.00001   0.00000   0.00020   0.00020   3.14152
   D32       -0.00006   0.00000   0.00000  -0.00001  -0.00002  -0.00008
   D33       -0.00077   0.00002   0.00000   0.00056   0.00055  -0.00023
   D34        3.14133   0.00001   0.00000   0.00016   0.00015   3.14148
   D35       -3.14089   0.00001   0.00000   0.00032   0.00031  -3.14058
   D36        0.00121   0.00000   0.00000  -0.00008  -0.00008   0.00113
   D37        0.00072  -0.00002   0.00000  -0.00051  -0.00052   0.00020
   D38       -3.14144   0.00000   0.00000  -0.00007  -0.00007  -3.14152
   D39       -3.14107  -0.00001   0.00000  -0.00031  -0.00031  -3.14138
   D40       -0.00005   0.00001   0.00000   0.00014   0.00013   0.00008
         Item               Value     Threshold  Converged?
 Maximum Force            0.041928     0.000450     NO 
 RMS     Force            0.008765     0.000300     NO 
 Maximum Displacement     0.096861     0.001800     NO 
 RMS     Displacement     0.026970     0.001200     NO 
 Predicted change in Energy=-7.162897D-03
 GradGradGradGradGradGradGradGradGradGradGradGradGradGradGradGradGradGrad

                          Input orientation:                          
 ---------------------------------------------------------------------
 Center     Atomic      Atomic             Coordinates (Angstroms)
 Number     Number       Type             X           Y           Z
 ---------------------------------------------------------------------
      1          6           0       -2.179549    0.706636    0.000012
      2          6           0       -2.135754   -0.704673    0.000034
      3          6           0       -0.911780   -1.437013    0.000042
      4          6           0        0.262633   -0.672647   -0.000046
      5          6           0        0.247657    0.763171    0.000005
      6          6           0       -0.995741    1.471763    0.000062
      7          7           0        1.589190   -1.091204   -0.000171
      8          6           0        1.598099    1.155561   -0.000049
      9          6           0        2.400941    0.000430    0.000007
     10          1           0        1.905531   -2.049156    0.000662
     11          1           0        1.969311    2.170786   -0.000126
     12          1           0        3.476684   -0.108675    0.000055
     13          1           0       -3.071898   -1.254676    0.000020
     14          1           0       -0.891496   -2.522240   -0.000010
     15          1           0       -3.144505    1.202703   -0.000022
     16          1           0       -1.022420    2.556678    0.000060
 ---------------------------------------------------------------------
                    Distance matrix (angstroms):
                    1          2          3          4          5
     1  C    0.000000
     2  C    1.411988   0.000000
     3  C    2.490476   1.426336   0.000000
     4  C    2.804759   2.398600   1.401250   0.000000
     5  C    2.427865   2.799145   2.486987   1.435896   0.000000
     6  C    1.409547   2.456929   2.909987   2.486362   1.431132
     7  N    4.175599   3.744945   2.524765   1.391023   2.288759
     8  C    3.804229   4.171586   3.608453   2.264026   1.406294
     9  C    4.634611   4.591163   3.611145   2.241740   2.284383
    10  H    4.927705   4.259063   2.883048   2.143337   3.264617
    11  H    4.399634   5.011968   4.617023   3.316303   2.223842
    12  H    5.714692   5.643994   4.585095   3.263156   3.344657
    13  H    2.154770   1.085758   2.167799   3.384945   3.884734
    14  H    3.476309   2.202664   1.085417   2.180139   3.477297
    15  H    1.084998   2.157698   3.457334   3.889154   3.420519
    16  H    2.182109   3.446146   3.995223   3.475614   2.197672
                    6          7          8          9         10
     6  C    0.000000
     7  N    3.640146   0.000000
     8  C    2.613042   2.246783   0.000000
     9  C    3.701657   1.360370   1.406728   0.000000
    10  H    4.562263   1.008833   3.219429   2.108610   0.000000
    11  H    3.046337   3.284064   1.080963   2.212860   4.220424
    12  H    4.743455   2.127909   2.264371   1.081261   2.496795
    13  H    3.426937   4.663954   5.255294   5.614914   5.040436
    14  H    3.995363   2.863855   4.441205   4.147772   2.836753
    15  H    2.165544   5.260216   4.742838   5.674278   6.006450
    16  H    1.085243   4.486373   2.971573   4.272447   5.457710
                   11         12         13         14         15
    11  H    0.000000
    12  H    2.732786   0.000000
    13  H    6.094882   6.648100   0.000000
    14  H    5.496245   4.990620   2.522077   0.000000
    15  H    5.204642   6.749804   2.458452   4.353303   0.000000
    16  H    3.016516   5.229344   4.327445   5.080605   2.517239
                   16
    16  H    0.000000
 Stoichiometry    C8H7N
 Framework group  C1[X(C8H7N)]
 Deg. of freedom    42
 Full point group                 C1      NOp   1
 Largest Abelian subgroup         C1      NOp   1
 Largest concise Abelian subgroup C1      NOp   1
                         Standard orientation:                         
 ---------------------------------------------------------------------
 Center     Atomic      Atomic             Coordinates (Angstroms)
 Number     Number       Type             X           Y           Z
 ---------------------------------------------------------------------
      1          6           0       -2.197484    0.651222    0.000014
      2          6           0       -2.118568   -0.758559    0.000036
      3          6           0       -0.876742   -1.460201    0.000045
      4          6           0        0.278278   -0.666835   -0.000044
      5          6           0        0.227563    0.768165    0.000007
      6          6           0       -1.033090    1.445583    0.000065
      7          7           0        1.614844   -1.052238   -0.000168
      8          6           0        1.567817    1.194053   -0.000046
      9          6           0        2.399168    0.059267    0.000010
     10          1           0        1.954936   -2.002017    0.000665
     11          1           0        1.913641    2.218205   -0.000124
     12          1           0        3.477293   -0.023024    0.000058
     13          1           0       -3.040729   -1.331697    0.000023
     14          1           0       -0.829447   -2.544587   -0.000008
     15          1           0       -3.174490    1.123113   -0.000019
     16          1           0       -1.086770    2.529497    0.000062
 ---------------------------------------------------------------------
 Rotational constants (GHZ):           3.8066910           1.6221141           1.1374303
 Standard basis: 6-31+G(d) (6D, 7F)
 There are   185 symmetry adapted cartesian basis functions of A   symmetry.
 There are   185 symmetry adapted basis functions of A   symmetry.
   185 basis functions,   316 primitive gaussians,   185 cartesian basis functions
    31 alpha electrons       31 beta electrons
       nuclear repulsion energy       397.7982925301 Hartrees.
 NAtoms=   16 NActive=   16 NUniq=   16 SFac= 1.00D+00 NAtFMM=   60 NAOKFM=F Big=F
 Integral buffers will be    131072 words long.
 Raffenetti 1 integral format.
 Two-electron integral symmetry is turned on.
 One-electron integrals computed using PRISM.
 NBasis=   185 RedAO= T EigKep=  1.35D-06  NBF=   185
 NBsUse=   185 1.00D-06 EigRej= -1.00D+00 NBFU=   185
 Initial guess from the checkpoint file:  "FuncsCAM-B3LYPII2nd.chk"
 B after Tr=     0.000000   -0.000000    0.000000
         Rot=    0.999929    0.000003   -0.000000   -0.011902 Ang=   1.36 deg.
 ExpMin= 4.38D-02 ExpMax= 4.17D+03 ExpMxC= 6.27D+02 IAcc=3 IRadAn=         5 AccDes= 0.00D+00
 Harris functional with IExCor=20419 and IRadAn=       5 diagonalized for initial guess.
 HarFok:  IExCor=20419 AccDes= 0.00D+00 IRadAn=         5 IDoV= 1 UseB2=F ITyADJ=14
 ICtDFT=  3500011 ScaDFX=  1.000000  1.000000  1.000000  1.000000
 FoFCou: FMM=F IPFlag=           0 FMFlag=      100000 FMFlg1=           0
         NFxFlg=           0 DoJE=T BraDBF=F KetDBF=T FulRan=T
         wScrn=  0.000000 ICntrl=       500 IOpCl=  0 I1Cent=   200000004 NGrid=           0
         NMat0=    1 NMatS0=      1 NMatT0=    0 NMatD0=    1 NMtDS0=    0 NMtDT0=    0
 Petite list used in FoFCou.
 Keep R1 ints in memory in canonical form, NReq=303303409.
 Requested convergence on RMS density matrix=1.00D-08 within 128 cycles.
 Requested convergence on MAX density matrix=1.00D-06.
 Requested convergence on             energy=1.00D-06.
 No special actions if energy rises.
 SCF Done:  E(RCAM-B3LYP) =  -363.618573052     A.U. after   14 cycles
            NFock= 14  Conv=0.39D-08     -V/T= 2.0102
 DoSCS=F DFT=T ScalE2(SS,OS)=  1.000000  1.000000
 ExpMin= 4.38D-02 ExpMax= 4.17D+03 ExpMxC= 6.27D+02 IAcc=3 IRadAn=         5 AccDes= 0.00D+00
 HarFok:  IExCor=  205 AccDes= 0.00D+00 IRadAn=         5 IDoV=-2 UseB2=F ITyADJ=14
 ICtDFT= 12500011 ScaDFX=  1.000000  1.000000  1.000000  1.000000
 Range of M.O.s used for correlation:    10   185
 NBasis=   185 NAE=    31 NBE=    31 NFC=     9 NFV=     0
 NROrb=    176 NOA=    22 NOB=    22 NVA=   154 NVB=   154

 **** Warning!!: The largest alpha MO coefficient is  0.20506077D+03

 Orbital symmetries:
       Occupied  (A) (A) (A) (A) (A) (A) (A) (A) (A) (A) (A) (A)
                 (A) (A) (A) (A) (A) (A) (A) (A) (A) (A) (A) (A)
                 (A) (A) (A) (A) (A) (A) (A)
       Virtual   (A) (A) (A) (A) (A) (A) (A) (A) (A) (A) (A) (A)
                 (A) (A) (A) (A) (A) (A) (A) (A) (A) (A) (A) (A)
                 (A) (A) (A) (A) (A) (A) (A) (A) (A) (A) (A) (A)
                 (A) (A) (A) (A) (A) (A) (A) (A) (A) (A) (A) (A)
                 (A) (A) (A) (A) (A) (A) (A) (A) (A) (A) (A) (A)
                 (A) (A) (A) (A) (A) (A) (A) (A) (A) (A) (A) (A)
                 (A) (A) (A) (A) (A) (A) (A) (A) (A) (A) (A) (A)
                 (A) (A) (A) (A) (A) (A) (A) (A) (A) (A) (A) (A)
                 (A) (A) (A) (A) (A) (A) (A) (A) (A) (A) (A) (A)
                 (A) (A) (A) (A) (A) (A) (A) (A) (A) (A) (A) (A)
                 (A) (A) (A) (A) (A) (A) (A) (A) (A) (A) (A) (A)
                 (A) (A) (A) (A) (A) (A) (A) (A) (A) (A) (A) (A)
                 (A) (A) (A) (A) (A) (A) (A) (A) (A) (A)
 Generating guess from densities on rwf.
 Convergence on wavefunction:    0.000001000000000
 Iteration     1 Dimension    12 NMult     0 NNew     12
 CISAX will form    12 AO SS matrices at one time.
 New state      1 was old state      2
 New state      2 was old state      1
 New state      4 was old state      5
 New state      5 was old state      6
 New state      6 was old state      4
 Iteration     2 Dimension    24 NMult    12 NNew     12
 Iteration     3 Dimension    36 NMult    24 NNew     12
 Iteration     4 Dimension    48 NMult    36 NNew     12
 Iteration     5 Dimension    60 NMult    48 NNew     12
 Iteration     6 Dimension    72 NMult    60 NNew     12
 Iteration     7 Dimension    84 NMult    72 NNew     12
 Iteration     8 Dimension    96 NMult    84 NNew     12
 Iteration     9 Dimension   108 NMult    96 NNew     12
 Iteration    10 Dimension   120 NMult   108 NNew     12
 Iteration    11 Dimension   128 NMult   120 NNew      8
 Iteration    12 Dimension   132 NMult   128 NNew      4
 ***********************************************************************
 Excited states from <AA,BB:AA,BB> singles matrix:
 ***********************************************************************
 
 Ground to excited state transition densities written to RWF  633
 Ground to excited state transition electric dipole moments (Au):
       state          X           Y           Z        Dip. S.      Osc.
         1         0.1177      0.3493      0.0001      0.1359      0.0164
         2         1.0188     -0.6132      0.0001      1.4139      0.1629
         3         0.0007     -0.0002     -0.1729      0.0299      0.0037
         4        -0.0001     -0.0000     -0.0830      0.0069      0.0010
         5         0.0004      0.0002      0.1582      0.0250      0.0035
         6        -0.0012     -0.0003     -0.0949      0.0090      0.0013
 Ground to excited state transition velocity dipole moments (Au):
       state          X           Y           Z        Dip. S.      Osc.
         1        -0.0210     -0.0668     -0.0000      0.0049      0.0180
         2        -0.1636      0.1144     -0.0000      0.0399      0.1538
         3        -0.0001      0.0000      0.0228      0.0005      0.0019
         4         0.0000      0.0000      0.0190      0.0004      0.0011
         5        -0.0001     -0.0000     -0.0310      0.0010      0.0030
         6         0.0002      0.0001      0.0236      0.0006      0.0017
 Ground to excited state transition magnetic dipole moments (Au):
       state          X           Y           Z
         1         0.0001      0.0001      0.0134
         2        -0.0001      0.0000     -0.1682
         3         0.1505     -0.1307      0.0001
         4         0.2733     -0.3919      0.0000
         5         0.2306      0.2938      0.0004
         6        -0.0505     -0.1082     -0.0004
 Ground to excited state transition velocity quadrupole moments (Au):
       state          XX          YY          ZZ          XY          XZ          YZ
         1         0.0518      0.0423     -0.0155     -0.0067     -0.0000      0.0000
         2        -0.2168      0.1719     -0.0203     -0.0535     -0.0001      0.0000
         3        -0.0002      0.0001      0.0001      0.0000      0.0969      0.0576
         4        -0.0000     -0.0001     -0.0000     -0.0000      0.3797      0.2487
         5        -0.0000      0.0000      0.0001      0.0002     -0.2317      0.1049
         6         0.0002     -0.0001     -0.0000     -0.0002      0.0130     -0.1024
 <0|del|b> * <b|rxdel|0> + <0|del|b> * <b|delr+rdel|0>
 Rotatory Strengths (R) in cgs (10**-40 erg-esu-cm/Gauss)
       state          XX          YY          ZZ    R(velocity)    E-M Angle
         1        -0.0190     -0.0031     -0.0136     -0.0119       90.00
         2         0.0276      0.0311      0.0386      0.0325       90.00
         3        -0.0109     -0.0436     -0.0231     -0.0259       90.00
         4        -0.0115      0.0210      0.0008      0.0034       90.00
         5        -0.0570     -0.0567     -0.0202     -0.0446       90.00
         6        -0.0392     -0.0708      0.0099     -0.0334       90.00
 1/2[<0|r|b>*<b|rxdel|0> + (<0|rxdel|b>*<b|r|0>)*]
 Rotatory Strengths (R) in cgs (10**-40 erg-esu-cm/Gauss)
       state          XX          YY          ZZ     R(length)
         1        -0.0051     -0.0284     -0.0006     -0.0114
         2         0.0754      0.0187      0.0114      0.0352
         3        -0.0750     -0.0163      0.0109     -0.0268
         4         0.0193     -0.0133      0.0007      0.0022
         5        -0.0689     -0.0324     -0.0470     -0.0494
         6        -0.0416     -0.0246     -0.0294     -0.0319
  1/2[<0|del|b>*<b|r|0> + (<0|r|b>*<b|del|0>)*] (Au)
       state          X           Y           Z        Dip. S.   Osc.(frdel)
         1        -0.0025     -0.0233     -0.0000      0.0258      0.0172
         2        -0.1667     -0.0701     -0.0000      0.2368      0.1579
         3        -0.0000     -0.0000     -0.0039      0.0039      0.0026
         4        -0.0000     -0.0000     -0.0016      0.0016      0.0011
         5        -0.0000     -0.0000     -0.0049      0.0049      0.0033
         6        -0.0000     -0.0000     -0.0022      0.0022      0.0015

 Excitation energies and oscillator strengths:
 
 Excited State   1:      Singlet-A      4.9246 eV  251.76 nm  f=0.0164  <S**2>=0.000
      30 -> 32        -0.56114
      31 -> 32         0.10614
      31 -> 36         0.38600
 
 Excited State   2:      Singlet-A      4.7019 eV  263.69 nm  f=0.1629  <S**2>=0.000
      30 -> 36        -0.15213
      31 -> 32        -0.67329
      31 -> 36         0.10451
 This state for optimization and/or second-order correction.
 Total Energy, E(TD-HF/TD-DFT) =  -363.445780616    
 Copying the excited state density for this state as the 1-particle RhoCI density.
 
 Excited State   3:      Singlet-A      5.0349 eV  246.25 nm  f=0.0037  <S**2>=0.000
      31 -> 33         0.68983
 
 Excited State   4:      Singlet-A      5.6930 eV  217.78 nm  f=0.0010  <S**2>=0.000
      30 -> 33         0.15326
      31 -> 34         0.63528
      31 -> 35        -0.19942
 
 Excited State   5:      Singlet-A      5.7672 eV  214.98 nm  f=0.0035  <S**2>=0.000
      31 -> 34         0.19394
      31 -> 35         0.63558
      31 -> 37         0.14098
 
 Excited State   6:      Singlet-A      5.8753 eV  211.03 nm  f=0.0013  <S**2>=0.000
      30 -> 33         0.65835
      30 -> 34        -0.10840
      31 -> 34        -0.15131
 SavETr:  write IOETrn=   770 NScale= 10 NData=  16 NLR=1 NState=    6 LETran=     118.
          IDoAtm=1111111111111111
          Differentiating once with respect to electric field.
                with respect to dipole field.
          Differentiating once with respect to nuclear coordinates.
 Keep R1 ints in memory in canonical form, NReq=303315801.
          There are     1 degrees of freedom in the 1st order CPHF.  IDoFFX=0 NUNeed=     1.
 LinEq1:  Iter=  0 NonCon=     1 RMS=7.52D-03 Max=1.72D-01 NDo=     1
 AX will form     1 AO Fock derivatives at one time.
 LinEq1:  Iter=  1 NonCon=     1 RMS=2.70D-03 Max=6.50D-02 NDo=     1
 LinEq1:  Iter=  2 NonCon=     1 RMS=1.37D-03 Max=3.53D-02 NDo=     1
 LinEq1:  Iter=  3 NonCon=     1 RMS=7.33D-04 Max=1.56D-02 NDo=     1
 LinEq1:  Iter=  4 NonCon=     1 RMS=2.98D-04 Max=8.33D-03 NDo=     1
 LinEq1:  Iter=  5 NonCon=     1 RMS=1.58D-04 Max=3.94D-03 NDo=     1
 LinEq1:  Iter=  6 NonCon=     1 RMS=7.91D-05 Max=1.89D-03 NDo=     1
 LinEq1:  Iter=  7 NonCon=     1 RMS=4.35D-05 Max=1.27D-03 NDo=     1
 LinEq1:  Iter=  8 NonCon=     1 RMS=1.62D-05 Max=2.82D-04 NDo=     1
 LinEq1:  Iter=  9 NonCon=     1 RMS=8.75D-06 Max=1.49D-04 NDo=     1
 LinEq1:  Iter= 10 NonCon=     1 RMS=3.04D-06 Max=8.04D-05 NDo=     1
 LinEq1:  Iter= 11 NonCon=     1 RMS=1.74D-06 Max=3.17D-05 NDo=     1
 LinEq1:  Iter= 12 NonCon=     1 RMS=6.51D-07 Max=1.66D-05 NDo=     1
 LinEq1:  Iter= 13 NonCon=     1 RMS=3.47D-07 Max=7.52D-06 NDo=     1
 LinEq1:  Iter= 14 NonCon=     1 RMS=1.60D-07 Max=3.25D-06 NDo=     1
 LinEq1:  Iter= 15 NonCon=     1 RMS=3.75D-08 Max=5.55D-07 NDo=     1
 LinEq1:  Iter= 16 NonCon=     1 RMS=1.72D-08 Max=3.22D-07 NDo=     1
 LinEq1:  Iter= 17 NonCon=     1 RMS=6.18D-09 Max=1.07D-07 NDo=     1
 LinEq1:  Iter= 18 NonCon=     1 RMS=1.24D-09 Max=1.56D-08 NDo=     1
 LinEq1:  Iter= 19 NonCon=     1 RMS=2.58D-10 Max=3.64D-09 NDo=     1
 LinEq1:  Iter= 20 NonCon=     1 RMS=1.17D-10 Max=2.30D-09 NDo=     1
 LinEq1:  Iter= 21 NonCon=     0 RMS=3.76D-11 Max=5.34D-10 NDo=     1
 Linear equations converged to 1.000D-10 1.000D-09 after    21 iterations.
 End of Minotr F.D. properties file   721 does not exist.
 End of Minotr F.D. properties file   722 does not exist.
 End of Minotr F.D. properties file   788 does not exist.
 Calling FoFJK, ICntrl=  10005127 FMM=F ISym2X=0 I1Cent= 0 IOpClX= 0 NMat=1 NMatS=1 NMatT=0.
 ***** Axes restored to original set *****
 -------------------------------------------------------------------
 Center     Atomic                   Forces (Hartrees/Bohr)
 Number     Number              X              Y              Z
 -------------------------------------------------------------------
      1        6           0.000294265   -0.022808178    0.000001454
      2        6          -0.011840321    0.026396374   -0.000002336
      3        6           0.018415076   -0.005650470    0.000004148
      4        6          -0.021129235    0.009369406    0.000001910
      5        6           0.010916052   -0.018353041   -0.000006931
      6        6          -0.000826684    0.005456986   -0.000001660
      7        7           0.008457661    0.020327665    0.000021148
      8        6          -0.016081611    0.009549739   -0.000003533
      9        6           0.011164336   -0.024085352   -0.000005691
     10        1          -0.000447433   -0.001098054   -0.000011011
     11        1           0.001864353    0.000077286    0.000001576
     12        1          -0.000530326    0.001337325    0.000001662
     13        1           0.000058794   -0.000327917   -0.000000181
     14        1          -0.001084002    0.000764851   -0.000002180
     15        1           0.000040928   -0.000232632    0.000000599
     16        1           0.000728147   -0.000723988    0.000001025
 -------------------------------------------------------------------
 Cartesian Forces:  Max     0.026396374 RMS     0.009462909

 GradGradGradGradGradGradGradGradGradGradGradGradGradGradGradGradGradGrad
 Berny optimization.
 Using GEDIIS/GDIIS optimizer.
 FormGI is forming the generalized inverse of G from B-inverse, IUseBI=4.
 Internal  Forces:  Max     0.020075153 RMS     0.004116559
 Search for a local minimum.
 Step number   2 out of a maximum of   94
 All quantities printed in internal units (Hartrees-Bohrs-Radians)
 Mixed Optimization -- RFO/linear search
 Update second derivatives using D2CorX and points    1    2
 DE= -8.73D-03 DEPred=-7.16D-03 R= 1.22D+00
 TightC=F SS=  1.41D+00  RLast= 1.78D-01 DXNew= 5.0454D-01 5.3384D-01
 Trust test= 1.22D+00 RLast= 1.78D-01 DXMaxT set to 5.05D-01
 ITU=  1  0
 Use linear search instead of GDIIS.
     Eigenvalues ---    0.01854   0.01932   0.01986   0.02010   0.02071
     Eigenvalues ---    0.02113   0.02148   0.02156   0.02171   0.02210
     Eigenvalues ---    0.02233   0.02248   0.02339   0.15826   0.16000
     Eigenvalues ---    0.16000   0.16000   0.16000   0.16000   0.16024
     Eigenvalues ---    0.18585   0.22048   0.22806   0.24647   0.25447
     Eigenvalues ---    0.31249   0.35714   0.35733   0.35786   0.35827
     Eigenvalues ---    0.36428   0.36476   0.38176   0.38954   0.43057
     Eigenvalues ---    0.44859   0.46634   0.47089   0.47192   0.47699
     Eigenvalues ---    0.49674   0.65901
 RFO step:  Lambda=-4.20004927D-03 EMin= 1.85415440D-02
 Quartic linear search produced a step of  0.12785.
 Iteration  1 RMS(Cart)=  0.01246371 RMS(Int)=  0.00013122
 Iteration  2 RMS(Cart)=  0.00016324 RMS(Int)=  0.00005227
 Iteration  3 RMS(Cart)=  0.00000001 RMS(Int)=  0.00005227
 Variable       Old X    -DE/DX   Delta X   Delta X   Delta X     New X
                                 (Linear)    (Quad)   (Total)
    R1        2.66827  -0.02008   0.00164  -0.04763  -0.04603   2.62224
    R2        2.66366   0.00320   0.00649   0.01482   0.02128   2.68494
    R3        2.05035  -0.00014   0.00078   0.00032   0.00111   2.05146
    R4        2.69538   0.01134   0.01020   0.03768   0.04789   2.74327
    R5        2.05178   0.00012   0.00098   0.00132   0.00230   2.05408
    R6        2.64798  -0.00712   0.00182  -0.01532  -0.01347   2.63451
    R7        2.05114  -0.00079   0.00074  -0.00172  -0.00098   2.05016
    R8        2.71345  -0.01434   0.00420  -0.03556  -0.03136   2.68209
    R9        2.62865   0.00659   0.00350   0.01708   0.02071   2.64936
   R10        2.70445   0.00254   0.00725   0.01383   0.02109   2.72553
   R11        2.65751  -0.00287  -0.00650  -0.01384  -0.02049   2.63702
   R12        2.05081  -0.00074   0.00071  -0.00162  -0.00091   2.04991
   R13        2.57073  -0.01237  -0.00447  -0.03226  -0.03663   2.53410
   R14        1.90642   0.00090   0.00141   0.00368   0.00508   1.91150
   R15        2.65833   0.01199   0.01018   0.03921   0.04933   2.70766
   R16        2.04272   0.00071   0.00109   0.00325   0.00434   2.04707
   R17        2.04329  -0.00066   0.00115  -0.00089   0.00026   2.04355
    A1        2.11356   0.00145  -0.00008   0.00834   0.00819   2.12176
    A2        2.07667  -0.00092  -0.00041  -0.00565  -0.00603   2.07064
    A3        2.09295  -0.00053   0.00049  -0.00268  -0.00216   2.09079
    A4        2.14101  -0.00100   0.00330  -0.00180   0.00146   2.14247
    A5        2.07097   0.00082  -0.00162   0.00310   0.00150   2.07246
    A6        2.07121   0.00018  -0.00167  -0.00130  -0.00296   2.06825
    A7        2.02543  -0.00200  -0.00333  -0.01302  -0.01632   2.00911
    A8        2.12868  -0.00010   0.00205  -0.00086   0.00117   2.12985
    A9        2.12908   0.00210   0.00128   0.01388   0.01515   2.14423
   A10        2.13734   0.00417   0.00044   0.01995   0.02039   2.15773
   A11        2.25899  -0.00032  -0.00255   0.00100  -0.00162   2.25736
   A12        1.88686  -0.00385   0.00211  -0.02095  -0.01877   1.86809
   A13        2.09921  -0.00172   0.00338  -0.00585  -0.00236   2.09684
   A14        1.84314   0.00421  -0.00282   0.01496   0.01198   1.85513
   A15        2.34083  -0.00249  -0.00057  -0.00912  -0.00962   2.33122
   A16        2.04982  -0.00091  -0.00371  -0.00761  -0.01136   2.03846
   A17        2.12000   0.00118   0.00217   0.00891   0.01109   2.13109
   A18        2.11336  -0.00027   0.00155  -0.00130   0.00027   2.11363
   A19        1.90456   0.00770  -0.00037   0.03588   0.03572   1.94028
   A20        2.19538  -0.00458   0.00066  -0.02278  -0.02223   2.17315
   A21        2.18324  -0.00312  -0.00029  -0.01309  -0.01349   2.16975
   A22        1.89540  -0.00018   0.00329   0.00613   0.00925   1.90464
   A23        2.20412   0.00185  -0.00167   0.00899   0.00741   2.21153
   A24        2.18367  -0.00167  -0.00162  -0.01512  -0.01665   2.16702
   A25        1.89482  -0.00787  -0.00222  -0.03602  -0.03818   1.85664
   A26        2.10912   0.00524   0.00085   0.02685   0.02766   2.13678
   A27        2.27925   0.00263   0.00137   0.00918   0.01052   2.28977
    D1       -0.00005   0.00000  -0.00001   0.00008   0.00008   0.00002
    D2        3.14156   0.00000  -0.00001   0.00008   0.00007  -3.14155
    D3        3.14156   0.00000   0.00001   0.00001   0.00001   3.14158
    D4       -0.00000   0.00000   0.00000   0.00001   0.00001   0.00000
    D5        0.00010  -0.00000   0.00002  -0.00012  -0.00010   0.00000
    D6       -3.14158  -0.00000   0.00001  -0.00006  -0.00005   3.14156
    D7       -3.14151  -0.00000   0.00001  -0.00004  -0.00004  -3.14155
    D8       -0.00001   0.00000  -0.00000   0.00002   0.00002   0.00001
    D9       -0.00006  -0.00000  -0.00001   0.00004   0.00003  -0.00003
   D10       -3.14152   0.00000   0.00000   0.00001   0.00001  -3.14151
   D11        3.14151   0.00000  -0.00001   0.00004   0.00004   3.14154
   D12        0.00005   0.00000   0.00001   0.00001   0.00001   0.00006
   D13        0.00012  -0.00000   0.00002  -0.00013  -0.00011   0.00001
   D14       -3.14149   0.00000  -0.00001   0.00005   0.00004  -3.14145
   D15        3.14158  -0.00000   0.00000  -0.00009  -0.00009   3.14149
   D16       -0.00003  -0.00000  -0.00002   0.00008   0.00006   0.00003
   D17       -0.00007   0.00000  -0.00000   0.00009   0.00009   0.00002
   D18        3.14155   0.00000  -0.00002   0.00013   0.00012  -3.14152
   D19        3.14154   0.00000   0.00001  -0.00005  -0.00004   3.14150
   D20       -0.00003   0.00000   0.00000  -0.00001  -0.00001  -0.00004
   D21       -3.14142  -0.00000  -0.00002   0.00006   0.00004  -3.14137
   D22       -0.00107   0.00001   0.00001   0.00020   0.00021  -0.00087
   D23        0.00016   0.00000  -0.00004   0.00022   0.00018   0.00034
   D24        3.14050   0.00001  -0.00001   0.00036   0.00034   3.14085
   D25       -0.00004  -0.00000  -0.00001   0.00004   0.00002  -0.00002
   D26       -3.14155  -0.00000  -0.00001  -0.00002  -0.00003  -3.14158
   D27        3.14152  -0.00000   0.00000  -0.00002  -0.00001   3.14150
   D28        0.00001  -0.00000   0.00001  -0.00008  -0.00007  -0.00005
   D29       -0.00010   0.00000   0.00004  -0.00018  -0.00015  -0.00025
   D30        3.14148   0.00000   0.00001  -0.00003  -0.00002   3.14147
   D31        3.14152   0.00000   0.00002  -0.00014  -0.00011   3.14141
   D32       -0.00008   0.00000  -0.00000   0.00002   0.00001  -0.00006
   D33       -0.00023   0.00000   0.00007  -0.00033  -0.00026  -0.00049
   D34        3.14148   0.00000   0.00002  -0.00007  -0.00005   3.14143
   D35       -3.14058  -0.00000   0.00004  -0.00046  -0.00042  -3.14099
   D36        0.00113  -0.00000  -0.00001  -0.00020  -0.00021   0.00092
   D37        0.00020  -0.00000  -0.00007   0.00032   0.00025   0.00046
   D38       -3.14152  -0.00000  -0.00001   0.00003   0.00002  -3.14150
   D39       -3.14138  -0.00000  -0.00004   0.00017   0.00013  -3.14125
   D40        0.00008  -0.00000   0.00002  -0.00013  -0.00011  -0.00002
         Item               Value     Threshold  Converged?
 Maximum Force            0.020075     0.000450     NO 
 RMS     Force            0.004117     0.000300     NO 
 Maximum Displacement     0.042003     0.001800     NO 
 RMS     Displacement     0.012463     0.001200     NO 
 Predicted change in Energy=-2.497934D-03
 GradGradGradGradGradGradGradGradGradGradGradGradGradGradGradGradGradGrad

                          Input orientation:                          
 ---------------------------------------------------------------------
 Center     Atomic      Atomic             Coordinates (Angstroms)
 Number     Number       Type             X           Y           Z
 ---------------------------------------------------------------------
      1          6           0       -2.187338    0.696291    0.000058
      2          6           0       -2.146875   -0.690751    0.000047
      3          6           0       -0.903637   -1.440233    0.000043
      4          6           0        0.254815   -0.664630    0.000016
      5          6           0        0.250504    0.754666    0.000002
      6          6           0       -0.998981    1.475074    0.000036
      7          7           0        1.596536   -1.071246   -0.000153
      8          6           0        1.588735    1.150177   -0.000118
      9          6           0        2.422677   -0.014963    0.000158
     10          1           0        1.903276   -2.035137    0.000439
[...]
 ! D10   D(1,2,3,14)          -179.9966         -DE/DX =    0.0                 !
 ! D11   D(13,2,3,4)           180.0008         -DE/DX =    0.0                 !
 ! D12   D(13,2,3,14)            0.0027         -DE/DX =    0.0                 !
 ! D13   D(2,3,4,5)             -0.003          -DE/DX =    0.0                 !
 ! D14   D(2,3,4,7)           -179.9992         -DE/DX =    0.0                 !
 ! D15   D(14,3,4,5)           179.9951         -DE/DX =    0.0                 !
 ! D16   D(14,3,4,7)            -0.0012         -DE/DX =    0.0                 !
 ! D17   D(3,4,5,6)              0.0025         -DE/DX =    0.0                 !
 ! D18   D(3,4,5,8)            180.0049         -DE/DX =    0.0                 !
 ! D19   D(7,4,5,6)            179.9995         -DE/DX =    0.0                 !
 ! D20   D(7,4,5,8)              0.0019         -DE/DX =    0.0                 !
 ! D21   D(3,4,7,9)            180.0064         -DE/DX =    0.0                 !
 ! D22   D(3,4,7,10)            -0.0067         -DE/DX =    0.0                 !
 ! D23   D(5,4,7,9)              0.0097         -DE/DX =    0.0                 !
 ! D24   D(5,4,7,10)           179.9965         -DE/DX =    0.0                 !
 ! D25   D(4,5,6,1)             -0.0005         -DE/DX =    0.0                 !
 ! D26   D(4,5,6,16)           179.9988         -DE/DX =    0.0                 !
 ! D27   D(8,5,6,1)            179.9964         -DE/DX =    0.0                 !
 ! D28   D(8,5,6,16)            -0.0043         -DE/DX =    0.0                 !
 ! D29   D(4,5,8,9)             -0.012          -DE/DX =    0.0                 !
 ! D30   D(4,5,8,11)           179.9994         -DE/DX =    0.0                 !
 ! D31   D(6,5,8,9)           -180.0091         -DE/DX =    0.0                 !
 ! D32   D(6,5,8,11)             0.0022         -DE/DX =    0.0                 !
 ! D33   D(4,7,9,8)             -0.0169         -DE/DX =    0.0                 !
 ! D34   D(4,7,9,12)          -180.0071         -DE/DX =    0.0                 !
 ! D35   D(10,7,9,8)          -180.0037         -DE/DX =    0.0                 !
 ! D36   D(10,7,9,12)            0.0061         -DE/DX =    0.0                 !
 ! D37   D(5,8,9,7)              0.0178         -DE/DX =    0.0                 !
 ! D38   D(5,8,9,12)           180.0069         -DE/DX =    0.0                 !
 ! D39   D(11,8,9,7)          -179.9932         -DE/DX =    0.0                 !
 ! D40   D(11,8,9,12)           -0.004          -DE/DX =    0.0                 !
 --------------------------------------------------------------------------------
 GradGradGradGradGradGradGradGradGradGradGradGradGradGradGradGradGradGrad

                          Input orientation:                          
 ---------------------------------------------------------------------
 Center     Atomic      Atomic             Coordinates (Angstroms)
 Number     Number       Type             X           Y           Z
 ---------------------------------------------------------------------
      1          6           0       -2.179871    0.685151    0.000030
      2          6           0       -2.151626   -0.693127    0.000064
      3          6           0       -0.904536   -1.436990    0.000059
      4          6           0        0.245803   -0.659763    0.000050
      5          6           0        0.249145    0.749950   -0.000013
      6          6           0       -0.990121    1.462830   -0.000020
      7          7           0        1.588368   -1.065642    0.000029
      8          6           0        1.596164    1.158441   -0.000116
      9          6           0        2.419031   -0.008908    0.000168
     10          1           0        1.886743   -2.031930    0.000114
     11          1           0        1.973549    2.172273   -0.000195
     12          1           0        3.493243   -0.114071    0.000289
     13          1           0       -3.083461   -1.250155    0.000084
     14          1           0       -0.889396   -2.520570    0.000030
     15          1           0       -3.139395    1.193531    0.000012
     16          1           0       -1.016738    2.546425   -0.000048
 ---------------------------------------------------------------------
                    Distance matrix (angstroms):
                    1          2          3          4          5
     1  C    0.000000
     2  C    1.378568   0.000000
     3  C    2.475876   1.452090   0.000000
     4  C    2.773570   2.397661   1.388294   0.000000
     5  C    2.429880   2.801102   2.472586   1.409717   0.000000
     6  C    1.421369   2.448927   2.901082   2.456198   1.429678
     7  N    4.155105   3.758500   2.520410   1.402575   2.256078
     8  C    3.805580   4.180219   3.604131   2.264805   1.407595
     9  C    4.650980   4.621587   3.617391   2.268597   2.298754
    10  H    4.890795   4.254505   2.853977   2.139047   3.228092
    11  H    4.411624   5.022707   4.616292   3.317459   2.235301
    12  H    5.729133   5.674491   4.592447   3.292969   3.357186
    13  H    2.135857   1.085632   2.186921   3.381208   3.886732
    14  H    3.455716   2.220984   1.083686   2.179743   3.463030
    15  H    1.085880   2.129593   3.451700   3.859309   3.417450
    16  H    2.194817   3.432590   3.984995   3.445817   2.197677
                    6          7          8          9         10
     6  C    0.000000
     7  N    3.611339   0.000000
     8  C    2.604135   2.224097   0.000000
     9  C    3.713264   1.344131   1.428221   0.000000
    10  H    4.526553   1.011306   3.203576   2.091877   0.000000
    11  H    3.047401   3.260745   1.081792   2.226208   4.205098
    12  H    4.752595   2.129328   2.284337   1.079347   2.501804
    13  H    3.426713   4.675471   5.263101   5.640755   5.031312
    14  H    3.984673   2.873348   4.439947   4.153810   2.818815
    15  H    2.166079   5.239809   4.735688   5.686999   5.972072
    16  H    1.083922   4.453494   2.958675   4.281850   5.421396
                   11         12         13         14         15
    11  H    0.000000
    12  H    2.745329   0.000000
    13  H    6.106257   6.674108   0.000000
    14  H    5.497202   4.999876   2.535326   0.000000
    15  H    5.205779   6.760303   2.444326   4.342469   0.000000
    16  H    3.013604   5.236235   4.322658   5.068595   2.517140
                   16
    16  H    0.000000
 Stoichiometry    C8H7N
 Framework group  C1[X(C8H7N)]
 Deg. of freedom    42
 Full point group                 C1      NOp   1
 Largest Abelian subgroup         C1      NOp   1
 Largest concise Abelian subgroup C1      NOp   1
                         Standard orientation:                         
 ---------------------------------------------------------------------
 Center     Atomic      Atomic             Coordinates (Angstroms)
 Number     Number       Type             X           Y           Z
 ---------------------------------------------------------------------
      1          6           0       -2.192842    0.643602    0.000001
      2          6           0       -2.139244   -0.733924    0.000035
      3          6           0       -0.878680   -1.454717    0.000029
      4          6           0        0.257165   -0.656458    0.000021
      5          6           0        0.234571    0.753078   -0.000043
      6          6           0       -1.017601    1.443038   -0.000049
      7          7           0        1.606970   -1.037567   -0.000000
      8          6           0        1.573846    1.186283   -0.000145
      9          6           0        2.418051    0.034270    0.000138
     10          1           0        1.923072   -1.998202    0.000085
     11          1           0        1.932515    2.206886   -0.000224
     12          1           0        3.494015   -0.051111    0.000260
     13          1           0       -3.060674   -1.308001    0.000054
     14          1           0       -0.843607   -2.537835    0.000001
     15          1           0       -3.161556    1.134242   -0.000017
     16          1           0       -1.064149    2.525960   -0.000078
 ---------------------------------------------------------------------
 Rotational constants (GHZ):           3.8682665           1.6147574           1.1392093

 **********************************************************************

            Population analysis using the CI Density.

 **********************************************************************

 Orbital symmetries:
       Occupied  (A) (A) (A) (A) (A) (A) (A) (A) (A) (A) (A) (A)
                 (A) (A) (A) (A) (A) (A) (A) (A) (A) (A) (A) (A)
                 (A) (A) (A) (A) (A) (A) (A)
       Virtual   (A) (A) (A) (A) (A) (A) (A) (A) (A) (A) (A) (A)
                 (A) (A) (A) (A) (A) (A) (A) (A) (A) (A) (A) (A)
                 (A) (A) (A) (A) (A) (A) (A) (A) (A) (A) (A) (A)
                 (A) (A) (A) (A) (A) (A) (A) (A) (A) (A) (A) (A)
                 (A) (A) (A) (A) (A) (A) (A) (A) (A) (A) (A) (A)
                 (A) (A) (A) (A) (A) (A) (A) (A) (A) (A) (A) (A)
                 (A) (A) (A) (A) (A) (A) (A) (A) (A) (A) (A) (A)
                 (A) (A) (A) (A) (A) (A) (A) (A) (A) (A) (A) (A)
                 (A) (A) (A) (A) (A) (A) (A) (A) (A) (A) (A) (A)
                 (A) (A) (A) (A) (A) (A) (A) (A) (A) (A) (A) (A)
                 (A) (A) (A) (A) (A) (A) (A) (A) (A) (A) (A) (A)
                 (A) (A) (A) (A) (A) (A) (A) (A) (A) (A) (A) (A)
                 (A) (A) (A) (A) (A) (A) (A) (A) (A) (A)
 The electronic state is 1-A.
 Alpha  occ. eigenvalues --  -14.46148 -10.30483 -10.29781 -10.27398 -10.26746
 Alpha  occ. eigenvalues --  -10.26481 -10.26301 -10.25986 -10.25162  -1.07143
 Alpha  occ. eigenvalues --   -0.92238  -0.86095  -0.82343  -0.78859  -0.70652
 Alpha  occ. eigenvalues --   -0.67330  -0.65353  -0.61452  -0.55575  -0.54411
 Alpha  occ. eigenvalues --   -0.50854  -0.50159  -0.49720  -0.47162  -0.46067
 Alpha  occ. eigenvalues --   -0.41406  -0.41072  -0.40244  -0.33616  -0.28751
 Alpha  occ. eigenvalues --   -0.24617
 Alpha virt. eigenvalues --    0.01258   0.02324   0.04254   0.04804   0.06153
 Alpha virt. eigenvalues --    0.06311   0.06357   0.08024   0.08516   0.08998
 Alpha virt. eigenvalues --    0.09011   0.09353   0.11338   0.11780   0.12995
 Alpha virt. eigenvalues --    0.13093   0.14021   0.15515   0.16508   0.16665
 Alpha virt. eigenvalues --    0.18044   0.18343   0.19300   0.19837   0.20442
 Alpha virt. eigenvalues --    0.21395   0.21903   0.21960   0.22789   0.23442
 Alpha virt. eigenvalues --    0.23957   0.24684   0.24974   0.25663   0.26491
 Alpha virt. eigenvalues --    0.26787   0.26869   0.27789   0.28786   0.29652
 Alpha virt. eigenvalues --    0.30496   0.30869   0.32193   0.33494   0.34238
 Alpha virt. eigenvalues --    0.35478   0.36038   0.37668   0.39609   0.40535
 Alpha virt. eigenvalues --    0.42466   0.44159   0.48208   0.50640   0.56776
 Alpha virt. eigenvalues --    0.63635   0.66651   0.72512   0.72855   0.75353
 Alpha virt. eigenvalues --    0.77239   0.77864   0.78486   0.78937   0.79439
 Alpha virt. eigenvalues --    0.81161   0.81872   0.83139   0.84540   0.84857
 Alpha virt. eigenvalues --    0.86803   0.90935   0.94339   0.94936   0.96242
 Alpha virt. eigenvalues --    0.99785   1.00311   1.01135   1.01796   1.04194
 Alpha virt. eigenvalues --    1.05655   1.08588   1.10436   1.11665   1.14767
 Alpha virt. eigenvalues --    1.17218   1.18539   1.23258   1.23673   1.27080
 Alpha virt. eigenvalues --    1.28220   1.30768   1.31141   1.37950   1.39400
 Alpha virt. eigenvalues --    1.42052   1.42327   1.47074   1.47930   1.50146
 Alpha virt. eigenvalues --    1.54397   1.54752   1.56661   1.57511   1.60359
 Alpha virt. eigenvalues --    1.64743   1.69959   1.85614   1.88742   1.95313
 Alpha virt. eigenvalues --    1.97409   1.97440   2.00842   2.06380   2.07065
 Alpha virt. eigenvalues --    2.08004   2.10502   2.13916   2.19700   2.23179
 Alpha virt. eigenvalues --    2.23344   2.26836   2.29583   2.32052   2.34848
 Alpha virt. eigenvalues --    2.35308   2.38220   2.44506   2.47783   2.52940
 Alpha virt. eigenvalues --    2.59666   2.63167   2.68649   2.72306   2.72697
 Alpha virt. eigenvalues --    2.73976   2.79997   2.86806   2.90255   2.91862
 Alpha virt. eigenvalues --    3.02020   3.04898   3.16093   3.30859   3.48039
 Alpha virt. eigenvalues --    4.21661   4.30872   4.34354   4.37776   4.42270
 Alpha virt. eigenvalues --    4.46784   4.54123   4.58174   4.84252
          Condensed to atoms (all electrons):
               1          2          3          4          5          6
     1  C    5.446313   0.515659   0.277665  -0.397188  -0.189313  -0.074583
     2  C    0.515659   5.770427  -0.435267   0.324222  -0.369991   0.520778
     3  C    0.277665  -0.435267  14.038871  -2.355213  -4.327461  -2.699335
     4  C   -0.397188   0.324222  -2.355213  13.424889  -3.481108  -1.535685
     5  C   -0.189313  -0.369991  -4.327461  -3.481108  15.761985   0.087992
     6  C   -0.074583   0.520778  -2.699335  -1.535685   0.087992  12.689844
     7  N   -0.011927   0.009490  -0.478076  -0.272258   0.783645   0.076887
     8  C    0.194316  -0.331556   3.360089   1.686940  -5.659798  -3.466610
     9  C   -0.081596   0.038342  -1.114505  -0.636264   1.925989   0.914046
    10  H   -0.004089  -0.004811  -0.143062  -0.082956   0.193491   0.027376
    11  H    0.000513   0.000388   0.009422   0.071683  -0.092372  -0.028807
    12  H    0.000698   0.000072   0.020277   0.068270  -0.048355  -0.017223
    13  H   -0.016320   0.319254  -0.046174   0.025172  -0.003528   0.025456
    14  H    0.025009   0.001439   0.313265  -0.040651   0.020075  -0.020820
    15  H    0.318816  -0.016092   0.024531  -0.018315   0.033997  -0.040959
    16  H   -0.021000   0.023832  -0.045071   0.049222   0.039999   0.310829
               7          8          9         10         11         12
     1  C   -0.011927   0.194316  -0.081596  -0.004089   0.000513   0.000698
     2  C    0.009490  -0.331556   0.038342  -0.004811   0.000388   0.000072
     3  C   -0.478076   3.360089  -1.114505  -0.143062   0.009422   0.020277
     4  C   -0.272258   1.686940  -0.636264  -0.082956   0.071683   0.068270
     5  C    0.783645  -5.659798   1.925989   0.193491  -0.092372  -0.048355
     6  C    0.076887  -3.466610   0.914046   0.027376  -0.028807  -0.017223
     7  N    7.179131  -0.590104   0.508138   0.273226   0.007588  -0.051194
     8  C   -0.590104  12.546215  -2.160083  -0.012406   0.401357  -0.025825
     9  C    0.508138  -2.160083   6.601565  -0.017454  -0.070063   0.368399
    10  H    0.273226  -0.012406  -0.017454   0.332320  -0.000079  -0.002427
    11  H    0.007588   0.401357  -0.070063  -0.000079   0.480136  -0.000562
    12  H   -0.051194  -0.025825   0.368399  -0.002427  -0.000562   0.463284
    13  H   -0.000389  -0.001828   0.001431  -0.000001   0.000000  -0.000000
    14  H   -0.003839  -0.008556   0.008661   0.001952   0.000002   0.000002
    15  H    0.000213   0.000975   0.000120  -0.000000  -0.000002  -0.000000
    16  H   -0.000782  -0.067968   0.004674   0.000003   0.001450  -0.000001
              13         14         15         16
     1  C   -0.016320   0.025009   0.318816  -0.021000
     2  C    0.319254   0.001439  -0.016092   0.023832
     3  C   -0.046174   0.313265   0.024531  -0.045071
     4  C    0.025172  -0.040651  -0.018315   0.049222
     5  C   -0.003528   0.020075   0.033997   0.039999
     6  C    0.025456  -0.020820  -0.040959   0.310829
     7  N   -0.000389  -0.003839   0.000213  -0.000782
     8  C   -0.001828  -0.008556   0.000975  -0.067968
     9  C    0.001431   0.008661   0.000120   0.004674
    10  H   -0.000001   0.001952  -0.000000   0.000003
    11  H    0.000000   0.000002  -0.000002   0.001450
    12  H   -0.000000   0.000002  -0.000000  -0.000001
    13  H    0.525406  -0.003343  -0.004868  -0.000136
    14  H   -0.003343   0.523388  -0.000126   0.000013
    15  H   -0.004868  -0.000126   0.528034  -0.003500
    16  H   -0.000136   0.000013  -0.003500   0.521240
 Mulliken charges:
               1
     1  C    0.017026
     2  C   -0.366187
     3  C   -0.399956
     4  C   -0.830760
     5  C    1.324753
     6  C   -0.769188
     7  N   -0.429748
     8  C    0.134844
     9  C   -0.291400
    10  H    0.438917
    11  H    0.219343
    12  H    0.224587
    13  H    0.179868
    14  H    0.183527
    15  H    0.177178
    16  H    0.187195
 Sum of Mulliken charges =  -0.00000
 Mulliken charges with hydrogens summed into heavy atoms:
               1
     1  C    0.194204
     2  C   -0.186319
     3  C   -0.216429
     4  C   -0.830760
     5  C    1.324753
     6  C   -0.581992
     7  N    0.009169
     8  C    0.354187
     9  C   -0.066813
 Electronic spatial extent (au):  <R**2>=           1022.3384
 Charge=             -0.0000 electrons
 Dipole moment (field-independent basis, Debye):
    X=              4.1010    Y=             -1.4032    Z=             -0.0004  Tot=              4.3344
 Quadrupole moment (field-independent basis, Debye-Ang):
   XX=            -45.3621   YY=            -47.0211   ZZ=            -61.1551
   XY=             -2.3788   XZ=             -0.0001   YZ=             -0.0002
 Traceless Quadrupole moment (field-independent basis, Debye-Ang):
   XX=              5.8174   YY=              4.1583   ZZ=             -9.9757
   XY=             -2.3788   XZ=             -0.0001   YZ=             -0.0002
 Octapole moment (field-independent basis, Debye-Ang**2):
  XXX=             26.8314  YYY=             -9.7968  ZZZ=             -0.0038  XYY=             15.1653
  XXY=             -7.3449  XXZ=              0.0001  XZZ=              4.6120  YZZ=             -1.6253
  YYZ=             -0.0035  XYZ=             -0.0005
 Hexadecapole moment (field-independent basis, Debye-Ang**3):
 XXXX=           -858.4536 YYYY=           -405.7022 ZZZZ=            -91.5301 XXXY=            -18.7000
 XXXZ=             -0.0025 YYYX=            -15.2719 YYYZ=              0.0078 ZZZX=             -0.0087
 ZZZY=              0.0117 XXYY=           -201.4519 XXZZ=           -205.2225 YYZZ=           -107.3874
 XXYZ=              0.0012 YYXZ=             -0.0022 ZZXY=             -1.8088
 N-N= 3.984628801395D+02 E-N=-1.638758860868D+03  KE= 3.601218872604D+02
 Unable to Open any file for archive entry.
 1\1\GINC-EXP-2-07\FOpt\RCAM-B3LYP TD-FC\6-31+G(d)\C8H7N1\SCAPARAS\11-J
 un-2021\0\\# td= (nstates=6, root=2) CAM-B3LYP/6-31+G* Opt density=cur
 rent\\FuncsCAM-B3LYPII2nd\\0,1\C,-2.1798707377,0.6851512361,0.00003011
 86\C,-2.1516259934,-0.6931272956,0.0000640722\C,-0.9045355534,-1.43698
 96857,0.0000585189\C,0.2458032669,-0.6597634841,0.0000501315\C,0.24914
 53152,0.7499497449,-0.0000134061\C,-0.9901209119,1.4628298354,-0.00001
 9694\N,1.5883676682,-1.0656418629,0.0000287895\C,1.5961638288,1.158441
 2963,-0.0001160864\C,2.4190314001,-0.0089076636,0.0001677609\H,1.88674
 25504,-2.0319295383,0.00011401\H,1.9735494055,2.1722727442,-0.00019482
 25\H,3.4932425782,-0.1140705844,0.0002894145\H,-3.0834614113,-1.250155
 1487,0.000083667\H,-0.8893961091,-2.5205699802,0.0000298456\H,-3.13939
 45083,1.1935309316,0.0000120837\H,-1.0167377881,2.5464254549,-0.000048
 4034\\Version=AS64L-G16RevC.01\State=1-A\HF=-363.6134629\RMSD=5.071e-0
 9\RMSF=4.780e-05\Dipole=1.613443,-0.5520678,-0.0001393\Quadrupole=4.32
 50586,3.0916287,-7.4166873,-1.7685581,-0.0000628,-0.0001369\PG=C01 [X(
 C8H7N1)]\\@
 The archive entry for this job was punched.


 LAW OF COMPENSATION:
      NO CALCULATION IS EVER A COMPLETE FAILURE; IT 
      CAN ALWAYS SERVE AS A BAD EXAMPLE.

                                           -- ANON
 Job cpu time:       0 days  2 hours 25 minutes 56.7 seconds.
 Elapsed time:       0 days  0 hours 37 minutes  4.8 seconds.
 File lengths (MBytes):  RWF=    239 Int=      0 D2E=      0 Chk=     11 Scr=      1
 Normal termination of Gaussian 16 at Fri Jun 11 08:14:09 2021.
