 Entering Gaussian System, Link 0=/cm/shared/apps/spack/cpu/opt/spack/linux-centos8-zen/gcc-8.3.1/gaussian-16.C.01-po5bqktfeugvmjyga3v7eigbecnokxng/g16/g16
 Initial command:
 /cm/shared/apps/spack/cpu/opt/spack/linux-centos8-zen/gcc-8.3.1/gaussian-16.C.01-po5bqktfeugvmjyga3v7eigbecnokxng/g16/l1.exe "/scratch/scaparas/job_3445966/Gau-92007.inp" -scrdir="/scratch/scaparas/job_3445966/"
 Entering Link 1 = /cm/shared/apps/spack/cpu/opt/spack/linux-centos8-zen/gcc-8.3.1/gaussian-16.C.01-po5bqktfeugvmjyga3v7eigbecnokxng/g16/l1.exe PID=     92008.
  
 Copyright (c) 1988-2019, Gaussian, Inc.  All Rights Reserved.
  
 This is part of the Gaussian(R) 16 program.  It is based on
 the Gaussian(R) 09 system (copyright 2009, Gaussian, Inc.),
 the Gaussian(R) 03 system (copyright 2003, Gaussian, Inc.),
 the Gaussian(R) 98 system (copyright 1998, Gaussian, Inc.),
 the Gaussian(R) 94 system (copyright 1995, Gaussian, Inc.),
 the Gaussian 92(TM) system (copyright 1992, Gaussian, Inc.),
 the Gaussian 90(TM) system (copyright 1990, Gaussian, Inc.),
 the Gaussian 88(TM) system (copyright 1988, Gaussian, Inc.),
 the Gaussian 86(TM) system (copyright 1986, Carnegie Mellon
 University), and the Gaussian 82(TM) system (copyright 1983,
 Carnegie Mellon University). Gaussian is a federally registered
 trademark of Gaussian, Inc.
  
 This software contains proprietary and confidential information,
 including trade secrets, belonging to Gaussian, Inc.
  
 This software is provided under written license and may be
 used, copied, transmitted, or stored only in accord with that
 written license.
  
 The following legend is applicable only to US Government
 contracts under FAR:
  
                    RESTRICTED RIGHTS LEGEND
  
 Use, reproduction and disclosure by the US Government is
 subject to restrictions as set forth in subparagraphs (a)
 and (c) of the Commercial Computer Software - Restricted
 Rights clause in FAR 52.227-19.
  
 Gaussian, Inc.
 340 Quinnipiac St., Bldg. 40, Wallingford CT 06492
  
  
 ---------------------------------------------------------------
 Warning -- This program may not be used in any manner that
 competes with the business of Gaussian, Inc. or will provide
 assistance to any competitor of Gaussian, Inc.  The licensee
 of this program is prohibited from giving any competitor of
 Gaussian, Inc. access to this program.  By using this program,
 the user acknowledges that Gaussian, Inc. is engaged in the
 business of creating and licensing software in the field of
 computational chemistry and represents and warrants to the
 licensee that it is not a competitor of Gaussian, Inc. and that
 it will not use this program in any manner prohibited above.
 ---------------------------------------------------------------
  

 Cite this work as:
 Gaussian 16, Revision C.01,
 M. J. Frisch, G. W. Trucks, H. B. Schlegel, G. E. Scuseria, 
 M. A. Robb, J. R. Cheeseman, G. Scalmani, V. Barone, 
 G. A. Petersson, H. Nakatsuji, X. Li, M. Caricato, A. V. Marenich, 
 J. Bloino, B. G. Janesko, R. Gomperts, B. Mennucci, H. P. Hratchian, 
 J. V. Ortiz, A. F. Izmaylov, J. L. Sonnenberg, D. Williams-Young, 
 F. Ding, F. Lipparini, F. Egidi, J. Goings, B. Peng, A. Petrone, 
 T. Henderson, D. Ranasinghe, V. G. Zakrzewski, J. Gao, N. Rega, 
 G. Zheng, W. Liang, M. Hada, M. Ehara, K. Toyota, R. Fukuda, 
 J. Hasegawa, M. Ishida, T. Nakajima, Y. Honda, O. Kitao, H. Nakai, 
 T. Vreven, K. Throssell, J. A. Montgomery, Jr., J. E. Peralta, 
 F. Ogliaro, M. J. Bearpark, J. J. Heyd, E. N. Brothers, K. N. Kudin, 
 V. N. Staroverov, T. A. Keith, R. Kobayashi, J. Normand, 
 K. Raghavachari, A. P. Rendell, J. C. Burant, S. S. Iyengar, 
 J. Tomasi, M. Cossi, J. M. Millam, M. Klene, C. Adamo, R. Cammi, 
 J. W. Ochterski, R. L. Martin, K. Morokuma, O. Farkas, 
 J. B. Foresman, and D. J. Fox, Gaussian, Inc., Wallingford CT, 2019.
 
 ******************************************
 Gaussian 16:  AS64L-G16RevC.01  3-Jul-2019
                16-Jun-2021 
 ******************************************
 %nprocshared=4
 Will use up to    4 processors via shared memory.
 %chk=FuncsWB97X-V-2nd.chk
 %Mem=3GB
 -----------------------------------------------------------
 # td= (nstates=6, root=2) WB97X/6-31+G* Opt density=current
 -----------------------------------------------------------
 1/18=20,19=15,26=3,38=1/1,3;
 2/9=110,12=2,17=6,18=5,40=1/2;
 3/5=1,6=6,7=11,11=9,25=1,30=1,71=1,74=-57/1,2,3,8;
 4//1;
 5/5=2,38=5/2;
 8/6=1,10=2,107=2,108=6/1;
 9/8=2,15=2,41=6,42=1,70=2/14;
 10/5=4,28=2/2;
 6/7=2,8=2,9=2,10=2,22=-1/1;
 7/12=6,13=5,14=2/1,2,3,16;
 1/18=20,19=15,26=3/3(2);
 2/9=110/2;
 99//99;
 2/9=110/2;
 3/5=1,6=6,7=11,11=9,25=1,30=1,71=1,74=-57/1,2,3,8;
 4/5=5,16=3,69=1/1;
 5/5=2,38=5/2;
 8/6=1,10=2,107=2,108=6/1;
 9/8=2,15=2,41=6,42=1,49=4,70=2/14;
 10/5=4,28=2/2;
 7/12=6,13=5,14=2/1,2,3,16;
 1/18=20,19=15,26=3/3(-8);
 2/9=110/2;
 6/7=2,8=2,9=2,10=2,22=-1/1;
 99/9=10/99;
 ----------------
 FuncsWB97X-V-2nd
 ----------------
 Symbolic Z-matrix:
 Charge =  0 Multiplicity = 1
 C                    -2.15106   0.68921   0.00009 
 C                    -2.12793  -0.71582   0.00008 
 C                    -0.9323   -1.4131   -0.00001 
 C                     0.24691  -0.6702   -0.00004 
 C                     0.24819   0.7483    0. 
 C                    -0.97947   1.42353   0.00003 
 N                     1.56177  -1.07759  -0.00029 
 C                     1.62013   1.1629   -0.00016 
 C                     2.38201   0.03081   0.00025 
 H                     1.87632  -2.03001   0.00044 
 H                     1.99217   2.17301  -0.00035 
 H                     3.45255  -0.08243   0.00041 
 H                    -3.06159  -1.26202   0.00009 
 H                    -0.91725  -2.49534  -0.00007 
 H                    -3.1042    1.20079   0.00009 
 H                    -1.00935   2.50542  -0.00002 
 

 GradGradGradGradGradGradGradGradGradGradGradGradGradGradGradGradGradGrad
 Berny optimization.
 Initialization pass.
                           ----------------------------
                           !    Initial Parameters    !
                           ! (Angstroms and Degrees)  !
 --------------------------                            --------------------------
 ! Name  Definition              Value          Derivative Info.                !
 --------------------------------------------------------------------------------
 ! R1    R(1,2)                  1.4052         estimate D2E/DX2                !
 ! R2    R(1,6)                  1.3827         estimate D2E/DX2                !
 ! R3    R(1,15)                 1.0818         estimate D2E/DX2                !
 ! R4    R(2,3)                  1.3841         estimate D2E/DX2                !
 ! R5    R(2,13)                 1.0817         estimate D2E/DX2                !
 ! R6    R(3,4)                  1.3937         estimate D2E/DX2                !
 ! R7    R(3,14)                 1.0823         estimate D2E/DX2                !
 ! R8    R(4,5)                  1.4185         estimate D2E/DX2                !
 ! R9    R(4,7)                  1.3765         estimate D2E/DX2                !
 ! R10   R(5,6)                  1.4011         estimate D2E/DX2                !
 ! R11   R(5,8)                  1.4332         estimate D2E/DX2                !
 ! R12   R(6,16)                 1.0823         estimate D2E/DX2                !
 ! R13   R(7,9)                  1.3789         estimate D2E/DX2                !
 ! R14   R(7,10)                 1.003          estimate D2E/DX2                !
 ! R15   R(8,9)                  1.3646         estimate D2E/DX2                !
 ! R16   R(8,11)                 1.0764         estimate D2E/DX2                !
 ! R17   R(9,12)                 1.0765         estimate D2E/DX2                !
 ! A1    A(2,1,6)              121.1349         estimate D2E/DX2                !
 ! A2    A(2,1,15)             119.1671         estimate D2E/DX2                !
 ! A3    A(6,1,15)             119.698          estimate D2E/DX2                !
 ! A4    A(1,2,3)              121.1938         estimate D2E/DX2                !
 ! A5    A(1,2,13)             119.3846         estimate D2E/DX2                !
 ! A6    A(3,2,13)             119.4217         estimate D2E/DX2                !
 ! A7    A(2,3,4)              117.5387         estimate D2E/DX2                !
 ! A8    A(2,3,14)             121.0469         estimate D2E/DX2                !
 ! A9    A(4,3,14)             121.4144         estimate D2E/DX2                !
 ! A10   A(3,4,5)              122.2626         estimate D2E/DX2                !
 ! A11   A(3,4,7)              130.5743         estimate D2E/DX2                !
 ! A12   A(5,4,7)              107.163          estimate D2E/DX2                !
 ! A13   A(4,5,6)              118.7594         estimate D2E/DX2                !
 ! A14   A(4,5,8)              106.8666         estimate D2E/DX2                !
 ! A15   A(6,5,8)              134.374          estimate D2E/DX2                !
 ! A16   A(1,6,5)              119.1105         estimate D2E/DX2                !
 ! A17   A(1,6,16)             120.4966         estimate D2E/DX2                !
 ! A18   A(5,6,16)             120.3928         estimate D2E/DX2                !
 ! A19   A(4,7,9)              109.2874         estimate D2E/DX2                !
 ! A20   A(4,7,10)             125.4909         estimate D2E/DX2                !
 ! A21   A(9,7,10)             125.2217         estimate D2E/DX2                !
 ! A22   A(5,8,9)              107.125          estimate D2E/DX2                !
 ! A23   A(5,8,11)             127.0344         estimate D2E/DX2                !
 ! A24   A(9,8,11)             125.8405         estimate D2E/DX2                !
 ! A25   A(7,9,8)              109.5578         estimate D2E/DX2                !
 ! A26   A(7,9,12)             120.4645         estimate D2E/DX2                !
 ! A27   A(8,9,12)             129.9776         estimate D2E/DX2                !
 ! D1    D(6,1,2,3)             -0.0008         estimate D2E/DX2                !
 ! D2    D(6,1,2,13)          -179.9981         estimate D2E/DX2                !
 ! D3    D(15,1,2,3)           179.996          estimate D2E/DX2                !
 ! D4    D(15,1,2,13)           -0.0013         estimate D2E/DX2                !
 ! D5    D(2,1,6,5)             -0.0018         estimate D2E/DX2                !
 ! D6    D(2,1,6,16)           179.9965         estimate D2E/DX2                !
 ! D7    D(15,1,6,5)          -179.9986         estimate D2E/DX2                !
 ! D8    D(15,1,6,16)           -0.0003         estimate D2E/DX2                !
 ! D9    D(1,2,3,4)              0.002          estimate D2E/DX2                !
 ! D10   D(1,2,3,14)          -179.9968         estimate D2E/DX2                !
 ! D11   D(13,2,3,4)           179.9992         estimate D2E/DX2                !
 ! D12   D(13,2,3,14)            0.0005         estimate D2E/DX2                !
 ! D13   D(2,3,4,5)             -0.0005         estimate D2E/DX2                !
 ! D14   D(2,3,4,7)           -179.9911         estimate D2E/DX2                !
 ! D15   D(14,3,4,5)           179.9982         estimate D2E/DX2                !
 ! D16   D(14,3,4,7)             0.0076         estimate D2E/DX2                !
 ! D17   D(3,4,5,6)             -0.002          estimate D2E/DX2                !
 ! D18   D(3,4,5,8)           -179.9955         estimate D2E/DX2                !
 ! D19   D(7,4,5,6)            179.9905         estimate D2E/DX2                !
 ! D20   D(7,4,5,8)             -0.003          estimate D2E/DX2                !
 ! D21   D(3,4,7,9)           -179.98           estimate D2E/DX2                !
 ! D22   D(3,4,7,10)            -0.0649         estimate D2E/DX2                !
 ! D23   D(5,4,7,9)              0.0284         estimate D2E/DX2                !
 ! D24   D(5,4,7,10)           179.9434         estimate D2E/DX2                !
 ! D25   D(4,5,6,1)              0.0031         estimate D2E/DX2                !
 ! D26   D(4,5,6,16)          -179.9951         estimate D2E/DX2                !
 ! D27   D(8,5,6,1)            179.9944         estimate D2E/DX2                !
 ! D28   D(8,5,6,16)            -0.0038         estimate D2E/DX2                !
 ! D29   D(4,5,8,9)             -0.0234         estimate D2E/DX2                !
 ! D30   D(4,5,8,11)           179.9883         estimate D2E/DX2                !
 ! D31   D(6,5,8,9)            179.9846         estimate D2E/DX2                !
 ! D32   D(6,5,8,11)            -0.0037         estimate D2E/DX2                !
 ! D33   D(4,7,9,8)             -0.0444         estimate D2E/DX2                !
 ! D34   D(4,7,9,12)           179.9847         estimate D2E/DX2                !
 ! D35   D(10,7,9,8)          -179.9597         estimate D2E/DX2                !
 ! D36   D(10,7,9,12)            0.0693         estimate D2E/DX2                !
 ! D37   D(5,8,9,7)              0.0414         estimate D2E/DX2                !
 ! D38   D(5,8,9,12)          -179.9913         estimate D2E/DX2                !
 ! D39   D(11,8,9,7)          -179.9702         estimate D2E/DX2                !
 ! D40   D(11,8,9,12)           -0.0029         estimate D2E/DX2                !
 --------------------------------------------------------------------------------
 Trust Radius=3.00D-01 FncErr=1.00D-07 GrdErr=1.00D-06 EigMax=2.50D+02 EigMin=1.00D-04
 Number of steps in this run=     94 maximum allowed number of steps=    100.
 GradGradGradGradGradGradGradGradGradGradGradGradGradGradGradGradGradGrad

                          Input orientation:                          
 ---------------------------------------------------------------------
 Center     Atomic      Atomic             Coordinates (Angstroms)
 Number     Number       Type             X           Y           Z
 ---------------------------------------------------------------------
      1          6           0       -2.151063    0.689208    0.000088
      2          6           0       -2.127927   -0.715818    0.000075
      3          6           0       -0.932297   -1.413100   -0.000011
      4          6           0        0.246911   -0.670201   -0.000042
      5          6           0        0.248193    0.748299    0.000000
      6          6           0       -0.979474    1.423526    0.000032
      7          7           0        1.561774   -1.077592   -0.000285
      8          6           0        1.620133    1.162900   -0.000157
      9          6           0        2.382013    0.030806    0.000248
     10          1           0        1.876315   -2.030011    0.000438
     11          1           0        1.992173    2.173010   -0.000348
     12          1           0        3.452549   -0.082425    0.000408
     13          1           0       -3.061594   -1.262020    0.000088
     14          1           0       -0.917252   -2.495342   -0.000073
     15          1           0       -3.104203    1.200785    0.000090
     16          1           0       -1.009348    2.505421   -0.000015
 ---------------------------------------------------------------------
                    Distance matrix (angstroms):
                    1          2          3          4          5
     1  C    0.000000
     2  C    1.405216   0.000000
     3  C    2.430039   1.384100   0.000000
     4  C    2.756496   2.375276   1.393711   0.000000
     5  C    2.399984   2.790983   2.462763   1.418501   0.000000
     6  C    1.382694   2.428114   2.837018   2.426461   1.401106
     7  N    4.111781   3.707395   2.516536   1.376529   2.249305
     8  C    3.800829   4.192557   3.626386   2.290414   1.433218
     9  C    4.580641   4.571324   3.615178   2.247236   2.251218
    10  H    4.859416   4.214387   2.875566   2.122273   3.220216
    11  H    4.400917   5.031953   4.627387   3.336134   2.251948
    12  H    5.656491   5.616307   4.582311   3.259079   3.310287
    13  H    2.153220   1.081698   2.134650   3.361020   3.872476
    14  H    3.415208   2.152310   1.082347   2.164813   3.446661
    15  H    1.081752   2.150926   3.398466   3.838040   3.382795
    16  H    2.145261   3.409927   3.919278   3.415079   2.160761
                    6          7          8          9         10
     6  C    0.000000
     7  N    3.565604   0.000000
     8  C    2.612639   2.241252   0.000000
     9  C    3.638580   1.378890   1.364587   0.000000
    10  H    4.481345   1.003015   3.203172   2.121956   0.000000
    11  H    3.064704   3.278972   1.076446   2.177387   4.204618
    12  H    4.680888   2.136677   2.215532   1.076508   2.505515
    13  H    3.398144   4.627045   5.272457   5.595021   4.997275
    14  H    3.919362   2.855798   4.452085   4.155307   2.832058
    15  H    2.136372   5.192528   4.724488   5.609583   5.936632
    16  H    1.082307   4.410062   2.952378   4.198220   5.375611
                   11         12         13         14         15
    11  H    0.000000
    12  H    2.686947   0.000000
    13  H    6.110646   6.620083   0.000000
    14  H    5.500751   4.991726   2.473719   0.000000
    15  H    5.188282   6.681139   2.463174   4.294661   0.000000
    16  H    3.019872   5.158049   4.290143   5.001611   2.467892
                   16
    16  H    0.000000
 Stoichiometry    C8H7N
 Framework group  C1[X(C8H7N)]
 Deg. of freedom    42
 Full point group                 C1      NOp   1
 Largest Abelian subgroup         C1      NOp   1
 Largest concise Abelian subgroup C1      NOp   1
                         Standard orientation:                         
 ---------------------------------------------------------------------
 Center     Atomic      Atomic             Coordinates (Angstroms)
 Number     Number       Type             X           Y           Z
 ---------------------------------------------------------------------
      1          6           0       -2.151063    0.689208    0.000088
      2          6           0       -2.127927   -0.715818    0.000075
      3          6           0       -0.932297   -1.413100   -0.000011
      4          6           0        0.246911   -0.670201   -0.000042
      5          6           0        0.248193    0.748299    0.000000
      6          6           0       -0.979474    1.423526    0.000032
      7          7           0        1.561774   -1.077592   -0.000285
      8          6           0        1.620133    1.162900   -0.000157
      9          6           0        2.382013    0.030806    0.000248
     10          1           0        1.876315   -2.030011    0.000438
     11          1           0        1.992173    2.173010   -0.000348
     12          1           0        3.452549   -0.082425    0.000408
     13          1           0       -3.061594   -1.262020    0.000088
     14          1           0       -0.917252   -2.495342   -0.000073
     15          1           0       -3.104203    1.200785    0.000090
     16          1           0       -1.009348    2.505421   -0.000015
 ---------------------------------------------------------------------
 Rotational constants (GHZ):           3.9080822           1.6429452           1.1566805
 Standard basis: 6-31+G(d) (6D, 7F)
 There are   185 symmetry adapted cartesian basis functions of A   symmetry.
 There are   185 symmetry adapted basis functions of A   symmetry.
   185 basis functions,   316 primitive gaussians,   185 cartesian basis functions
    31 alpha electrons       31 beta electrons
       nuclear repulsion energy       401.3368668897 Hartrees.
 NAtoms=   16 NActive=   16 NUniq=   16 SFac= 1.00D+00 NAtFMM=   60 NAOKFM=F Big=F
 Integral buffers will be    131072 words long.
 Raffenetti 1 integral format.
 Two-electron integral symmetry is turned on.
 One-electron integrals computed using PRISM.
 NBasis=   185 RedAO= T EigKep=  1.26D-06  NBF=   185
 NBsUse=   185 1.00D-06 EigRej= -1.00D+00 NBFU=   185
 ExpMin= 4.38D-02 ExpMax= 4.17D+03 ExpMxC= 6.27D+02 IAcc=3 IRadAn=         5 AccDes= 0.00D+00
 Harris functional with IExCor= 4538 and IRadAn=       5 diagonalized for initial guess.
 HarFok:  IExCor= 4538 AccDes= 0.00D+00 IRadAn=         5 IDoV= 1 UseB2=F ITyADJ=14
 ICtDFT=  3500011 ScaDFX=  1.000000  1.000000  1.000000  1.000000
 FoFCou: FMM=F IPFlag=           0 FMFlag=      100000 FMFlg1=           0
         NFxFlg=           0 DoJE=T BraDBF=F KetDBF=T FulRan=T
         wScrn=  0.000000 ICntrl=       500 IOpCl=  0 I1Cent=   200000004 NGrid=           0
         NMat0=    1 NMatS0=      1 NMatT0=    0 NMatD0=    1 NMtDS0=    0 NMtDT0=    0
 Petite list used in FoFCou.
 Keep R1 ints in memory in canonical form, NReq=303303409.
 Requested convergence on RMS density matrix=1.00D-08 within 128 cycles.
 Requested convergence on MAX density matrix=1.00D-06.
 Requested convergence on             energy=1.00D-06.
 No special actions if energy rises.
 SCF Done:  E(RwB97X) =  -363.729156871     A.U. after   16 cycles
            NFock= 16  Conv=0.39D-08     -V/T= 2.0094
 DoSCS=F DFT=T ScalE2(SS,OS)=  1.000000  1.000000
 ExpMin= 4.38D-02 ExpMax= 4.17D+03 ExpMxC= 6.27D+02 IAcc=3 IRadAn=         5 AccDes= 0.00D+00
 HarFok:  IExCor=  205 AccDes= 0.00D+00 IRadAn=         5 IDoV=-2 UseB2=F ITyADJ=14
 ICtDFT= 12500011 ScaDFX=  1.000000  1.000000  1.000000  1.000000
 Range of M.O.s used for correlation:    10   185
 NBasis=   185 NAE=    31 NBE=    31 NFC=     9 NFV=     0
 NROrb=    176 NOA=    22 NOB=    22 NVA=   154 NVB=   154

 **** Warning!!: The largest alpha MO coefficient is  0.18143525D+03

 Orbital symmetries:
       Occupied  (A) (A) (A) (A) (A) (A) (A) (A) (A) (A) (A) (A)
                 (A) (A) (A) (A) (A) (A) (A) (A) (A) (A) (A) (A)
                 (A) (A) (A) (A) (A) (A) (A)
       Virtual   (A) (A) (A) (A) (A) (A) (A) (A) (A) (A) (A) (A)
                 (A) (A) (A) (A) (A) (A) (A) (A) (A) (A) (A) (A)
                 (A) (A) (A) (A) (A) (A) (A) (A) (A) (A) (A) (A)
                 (A) (A) (A) (A) (A) (A) (A) (A) (A) (A) (A) (A)
                 (A) (A) (A) (A) (A) (A) (A) (A) (A) (A) (A) (A)
                 (A) (A) (A) (A) (A) (A) (A) (A) (A) (A) (A) (A)
                 (A) (A) (A) (A) (A) (A) (A) (A) (A) (A) (A) (A)
                 (A) (A) (A) (A) (A) (A) (A) (A) (A) (A) (A) (A)
                 (A) (A) (A) (A) (A) (A) (A) (A) (A) (A) (A) (A)
                 (A) (A) (A) (A) (A) (A) (A) (A) (A) (A) (A) (A)
                 (A) (A) (A) (A) (A) (A) (A) (A) (A) (A) (A) (A)
                 (A) (A) (A) (A) (A) (A) (A) (A) (A) (A) (A) (A)
                 (A) (A) (A) (A) (A) (A) (A) (A) (A) (A)
    24 initial guesses have been made.
 Convergence on wavefunction:    0.000001000000000
 Iteration     1 Dimension    24 NMult     0 NNew     24
 CISAX will form    24 AO SS matrices at one time.
 New state      1 was old state      3
 New state      2 was old state      1
 New state      3 was old state      2
 New state      4 was old state      5
 New state      5 was old state      6
 New state      6 was old state      4
 Iteration     2 Dimension    36 NMult    24 NNew     12
 New state      5 was old state      6
 New state      6 was old state      5
 Iteration     3 Dimension    48 NMult    36 NNew     12
 Iteration     4 Dimension    60 NMult    48 NNew     12
 Iteration     5 Dimension    72 NMult    60 NNew     12
 Iteration     6 Dimension    84 NMult    72 NNew     12
 No map to state      5
 New state      6 was old state      5
 Iteration     7 Dimension    96 NMult    84 NNew     12
 New state      4 was old state      5
 New state      5 was old state      4
 Iteration     8 Dimension   108 NMult    96 NNew     12
 Iteration     9 Dimension   120 NMult   108 NNew     12
 Iteration    10 Dimension   132 NMult   120 NNew     12
 Iteration    11 Dimension   140 NMult   132 NNew      8
 Iteration    12 Dimension   146 NMult   140 NNew      6
 Iteration    13 Dimension   152 NMult   146 NNew      6
 Iteration    14 Dimension   156 NMult   152 NNew      4
 Iteration    15 Dimension   158 NMult   156 NNew      2
 Iteration    16 Dimension   160 NMult   158 NNew      2
 ***********************************************************************
 Excited states from <AA,BB:AA,BB> singles matrix:
 ***********************************************************************
 
 Ground to excited state transition densities written to RWF  633
 Ground to excited state transition electric dipole moments (Au):
       state          X           Y           Z        Dip. S.      Osc.
         1        -0.3564     -0.3890     -0.0000      0.2783      0.0352
         2        -0.8211      0.6102     -0.0002      1.0466      0.1351
         3         0.0001     -0.0002     -0.1982      0.0393      0.0058
         4        -1.9354     -0.7138     -0.0087      4.2554      0.6765
         5         0.0796      0.0293     -0.2073      0.0502      0.0080
         6        -0.0028     -0.0012      0.0567      0.0032      0.0005
 Ground to excited state transition velocity dipole moments (Au):
       state          X           Y           Z        Dip. S.      Osc.
         1         0.0656      0.0783      0.0000      0.0104      0.0367
         2         0.1472     -0.1264      0.0000      0.0376      0.1296
         3        -0.0000      0.0000      0.0351      0.0012      0.0037
         4         0.4499      0.1699      0.0021      0.2313      0.6465
         5        -0.0185     -0.0070      0.0496      0.0029      0.0080
         6         0.0007      0.0003     -0.0146      0.0002      0.0006
 Ground to excited state transition magnetic dipole moments (Au):
       state          X           Y           Z
         1        -0.0002     -0.0002     -0.1384
         2         0.0002     -0.0002      0.0879
         3         0.1374     -0.1747     -0.0002
         4         0.0062     -0.0154     -0.8669
         5         0.1601     -0.3597      0.0358
         6         0.4838     -0.1026     -0.0006
 Ground to excited state transition velocity quadrupole moments (Au):
       state          XX          YY          ZZ          XY          XZ          YZ
         1        -0.0243     -0.0725      0.0161     -0.0154      0.0001     -0.0001
         2         0.2595     -0.1836      0.0164     -0.0195      0.0002      0.0001
         3        -0.0001      0.0000      0.0001     -0.0002      0.1441      0.0657
         4         0.0976     -0.1351     -0.0452     -0.5872      0.0115      0.0041
         5        -0.0039      0.0056      0.0019      0.0243      0.2721      0.1068
         6        -0.0005     -0.0001     -0.0000     -0.0004      0.1985      0.4163
 <0|del|b> * <b|rxdel|0> + <0|del|b> * <b|delr+rdel|0>
 Rotatory Strengths (R) in cgs (10**-40 erg-esu-cm/Gauss)
       state          XX          YY          ZZ    R(velocity)    E-M Angle
         1        -0.0344     -0.0302     -0.0263     -0.0303       90.00
         2         0.0904      0.0875      0.0476      0.0752       90.00
         3        -0.0468     -0.0085     -0.0038     -0.0197       90.00
         4       -11.3045      6.0043      0.4108     -1.6298       90.23
         5        10.9619     -6.4772     -0.5542      1.3102       86.40
         6        -0.1049      0.8704      0.1049      0.2901       87.61
 1/2[<0|r|b>*<b|rxdel|0> + (<0|rxdel|b>*<b|r|0>)*]
 Rotatory Strengths (R) in cgs (10**-40 erg-esu-cm/Gauss)
       state          XX          YY          ZZ     R(length)
         1        -0.0412     -0.0431     -0.0042     -0.0295
         2         0.1362      0.0836      0.0114      0.0771
         3        -0.0103     -0.0255     -0.0339     -0.0232
         4         8.4776     -7.7879     -5.3478     -1.5527
         5        -9.0068      7.4621      5.2432      1.2328
         6         0.9487     -0.0856      0.0248      0.2959
  1/2[<0|del|b>*<b|r|0> + (<0|r|b>*<b|del|0>)*] (Au)
       state          X           Y           Z        Dip. S.   Osc.(frdel)
         1        -0.0234     -0.0305     -0.0000      0.0539      0.0359
         2        -0.1209     -0.0771     -0.0000      0.1980      0.1320
         3        -0.0000     -0.0000     -0.0070      0.0070      0.0046
         4        -0.8707     -0.1213     -0.0000      0.9920      0.6613
         5        -0.0015     -0.0002     -0.0103      0.0120      0.0080
         6        -0.0000     -0.0000     -0.0008      0.0008      0.0006

 Excitation energies and oscillator strengths:
 
 Excited State   1:      Singlet-A      5.1575 eV  240.40 nm  f=0.0352  <S**2>=0.000
      30 -> 32         0.57865
      31 -> 32        -0.13099
      31 -> 36        -0.33958
 
 Excited State   2:      Singlet-A      5.2674 eV  235.38 nm  f=0.1351  <S**2>=0.000
      30 -> 36         0.21262
      31 -> 32         0.64967
 This state for optimization and/or second-order correction.
 Total Energy, E(TD-HF/TD-DFT) =  -363.535584917    
 Copying the excited state density for this state as the 1-particle RhoCI density.
 
 Excited State   3:      Singlet-A      6.0089 eV  206.34 nm  f=0.0058  <S**2>=0.000
      29 -> 33         0.10585
      31 -> 33         0.64813
      31 -> 40         0.15717
 
 Excited State   4:      Singlet-A      6.4886 eV  191.08 nm  f=0.6765  <S**2>=0.000
      30 -> 32         0.34596
      31 -> 36         0.58313
      31 -> 39         0.10506
 
 Excited State   5:      Singlet-A      6.4925 eV  190.96 nm  f=0.0080  <S**2>=0.000
      27 -> 33        -0.10368
      30 -> 33         0.57713
      30 -> 34        -0.12325
      30 -> 40         0.17624
      31 -> 34         0.23684
      31 -> 35        -0.11742
 
 Excited State   6:      Singlet-A      6.6842 eV  185.49 nm  f=0.0005  <S**2>=0.000
      29 -> 33         0.12359
      30 -> 33        -0.18693
      31 -> 34         0.57628
      31 -> 35         0.15122
      31 -> 40        -0.14116
      31 -> 43         0.12697
 SavETr:  write IOETrn=   770 NScale= 10 NData=  16 NLR=1 NState=    6 LETran=     118.
          IDoAtm=1111111111111111
          Differentiating once with respect to electric field.
                with respect to dipole field.
          Differentiating once with respect to nuclear coordinates.
 Keep R1 ints in memory in canonical form, NReq=303315801.
          There are     1 degrees of freedom in the 1st order CPHF.  IDoFFX=0 NUNeed=     1.
 LinEq1:  Iter=  0 NonCon=     1 RMS=4.78D-03 Max=8.81D-02 NDo=     1
 AX will form     1 AO Fock derivatives at one time.
 LinEq1:  Iter=  1 NonCon=     1 RMS=1.90D-03 Max=5.76D-02 NDo=     1
 LinEq1:  Iter=  2 NonCon=     1 RMS=7.83D-04 Max=1.85D-02 NDo=     1
 LinEq1:  Iter=  3 NonCon=     1 RMS=4.41D-04 Max=1.40D-02 NDo=     1
 LinEq1:  Iter=  4 NonCon=     1 RMS=1.69D-04 Max=4.44D-03 NDo=     1
 LinEq1:  Iter=  5 NonCon=     1 RMS=7.71D-05 Max=3.00D-03 NDo=     1
 LinEq1:  Iter=  6 NonCon=     1 RMS=3.33D-05 Max=9.46D-04 NDo=     1
 LinEq1:  Iter=  7 NonCon=     1 RMS=1.64D-05 Max=3.11D-04 NDo=     1
 LinEq1:  Iter=  8 NonCon=     1 RMS=6.74D-06 Max=1.61D-04 NDo=     1
 LinEq1:  Iter=  9 NonCon=     1 RMS=2.14D-06 Max=3.00D-05 NDo=     1
 LinEq1:  Iter= 10 NonCon=     1 RMS=1.04D-06 Max=2.67D-05 NDo=     1
 LinEq1:  Iter= 11 NonCon=     1 RMS=3.63D-07 Max=8.89D-06 NDo=     1
 LinEq1:  Iter= 12 NonCon=     1 RMS=1.80D-07 Max=4.06D-06 NDo=     1
 LinEq1:  Iter= 13 NonCon=     1 RMS=6.20D-08 Max=1.31D-06 NDo=     1
 LinEq1:  Iter= 14 NonCon=     1 RMS=2.08D-08 Max=4.08D-07 NDo=     1
 LinEq1:  Iter= 15 NonCon=     1 RMS=9.25D-09 Max=1.51D-07 NDo=     1
 LinEq1:  Iter= 16 NonCon=     1 RMS=2.00D-09 Max=2.91D-08 NDo=     1
 LinEq1:  Iter= 17 NonCon=     1 RMS=8.25D-10 Max=1.49D-08 NDo=     1
 LinEq1:  Iter= 18 NonCon=     1 RMS=2.55D-10 Max=4.43D-09 NDo=     1
 LinEq1:  Iter= 19 NonCon=     0 RMS=4.93D-11 Max=6.39D-10 NDo=     1
 Linear equations converged to 1.000D-10 1.000D-09 after    19 iterations.
 End of Minotr F.D. properties file   721 does not exist.
 End of Minotr F.D. properties file   722 does not exist.
 End of Minotr F.D. properties file   788 does not exist.

 **********************************************************************

            Population analysis using the CI Density.

 **********************************************************************

 Orbital symmetries:
       Occupied  (A) (A) (A) (A) (A) (A) (A) (A) (A) (A) (A) (A)
                 (A) (A) (A) (A) (A) (A) (A) (A) (A) (A) (A) (A)
                 (A) (A) (A) (A) (A) (A) (A)
       Virtual   (A) (A) (A) (A) (A) (A) (A) (A) (A) (A) (A) (A)
                 (A) (A) (A) (A) (A) (A) (A) (A) (A) (A) (A) (A)
                 (A) (A) (A) (A) (A) (A) (A) (A) (A) (A) (A) (A)
                 (A) (A) (A) (A) (A) (A) (A) (A) (A) (A) (A) (A)
                 (A) (A) (A) (A) (A) (A) (A) (A) (A) (A) (A) (A)
                 (A) (A) (A) (A) (A) (A) (A) (A) (A) (A) (A) (A)
                 (A) (A) (A) (A) (A) (A) (A) (A) (A) (A) (A) (A)
                 (A) (A) (A) (A) (A) (A) (A) (A) (A) (A) (A) (A)
                 (A) (A) (A) (A) (A) (A) (A) (A) (A) (A) (A) (A)
                 (A) (A) (A) (A) (A) (A) (A) (A) (A) (A) (A) (A)
                 (A) (A) (A) (A) (A) (A) (A) (A) (A) (A) (A) (A)
                 (A) (A) (A) (A) (A) (A) (A) (A) (A) (A) (A) (A)
                 (A) (A) (A) (A) (A) (A) (A) (A) (A) (A)
 The electronic state is 1-A.
 Alpha  occ. eigenvalues --  -14.46203 -10.30836 -10.30537 -10.27575 -10.27117
 Alpha  occ. eigenvalues --  -10.27089 -10.27026 -10.26495 -10.26126  -1.11690
 Alpha  occ. eigenvalues --   -0.97537  -0.91571  -0.86669  -0.84791  -0.74845
 Alpha  occ. eigenvalues --   -0.71687  -0.70340  -0.65877  -0.59685  -0.58562
 Alpha  occ. eigenvalues --   -0.54689  -0.54153  -0.54010  -0.51948  -0.49831
 Alpha  occ. eigenvalues --   -0.45878  -0.44709  -0.43672  -0.38173  -0.31213
 Alpha  occ. eigenvalues --   -0.29423
 Alpha virt. eigenvalues --    0.05903   0.06649   0.08403   0.08840   0.09873
 Alpha virt. eigenvalues --    0.10132   0.10498   0.12002   0.12447   0.12966
 Alpha virt. eigenvalues --    0.13057   0.13439   0.15289   0.16042   0.16816
 Alpha virt. eigenvalues --    0.16962   0.17917   0.19498   0.20770   0.20831
 Alpha virt. eigenvalues --    0.22249   0.22582   0.23471   0.23951   0.24009
 Alpha virt. eigenvalues --    0.25454   0.25600   0.25907   0.26590   0.27282
 Alpha virt. eigenvalues --    0.27857   0.28958   0.29099   0.29952   0.30377
 Alpha virt. eigenvalues --    0.30832   0.31585   0.31663   0.32771   0.33400
 Alpha virt. eigenvalues --    0.34535   0.34735   0.36436   0.37715   0.39144
 Alpha virt. eigenvalues --    0.40143   0.40206   0.41730   0.43861   0.46121
 Alpha virt. eigenvalues --    0.47130   0.49622   0.54204   0.55023   0.61823
 Alpha virt. eigenvalues --    0.68906   0.73549   0.77687   0.77952   0.80317
 Alpha virt. eigenvalues --    0.82271   0.82475   0.84062   0.84121   0.85096
 Alpha virt. eigenvalues --    0.85748   0.86681   0.88283   0.89778   0.90888
 Alpha virt. eigenvalues --    0.92448   0.95974   1.00315   1.01241   1.02379
 Alpha virt. eigenvalues --    1.04611   1.05310   1.06204   1.07066   1.09332
 Alpha virt. eigenvalues --    1.11288   1.13938   1.15595   1.17641   1.20119
 Alpha virt. eigenvalues --    1.22191   1.22749   1.27912   1.28882   1.31404
 Alpha virt. eigenvalues --    1.33188   1.34153   1.36352   1.42866   1.42901
 Alpha virt. eigenvalues --    1.44811   1.47707   1.52360   1.52674   1.56208
 Alpha virt. eigenvalues --    1.57012   1.57441   1.60650   1.61290   1.65064
 Alpha virt. eigenvalues --    1.70008   1.76152   1.89907   1.95600   1.99655
 Alpha virt. eigenvalues --    2.00165   2.03535   2.05555   2.10818   2.11097
 Alpha virt. eigenvalues --    2.11637   2.17658   2.21324   2.25487   2.28561
 Alpha virt. eigenvalues --    2.28579   2.31120   2.36199   2.37264   2.37773
 Alpha virt. eigenvalues --    2.39697   2.42583   2.49406   2.52205   2.55849
 Alpha virt. eigenvalues --    2.66140   2.67367   2.74885   2.77026   2.78398
 Alpha virt. eigenvalues --    2.81481   2.85141   2.92468   2.96038   2.97410
 Alpha virt. eigenvalues --    3.06987   3.09232   3.23025   3.36063   3.56469
 Alpha virt. eigenvalues --    4.27133   4.38406   4.41340   4.44812   4.48459
 Alpha virt. eigenvalues --    4.52064   4.60359   4.64335   4.91218
          Condensed to atoms (all electrons):
               1          2          3          4          5          6
     1  C    5.547740   0.517452   0.153052  -0.491034  -0.036470  -0.075489
     2  C    0.517452   5.857209  -0.362607   0.469274  -0.581171   0.454011
     3  C    0.153052  -0.362607  12.303187  -2.259289  -2.740081  -2.336167
     4  C   -0.491034   0.469274  -2.259289  11.551142  -2.201587  -0.748077
     5  C   -0.036470  -0.581171  -2.740081  -2.201587  12.662133  -0.557770
     6  C   -0.075489   0.454011  -2.336167  -0.748077  -0.557770  11.755547
     7  N   -0.012731   0.004776  -0.483448  -0.230085   0.726388   0.126192
     8  C    0.158724  -0.290303   2.814544   1.053066  -3.988778  -2.972307
     9  C   -0.085753   0.046562  -1.072734  -0.487962   1.569888   0.876860
    10  H   -0.002302  -0.006431  -0.108484  -0.063208   0.141009   0.025447
    11  H    0.003820   0.000565   0.001161   0.021161   0.007271  -0.011725
    12  H    0.000794   0.000153   0.021341   0.066133  -0.060914  -0.018532
    13  H   -0.011389   0.310386  -0.025383   0.023682   0.004591   0.012868
    14  H    0.018250   0.027068   0.255956   0.010726   0.005195  -0.012761
    15  H    0.323306  -0.015699   0.021541  -0.016321   0.035155  -0.034866
    16  H   -0.016203   0.016401  -0.035706   0.053796   0.064483   0.271798
               7          8          9         10         11         12
     1  C   -0.012731   0.158724  -0.085753  -0.002302   0.003820   0.000794
     2  C    0.004776  -0.290303   0.046562  -0.006431   0.000565   0.000153
     3  C   -0.483448   2.814544  -1.072734  -0.108484   0.001161   0.021341
     4  C   -0.230085   1.053066  -0.487962  -0.063208   0.021161   0.066133
     5  C    0.726388  -3.988778   1.569888   0.141009   0.007271  -0.060914
     6  C    0.126192  -2.972307   0.876860   0.025447  -0.011725  -0.018532
     7  N    7.193899  -0.653356   0.582847   0.285722   0.006441  -0.048579
     8  C   -0.653356  11.251677  -1.890869  -0.015681   0.317615   0.014717
     9  C    0.582847  -1.890869   6.484252  -0.008956  -0.034593   0.345553
    10  H    0.285722  -0.015681  -0.008956   0.305093  -0.000059  -0.001741
    11  H    0.006441   0.317615  -0.034593  -0.000059   0.451019  -0.000419
    12  H   -0.048579   0.014717   0.345553  -0.001741  -0.000419   0.446038
    13  H   -0.000341  -0.001113   0.001199  -0.000001   0.000000  -0.000000
    14  H   -0.001085  -0.012855   0.012506   0.001571   0.000001   0.000002
    15  H    0.000206   0.002620   0.000100  -0.000000  -0.000001  -0.000000
    16  H   -0.000847  -0.055606   0.005718   0.000003   0.001158  -0.000001
              13         14         15         16
     1  C   -0.011389   0.018250   0.323306  -0.016203
     2  C    0.310386   0.027068  -0.015699   0.016401
     3  C   -0.025383   0.255956   0.021541  -0.035706
     4  C    0.023682   0.010726  -0.016321   0.053796
     5  C    0.004591   0.005195   0.035155   0.064483
     6  C    0.012868  -0.012761  -0.034866   0.271798
     7  N   -0.000341  -0.001085   0.000206  -0.000847
     8  C   -0.001113  -0.012855   0.002620  -0.055606
     9  C    0.001199   0.012506   0.000100   0.005718
    10  H   -0.000001   0.001571  -0.000000   0.000003
    11  H    0.000000   0.000001  -0.000001   0.001158
    12  H   -0.000000   0.000002  -0.000000  -0.000001
    13  H    0.492671  -0.003295  -0.003420  -0.000125
    14  H   -0.003295   0.497696  -0.000126   0.000014
    15  H   -0.003420  -0.000126   0.497126  -0.003357
    16  H   -0.000125   0.000014  -0.003357   0.498276
 Mulliken charges:
               1
     1  C    0.008233
     2  C   -0.447647
     3  C   -0.146882
     4  C   -0.751418
     5  C    0.950657
     6  C   -0.755029
     7  N   -0.495998
     8  C    0.267904
     9  C   -0.344617
    10  H    0.448018
    11  H    0.236584
    12  H    0.235456
    13  H    0.199669
    14  H    0.201133
    15  H    0.193736
    16  H    0.200200
 Sum of Mulliken charges =  -0.00000
 Mulliken charges with hydrogens summed into heavy atoms:
               1
     1  C    0.201969
     2  C   -0.247977
     3  C    0.054251
     4  C   -0.751418
     5  C    0.950657
     6  C   -0.554829
     7  N   -0.047980
     8  C    0.504488
     9  C   -0.109161
 Electronic spatial extent (au):  <R**2>=           1007.4061
 Charge=             -0.0000 electrons
 Dipole moment (field-independent basis, Debye):
    X=              3.6721    Y=             -1.5703    Z=             -0.0003  Tot=              3.9938
 Quadrupole moment (field-independent basis, Debye-Ang):
   XX=            -45.4202   YY=            -45.9007   ZZ=            -60.2872
   XY=             -2.0626   XZ=              0.0008   YZ=             -0.0017
 Traceless Quadrupole moment (field-independent basis, Debye-Ang):
   XX=              5.1159   YY=              4.6353   ZZ=             -9.7512
   XY=             -2.0626   XZ=              0.0008   YZ=             -0.0017
 Octapole moment (field-independent basis, Debye-Ang**2):
  XXX=             24.9988  YYY=            -10.3757  ZZZ=             -0.0093  XYY=             14.0380
  XXY=             -6.9766  XXZ=              0.0008  XZZ=              4.3365  YZZ=             -1.5705
  YYZ=             -0.0036  XYZ=             -0.0039
 Hexadecapole moment (field-independent basis, Debye-Ang**3):
 XXXX=           -837.2574 YYYY=           -385.9045 ZZZZ=            -84.3192 XXXY=            -15.2791
 XXXZ=              0.0007 YYYX=            -15.4197 YYYZ=             -0.0046 ZZZX=             -0.0066
 ZZZY=              0.0052 XXYY=           -193.7469 XXZZ=           -198.6928 YYZZ=           -101.2404
 XXYZ=             -0.0062 YYXZ=              0.0054 ZZXY=             -1.7018
 N-N= 4.013368668897D+02 E-N=-1.644783587730D+03  KE= 3.604893974838D+02
 Calling FoFJK, ICntrl=  10005127 FMM=F ISym2X=0 I1Cent= 0 IOpClX= 0 NMat=1 NMatS=1 NMatT=0.
 ***** Axes restored to original set *****
 -------------------------------------------------------------------
 Center     Atomic                   Forces (Hartrees/Bohr)
 Number     Number              X              Y              Z
 -------------------------------------------------------------------
      1        6          -0.023276641   -0.029461169   -0.000004238
      2        6          -0.040151986    0.042092130    0.000001508
      3        6           0.046960030   -0.030083969    0.000007251
      4        6          -0.014742183    0.004589512   -0.000016446
      5        6           0.036934822   -0.003044881   -0.000024965
      6        6           0.000471474    0.033598616   -0.000000258
      7        7           0.021432004    0.021229992    0.000050616
      8        6          -0.054795911    0.020973615    0.000022979
      9        6           0.024524970   -0.057110228   -0.000042187
     10        1           0.002501648   -0.005277117    0.000000603
     11        1           0.001746794    0.004083351    0.000004302
     12        1           0.004083415   -0.001063510   -0.000001102
     13        1          -0.003417206   -0.001710931    0.000000176
     14        1           0.000720804   -0.003597726   -0.000003054
     15        1          -0.003302256    0.001234840    0.000001506
     16        1           0.000310221    0.003547475    0.000003310
 -------------------------------------------------------------------
 Cartesian Forces:  Max     0.057110228 RMS     0.019887873

 GradGradGradGradGradGradGradGradGradGradGradGradGradGradGradGradGradGrad
 Berny optimization.
 FormGI is forming the generalized inverse of G from B-inverse, IUseBI=4.
 Internal  Forces:  Max     0.054443004 RMS     0.010413480
 Search for a local minimum.
 Step number   1 out of a maximum of   94
 All quantities printed in internal units (Hartrees-Bohrs-Radians)
 Mixed Optimization -- RFO/linear search
 Second derivative matrix not updated -- first step.
 ITU=  0
     Eigenvalues ---    0.01853   0.01931   0.01986   0.02012   0.02070
     Eigenvalues ---    0.02113   0.02148   0.02153   0.02172   0.02209
     Eigenvalues ---    0.02233   0.02248   0.02338   0.16000   0.16000
     Eigenvalues ---    0.16000   0.16000   0.16000   0.16000   0.16000
     Eigenvalues ---    0.22000   0.22188   0.22662   0.24011   0.24651
     Eigenvalues ---    0.35712   0.35717   0.35783   0.35790   0.36420
     Eigenvalues ---    0.36427   0.37009   0.38432   0.42633   0.43465
     Eigenvalues ---    0.45769   0.46692   0.47162   0.47468   0.47567
     Eigenvalues ---    0.48125   0.50955
 RFO step:  Lambda=-1.88771636D-02 EMin= 1.85287394D-02
 Linear search not attempted -- first point.
 Iteration  1 RMS(Cart)=  0.02974181 RMS(Int)=  0.00019907
 Iteration  2 RMS(Cart)=  0.00020044 RMS(Int)=  0.00008360
 Iteration  3 RMS(Cart)=  0.00000005 RMS(Int)=  0.00008360
 Variable       Old X    -DE/DX   Delta X   Delta X   Delta X     New X
                                 (Linear)    (Quad)   (Total)
    R1        2.65547  -0.01014   0.00000  -0.02036  -0.02035   2.63512
    R2        2.61291   0.03056   0.00000   0.06152   0.06153   2.67445
    R3        2.04421   0.00349   0.00000   0.00927   0.00927   2.05349
    R4        2.61557   0.05444   0.00000   0.10864   0.10864   2.72421
    R5        2.04411   0.00381   0.00000   0.01012   0.01012   2.05424
    R6        2.63373  -0.00008   0.00000  -0.00121  -0.00123   2.63251
    R7        2.04534   0.00361   0.00000   0.00960   0.00960   2.05493
    R8        2.68058   0.00617   0.00000   0.00971   0.00953   2.69010
    R9        2.60126   0.01825   0.00000   0.03389   0.03399   2.63526
   R10        2.64771   0.03019   0.00000   0.06353   0.06353   2.71123
   R11        2.70839  -0.01947   0.00000  -0.04578  -0.04598   2.66241
   R12        2.04526   0.00354   0.00000   0.00941   0.00941   2.05467
   R13        2.60573  -0.02290   0.00000  -0.04333  -0.04310   2.56263
   R14        1.89542   0.00579   0.00000   0.01181   0.01181   1.90724
   R15        2.57870   0.04891   0.00000   0.09298   0.09303   2.67172
   R16        2.03419   0.00444   0.00000   0.01158   0.01158   2.04577
   R17        2.03430   0.00417   0.00000   0.01089   0.01089   2.04520
    A1        2.11420  -0.00125   0.00000  -0.00119  -0.00120   2.11300
    A2        2.07986   0.00014   0.00000  -0.00213  -0.00212   2.07774
    A3        2.08912   0.00111   0.00000   0.00331   0.00332   2.09245
    A4        2.11523   0.00245   0.00000   0.01274   0.01271   2.12794
    A5        2.08365  -0.00148   0.00000  -0.00778  -0.00776   2.07589
    A6        2.08430  -0.00098   0.00000  -0.00496  -0.00495   2.07935
    A7        2.05144  -0.00287   0.00000  -0.01435  -0.01440   2.03704
    A8        2.11267   0.00212   0.00000   0.01102   0.01104   2.12371
    A9        2.11908   0.00075   0.00000   0.00333   0.00335   2.12243
   A10        2.13389   0.00155   0.00000   0.00479   0.00477   2.13866
   A11        2.27895  -0.00576   0.00000  -0.01509  -0.01502   2.26393
   A12        1.87035   0.00422   0.00000   0.01030   0.01025   1.88060
   A13        2.07274   0.00520   0.00000   0.01834   0.01848   2.09122
   A14        1.86517  -0.00390   0.00000  -0.01780  -0.01814   1.84703
   A15        2.34527  -0.00130   0.00000  -0.00054  -0.00033   2.34493
   A16        2.07887  -0.00507   0.00000  -0.02034  -0.02036   2.05851
   A17        2.10306   0.00295   0.00000   0.01249   0.01250   2.11556
   A18        2.10125   0.00212   0.00000   0.00785   0.00786   2.10911
   A19        1.90743   0.00368   0.00000   0.01407   0.01436   1.92178
   A20        2.19023  -0.00116   0.00000  -0.00321  -0.00335   2.18688
   A21        2.18553  -0.00253   0.00000  -0.01086  -0.01101   2.17452
   A22        1.86968   0.00641   0.00000   0.03073   0.03058   1.90026
   A23        2.21717  -0.00297   0.00000  -0.01408  -0.01400   2.20317
   A24        2.19633  -0.00343   0.00000  -0.01665  -0.01657   2.17976
   A25        1.91215  -0.01041   0.00000  -0.03729  -0.03704   1.87510
   A26        2.10250   0.00457   0.00000   0.01509   0.01496   2.11747
   A27        2.26854   0.00584   0.00000   0.02220   0.02208   2.29061
    D1       -0.00001   0.00000   0.00000   0.00000   0.00000  -0.00001
    D2       -3.14156  -0.00000   0.00000  -0.00003  -0.00003  -3.14159
    D3        3.14152   0.00000   0.00000   0.00006   0.00006   3.14159
    D4       -0.00002   0.00000   0.00000   0.00003   0.00003   0.00001
    D5       -0.00003   0.00000   0.00000   0.00007   0.00007   0.00004
    D6        3.14153   0.00000   0.00000   0.00008   0.00008  -3.14157
    D7       -3.14157   0.00000   0.00000   0.00001   0.00001  -3.14156
    D8       -0.00001   0.00000   0.00000   0.00002   0.00002   0.00001
    D9        0.00003  -0.00000   0.00000  -0.00006  -0.00007  -0.00003
   D10       -3.14154  -0.00000   0.00000  -0.00000  -0.00000  -3.14154
   D11        3.14158  -0.00000   0.00000  -0.00003  -0.00003   3.14155
   D12        0.00001   0.00000   0.00000   0.00003   0.00003   0.00004
   D13       -0.00001   0.00000   0.00000   0.00006   0.00006   0.00005
   D14       -3.14144  -0.00000   0.00000  -0.00002  -0.00002  -3.14145
   D15        3.14156  -0.00000   0.00000  -0.00001  -0.00000   3.14156
   D16        0.00013  -0.00000   0.00000  -0.00008  -0.00008   0.00005
   D17       -0.00004   0.00000   0.00000   0.00001   0.00001  -0.00003
   D18       -3.14151   0.00000   0.00000  -0.00008  -0.00008   3.14159
   D19        3.14143   0.00000   0.00000   0.00007   0.00007   3.14150
   D20       -0.00005   0.00000   0.00000  -0.00002  -0.00002  -0.00007
   D21       -3.14124  -0.00000   0.00000  -0.00021  -0.00022  -3.14146
   D22       -0.00113   0.00001   0.00000   0.00014   0.00013  -0.00100
   D23        0.00049  -0.00001   0.00000  -0.00028  -0.00029   0.00021
   D24        3.14060   0.00001   0.00000   0.00007   0.00006   3.14067
   D25        0.00005  -0.00000   0.00000  -0.00007  -0.00007  -0.00002
   D26       -3.14151  -0.00000   0.00000  -0.00008  -0.00008  -3.14159
   D27        3.14150  -0.00000   0.00000   0.00004   0.00005   3.14154
   D28       -0.00007   0.00000   0.00000   0.00003   0.00004  -0.00003
   D29       -0.00041   0.00002   0.00000   0.00033   0.00033  -0.00008
   D30        3.14139   0.00000   0.00000   0.00007   0.00007   3.14146
   D31        3.14132   0.00001   0.00000   0.00022   0.00022   3.14154
   D32       -0.00006   0.00000   0.00000  -0.00004  -0.00004  -0.00011
   D33       -0.00077   0.00003   0.00000   0.00053   0.00052  -0.00026
   D34        3.14133   0.00001   0.00000   0.00021   0.00020   3.14153
   D35       -3.14089   0.00001   0.00000   0.00017   0.00016  -3.14073
   D36        0.00121  -0.00000   0.00000  -0.00015  -0.00015   0.00106
   D37        0.00072  -0.00002   0.00000  -0.00051  -0.00051   0.00021
   D38       -3.14144  -0.00000   0.00000  -0.00015  -0.00016   3.14158
   D39       -3.14107  -0.00001   0.00000  -0.00026  -0.00026  -3.14133
   D40       -0.00005   0.00001   0.00000   0.00010   0.00010   0.00005
         Item               Value     Threshold  Converged?
 Maximum Force            0.054443     0.000450     NO 
 RMS     Force            0.010413     0.000300     NO 
 Maximum Displacement     0.096238     0.001800     NO 
 RMS     Displacement     0.029719     0.001200     NO 
 Predicted change in Energy=-9.821835D-03
 GradGradGradGradGradGradGradGradGradGradGradGradGradGradGradGradGradGrad

                          Input orientation:                          
 ---------------------------------------------------------------------
 Center     Atomic      Atomic             Coordinates (Angstroms)
 Number     Number       Type             X           Y           Z
 ---------------------------------------------------------------------
      1          6           0       -2.190692    0.697020    0.000012
      2          6           0       -2.151519   -0.696876    0.000025
      3          6           0       -0.907015   -1.424466    0.000042
      4          6           0        0.261654   -0.666285    0.000006
      5          6           0        0.250778    0.757215    0.000016
      6          6           0       -0.999414    1.461095    0.000031
      7          7           0        1.592993   -1.081274   -0.000137
      8          6           0        1.603278    1.151814   -0.000024
      9          6           0        2.417072   -0.004306    0.000048
     10          1           0        1.904643   -2.041217    0.000584
     11          1           0        1.972957    2.169312   -0.000149
     12          1           0        3.493214   -0.119327    0.000039
     13          1           0       -3.087680   -1.249408    0.000009
     14          1           0       -0.881068   -2.511581    0.000000
     15          1           0       -3.155130    1.197706   -0.000006
     16          1           0       -1.027170    2.548025    0.000039
 ---------------------------------------------------------------------
                    Distance matrix (angstroms):
                    1          2          3          4          5
     1  C    0.000000
     2  C    1.394447   0.000000
     3  C    2.479623   1.441589   0.000000
     4  C    2.805816   2.413367   1.393063   0.000000
     5  C    2.442212   2.808098   2.469861   1.423541   0.000000
     6  C    1.415257   2.446260   2.887039   2.473062   1.434722
     7  N    4.180741   3.764191   2.523454   1.394518   2.276308
     8  C    3.821131   4.185231   3.597052   2.259522   1.408887
     9  C    4.660831   4.620788   3.614748   2.254783   2.296245
    10  H    4.926430   4.273138   2.878507   2.142394   3.250614
    11  H    4.416289   5.022583   4.605374   3.311974   2.227087
    12  H    5.742230   5.674203   4.589706   3.277521   3.358826
    13  H    2.143168   1.087054   2.187681   3.399716   3.895104
    14  H    3.465579   2.215219   1.087425   2.170467   3.459205
    15  H    1.086659   2.143986   3.453955   3.892156   3.434275
    16  H    2.186321   3.434173   3.974307   3.463070   2.200035
                    6          7          8          9         10
     6  C    0.000000
     7  N    3.631007   0.000000
     8  C    2.621003   2.233111   0.000000
     9  C    3.717496   1.356085   1.413815   0.000000
    10  H    4.549696   1.009266   3.207222   2.100379   0.000000
    11  H    3.055578   3.272717   1.082573   2.218525   4.211083
    12  H    4.762503   2.129831   2.277643   1.082271   2.493435
    13  H    3.421649   4.683692   5.269815   5.643808   5.054726
    14  H    3.974438   2.857754   4.426334   4.142965   2.825142
    15  H    2.171748   5.266728   4.758629   5.700375   6.007656
    16  H    1.087285   4.476278   2.978030   4.286863   5.445794
                   11         12         13         14         15
    11  H    0.000000
    12  H    2.747554   0.000000
    13  H    6.107183   6.677218   0.000000
    14  H    5.482355   4.985702   2.542089   0.000000
    15  H    5.219319   6.777541   2.448043   4.350881   0.000000
    16  H    3.023935   5.248680   4.320439   5.061715   2.520234
                   16
    16  H    0.000000
 Stoichiometry    C8H7N
 Framework group  C1[X(C8H7N)]
 Deg. of freedom    42
 Full point group                 C1      NOp   1
 Largest Abelian subgroup         C1      NOp   1
 Largest concise Abelian subgroup C1      NOp   1
                         Standard orientation:                         
 ---------------------------------------------------------------------
 Center     Atomic      Atomic             Coordinates (Angstroms)
 Number     Number       Type             X           Y           Z
 ---------------------------------------------------------------------
      1          6           0       -2.208451    0.641364    0.000004
      2          6           0       -2.134811   -0.751137    0.000017
      3          6           0       -0.872689   -1.447719    0.000034
      4          6           0        0.276867   -0.660862   -0.000002
      5          6           0        0.230783    0.761933    0.000008
      6          6           0       -1.036438    1.434673    0.000023
      7          7           0        1.618064   -1.042791   -0.000145
      8          6           0        1.573107    1.189868   -0.000032
      9          6           0        2.415251    0.054232    0.000040
     10          1           0        1.953364   -1.994732    0.000576
     11          1           0        1.917504    2.216199   -0.000157
     12          1           0        3.493909   -0.034135    0.000031
     13          1           0       -3.057017   -1.326657    0.000001
     14          1           0       -0.819859   -2.533860   -0.000008
     15          1           0       -3.184980    1.118039   -0.000014
     16          1           0       -1.091073    2.520584    0.000031
 ---------------------------------------------------------------------
 Rotational constants (GHZ):           3.8612586           1.6067672           1.1346222
 Standard basis: 6-31+G(d) (6D, 7F)
 There are   185 symmetry adapted cartesian basis functions of A   symmetry.
 There are   185 symmetry adapted basis functions of A   symmetry.
   185 basis functions,   316 primitive gaussians,   185 cartesian basis functions
    31 alpha electrons       31 beta electrons
       nuclear repulsion energy       397.8003769907 Hartrees.
 NAtoms=   16 NActive=   16 NUniq=   16 SFac= 1.00D+00 NAtFMM=   60 NAOKFM=F Big=F
 Integral buffers will be    131072 words long.
 Raffenetti 1 integral format.
 Two-electron integral symmetry is turned on.
 One-electron integrals computed using PRISM.
 NBasis=   185 RedAO= T EigKep=  1.29D-06  NBF=   185
 NBsUse=   185 1.00D-06 EigRej= -1.00D+00 NBFU=   185
 Initial guess from the checkpoint file:  "FuncsWB97X-V-2nd.chk"
 B after Tr=     0.000000    0.000000    0.000000
         Rot=    0.999929    0.000005    0.000004   -0.011902 Ang=   1.36 deg.
 ExpMin= 4.38D-02 ExpMax= 4.17D+03 ExpMxC= 6.27D+02 IAcc=3 IRadAn=         5 AccDes= 0.00D+00
 Harris functional with IExCor= 4538 and IRadAn=       5 diagonalized for initial guess.
 HarFok:  IExCor= 4538 AccDes= 0.00D+00 IRadAn=         5 IDoV= 1 UseB2=F ITyADJ=14
 ICtDFT=  3500011 ScaDFX=  1.000000  1.000000  1.000000  1.000000
 FoFCou: FMM=F IPFlag=           0 FMFlag=      100000 FMFlg1=           0
         NFxFlg=           0 DoJE=T BraDBF=F KetDBF=T FulRan=T
         wScrn=  0.000000 ICntrl=       500 IOpCl=  0 I1Cent=   200000004 NGrid=           0
         NMat0=    1 NMatS0=      1 NMatT0=    0 NMatD0=    1 NMtDS0=    0 NMtDT0=    0
 Petite list used in FoFCou.
 Keep R1 ints in memory in canonical form, NReq=303303409.
 Requested convergence on RMS density matrix=1.00D-08 within 128 cycles.
 Requested convergence on MAX density matrix=1.00D-06.
 Requested convergence on             energy=1.00D-06.
 No special actions if energy rises.
 SCF Done:  E(RwB97X) =  -363.721195808     A.U. after   15 cycles
            NFock= 15  Conv=0.37D-08     -V/T= 2.0105
 DoSCS=F DFT=T ScalE2(SS,OS)=  1.000000  1.000000
 ExpMin= 4.38D-02 ExpMax= 4.17D+03 ExpMxC= 6.27D+02 IAcc=3 IRadAn=         5 AccDes= 0.00D+00
 HarFok:  IExCor=  205 AccDes= 0.00D+00 IRadAn=         5 IDoV=-2 UseB2=F ITyADJ=14
 ICtDFT= 12500011 ScaDFX=  1.000000  1.000000  1.000000  1.000000
 Range of M.O.s used for correlation:    10   185
 NBasis=   185 NAE=    31 NBE=    31 NFC=     9 NFV=     0
 NROrb=    176 NOA=    22 NOB=    22 NVA=   154 NVB=   154

 **** Warning!!: The largest alpha MO coefficient is  0.19414142D+03

 Orbital symmetries:
       Occupied  (A) (A) (A) (A) (A) (A) (A) (A) (A) (A) (A) (A)
                 (A) (A) (A) (A) (A) (A) (A) (A) (A) (A) (A) (A)
                 (A) (A) (A) (A) (A) (A) (A)
       Virtual   (A) (A) (A) (A) (A) (A) (A) (A) (A) (A) (A) (A)
                 (A) (A) (A) (A) (A) (A) (A) (A) (A) (A) (A) (A)
                 (A) (A) (A) (A) (A) (A) (A) (A) (A) (A) (A) (A)
                 (A) (A) (A) (A) (A) (A) (A) (A) (A) (A) (A) (A)
                 (A) (A) (A) (A) (A) (A) (A) (A) (A) (A) (A) (A)
                 (A) (A) (A) (A) (A) (A) (A) (A) (A) (A) (A) (A)
                 (A) (A) (A) (A) (A) (A) (A) (A) (A) (A) (A) (A)
                 (A) (A) (A) (A) (A) (A) (A) (A) (A) (A) (A) (A)
                 (A) (A) (A) (A) (A) (A) (A) (A) (A) (A) (A) (A)
                 (A) (A) (A) (A) (A) (A) (A) (A) (A) (A) (A) (A)
                 (A) (A) (A) (A) (A) (A) (A) (A) (A) (A) (A) (A)
                 (A) (A) (A) (A) (A) (A) (A) (A) (A) (A) (A) (A)
                 (A) (A) (A) (A) (A) (A) (A) (A) (A) (A)
 Generating guess from densities on rwf.
 Convergence on wavefunction:    0.000001000000000
 Iteration     1 Dimension    12 NMult     0 NNew     12
 CISAX will form    12 AO SS matrices at one time.
 New state      1 was old state      2
 New state      2 was old state      1
 New state      5 was old state      6
 New state      6 was old state      5
 Iteration     2 Dimension    24 NMult    12 NNew     12
 Iteration     3 Dimension    36 NMult    24 NNew     12
 Iteration     4 Dimension    48 NMult    36 NNew     12
 Iteration     5 Dimension    60 NMult    48 NNew     12
 Iteration     6 Dimension    72 NMult    60 NNew     12
 Iteration     7 Dimension    84 NMult    72 NNew     12
 Iteration     8 Dimension    96 NMult    84 NNew     12
 Iteration     9 Dimension   108 NMult    96 NNew     12
 Iteration    10 Dimension   120 NMult   108 NNew     12
 Iteration    11 Dimension   128 NMult   120 NNew      8
 Iteration    12 Dimension   136 NMult   128 NNew      8
 Iteration    13 Dimension   142 NMult   136 NNew      6
 Iteration    14 Dimension   146 NMult   142 NNew      4
 Iteration    15 Dimension   150 NMult   146 NNew      4
 Iteration    16 Dimension   154 NMult   150 NNew      4
 Iteration    17 Dimension   158 NMult   154 NNew      4
 ***********************************************************************
 Excited states from <AA,BB:AA,BB> singles matrix:
 ***********************************************************************
 
 Ground to excited state transition densities written to RWF  633
 Ground to excited state transition electric dipole moments (Au):
       state          X           Y           Z        Dip. S.      Osc.
         1        -0.1949     -0.2961     -0.0000      0.1257      0.0154
         2        -1.0391      0.7296     -0.0001      1.6120      0.1880
         3         0.0002     -0.0001     -0.2197      0.0483      0.0068
         4        -1.8929     -0.7716     -0.0002      4.1784      0.6374
         5        -0.0006     -0.0003     -0.0948      0.0090      0.0014
         6        -0.0017     -0.0007      0.1952      0.0381      0.0060
 Ground to excited state transition velocity dipole moments (Au):
       state          X           Y           Z        Dip. S.      Osc.
         1         0.0342      0.0576      0.0000      0.0045      0.0163
         2         0.1692     -0.1372      0.0000      0.0474      0.1808
         3        -0.0000      0.0000      0.0377      0.0014      0.0045
         4         0.4210      0.1766      0.0000      0.2084      0.6072
         5         0.0001      0.0001      0.0225      0.0005      0.0014
         6         0.0004      0.0002     -0.0454      0.0021      0.0058
 Ground to excited state transition magnetic dipole moments (Au):
       state          X           Y           Z
         1        -0.0001     -0.0001      0.0323
         2         0.0001     -0.0000      0.1042
         3         0.1445     -0.2098      0.0000
         4        -0.0001     -0.0005     -0.9380
         5         0.4135     -0.4239     -0.0001
         6         0.2659      0.4515     -0.0005
 Ground to excited state transition velocity quadrupole moments (Au):
       state          XX          YY          ZZ          XY          XZ          YZ
         1        -0.0092     -0.0727      0.0208      0.0169      0.0000     -0.0000
         2         0.2215     -0.1753      0.0116      0.0366      0.0000     -0.0000
         3        -0.0000      0.0001      0.0001      0.0000      0.1600      0.0566
         4         0.2435     -0.1974     -0.0339     -0.6201      0.0003     -0.0001
         5         0.0000     -0.0001     -0.0000     -0.0001      0.4348      0.3657
         6         0.0002     -0.0002      0.0000     -0.0004     -0.3560      0.1195
 <0|del|b> * <b|rxdel|0> + <0|del|b> * <b|delr+rdel|0>
 Rotatory Strengths (R) in cgs (10**-40 erg-esu-cm/Gauss)
       state          XX          YY          ZZ    R(velocity)    E-M Angle
         1        -0.0095     -0.0075     -0.0109     -0.0093       90.00
         2         0.0153      0.0225      0.0188      0.0189       90.00
         3        -0.0083     -0.0075     -0.0056     -0.0071       90.00
         4        -0.3161     -0.1217     -0.0677     -0.1685       90.02
         5        -0.1001      0.1514      0.0105      0.0206       90.00
         6         0.2777      0.2398      0.1134      0.2103       89.50
 1/2[<0|r|b>*<b|rxdel|0> + (<0|rxdel|b>*<b|r|0>)*]
 Rotatory Strengths (R) in cgs (10**-40 erg-esu-cm/Gauss)
       state          XX          YY          ZZ     R(length)
         1        -0.0130     -0.0154      0.0005     -0.0093
         2         0.0540      0.0027      0.0045      0.0204
         3        -0.0165     -0.0133      0.0063     -0.0079
         4        -0.1255     -0.2553     -0.1200     -0.1669
         5         0.1642     -0.0932     -0.0096      0.0204
         6         0.3254      0.2352      0.0713      0.2106
  1/2[<0|del|b>*<b|r|0> + (<0|r|b>*<b|del|0>)*] (Au)
       state          X           Y           Z        Dip. S.   Osc.(frdel)
         1        -0.0067     -0.0171     -0.0000      0.0237      0.0158
         2        -0.1758     -0.1001     -0.0000      0.2759      0.1839
         3        -0.0000     -0.0000     -0.0083      0.0083      0.0055
         4        -0.7969     -0.1363     -0.0000      0.9331      0.6221
         5        -0.0000     -0.0000     -0.0021      0.0021      0.0014
         6        -0.0000     -0.0000     -0.0089      0.0089      0.0059

 Excitation energies and oscillator strengths:
 
 Excited State   1:      Singlet-A      5.0144 eV  247.26 nm  f=0.0154  <S**2>=0.000
      30 -> 32         0.55693
      31 -> 36        -0.39259
 
 Excited State   2:      Singlet-A      4.7612 eV  260.41 nm  f=0.1880  <S**2>=0.000
      30 -> 36         0.14880
      31 -> 32         0.68028
 This state for optimization and/or second-order correction.
 Total Energy, E(TD-HF/TD-DFT) =  -363.546226420    
 Copying the excited state density for this state as the 1-particle RhoCI density.
 
 Excited State   3:      Singlet-A      5.7126 eV  217.04 nm  f=0.0068  <S**2>=0.000
      29 -> 33         0.10140
      31 -> 33         0.65342
      31 -> 40         0.15449
 
 Excited State   4:      Singlet-A      6.2265 eV  199.12 nm  f=0.6374  <S**2>=0.000
      30 -> 32         0.38089
      31 -> 36         0.55342
      31 -> 39         0.14528
 
 Excited State   5:      Singlet-A      6.3635 eV  194.84 nm  f=0.0014  <S**2>=0.000
      29 -> 33         0.10507
      30 -> 33         0.13002
      31 -> 34         0.62766
      31 -> 35        -0.11580
 
 Excited State   6:      Singlet-A      6.3942 eV  193.90 nm  f=0.0060  <S**2>=0.000
      31 -> 33         0.14215
      31 -> 35         0.59462
      31 -> 37         0.14972
      31 -> 40        -0.15185
      31 -> 43         0.16936
 SavETr:  write IOETrn=   770 NScale= 10 NData=  16 NLR=1 NState=    6 LETran=     118.
          IDoAtm=1111111111111111
          Differentiating once with respect to electric field.
                with respect to dipole field.
          Differentiating once with respect to nuclear coordinates.
 Keep R1 ints in memory in canonical form, NReq=303315801.
          There are     1 degrees of freedom in the 1st order CPHF.  IDoFFX=0 NUNeed=     1.
 LinEq1:  Iter=  0 NonCon=     1 RMS=5.28D-03 Max=9.42D-02 NDo=     1
 AX will form     1 AO Fock derivatives at one time.
 LinEq1:  Iter=  1 NonCon=     1 RMS=2.09D-03 Max=6.36D-02 NDo=     1
 LinEq1:  Iter=  2 NonCon=     1 RMS=7.66D-04 Max=1.91D-02 NDo=     1
 LinEq1:  Iter=  3 NonCon=     1 RMS=4.68D-04 Max=1.70D-02 NDo=     1
 LinEq1:  Iter=  4 NonCon=     1 RMS=1.84D-04 Max=5.24D-03 NDo=     1
 LinEq1:  Iter=  5 NonCon=     1 RMS=9.05D-05 Max=3.20D-03 NDo=     1
 LinEq1:  Iter=  6 NonCon=     1 RMS=3.76D-05 Max=9.67D-04 NDo=     1
 LinEq1:  Iter=  7 NonCon=     1 RMS=1.86D-05 Max=3.63D-04 NDo=     1
 LinEq1:  Iter=  8 NonCon=     1 RMS=8.07D-06 Max=1.86D-04 NDo=     1
 LinEq1:  Iter=  9 NonCon=     1 RMS=2.61D-06 Max=4.45D-05 NDo=     1
 LinEq1:  Iter= 10 NonCon=     1 RMS=1.22D-06 Max=2.73D-05 NDo=     1
 LinEq1:  Iter= 11 NonCon=     1 RMS=4.84D-07 Max=1.28D-05 NDo=     1
 LinEq1:  Iter= 12 NonCon=     1 RMS=2.46D-07 Max=5.15D-06 NDo=     1
 LinEq1:  Iter= 13 NonCon=     1 RMS=8.03D-08 Max=1.48D-06 NDo=     1
 LinEq1:  Iter= 14 NonCon=     1 RMS=2.97D-08 Max=5.84D-07 NDo=     1
 LinEq1:  Iter= 15 NonCon=     1 RMS=1.29D-08 Max=2.27D-07 NDo=     1
 LinEq1:  Iter= 16 NonCon=     1 RMS=2.79D-09 Max=3.69D-08 NDo=     1
 LinEq1:  Iter= 17 NonCon=     1 RMS=1.23D-09 Max=2.71D-08 NDo=     1
 LinEq1:  Iter= 18 NonCon=     1 RMS=3.81D-10 Max=6.06D-09 NDo=     1
 LinEq1:  Iter= 19 NonCon=     1 RMS=7.92D-11 Max=1.19D-09 NDo=     1
 LinEq1:  Iter= 20 NonCon=     0 RMS=3.25D-11 Max=4.82D-10 NDo=     1
 Linear equations converged to 1.000D-10 1.000D-09 after    20 iterations.
 End of Minotr F.D. properties file   721 does not exist.
 End of Minotr F.D. properties file   722 does not exist.
 End of Minotr F.D. properties file   788 does not exist.
 Calling FoFJK, ICntrl=  10005127 FMM=F ISym2X=0 I1Cent= 0 IOpClX= 0 NMat=1 NMatS=1 NMatT=0.
 ***** Axes restored to original set *****
 -------------------------------------------------------------------
 Center     Atomic                   Forces (Hartrees/Bohr)
 Number     Number              X              Y              Z
 -------------------------------------------------------------------
      1        6           0.001520635   -0.013933589   -0.000000446
      2        6          -0.008179369    0.016185117    0.000000205
      3        6           0.014070119   -0.007429599    0.000002060
      4        6          -0.015801725    0.001094888   -0.000003692
      5        6           0.012638739   -0.007159788   -0.000005336
      6        6          -0.000312777    0.006503354   -0.000001315
      7        7           0.004902631    0.010253668    0.000029688
      8        6          -0.013792574    0.009856388   -0.000002876
      9        6           0.004851282   -0.015224489   -0.000011988
     10        1          -0.001031508   -0.000789430   -0.000012439
     11        1           0.001571204    0.000232322    0.000003109
     12        1          -0.000717197    0.001289398    0.000002105
     13        1           0.000775907   -0.001257593    0.000000092
     14        1          -0.001535212    0.000710932   -0.000001107
     15        1           0.000369594    0.000543668    0.000000151
     16        1           0.000670252   -0.000875248    0.000001788
 -------------------------------------------------------------------
 Cartesian Forces:  Max     0.016185117 RMS     0.006402682

 GradGradGradGradGradGradGradGradGradGradGradGradGradGradGradGradGradGrad
 Berny optimization.
 Using GEDIIS/GDIIS optimizer.
 FormGI is forming the generalized inverse of G from B-inverse, IUseBI=4.
 Internal  Forces:  Max     0.009472773 RMS     0.002463364
 Search for a local minimum.
 Step number   2 out of a maximum of   94
 All quantities printed in internal units (Hartrees-Bohrs-Radians)
 Mixed Optimization -- RFO/linear search
 Update second derivatives using D2CorX and points    1    2
 DE= -1.06D-02 DEPred=-9.82D-03 R= 1.08D+00
 TightC=F SS=  1.41D+00  RLast= 2.02D-01 DXNew= 5.0454D-01 6.0569D-01
 Trust test= 1.08D+00 RLast= 2.02D-01 DXMaxT set to 5.05D-01
 ITU=  1  0
 Use linear search instead of GDIIS.
     Eigenvalues ---    0.01854   0.01932   0.01986   0.02011   0.02070
     Eigenvalues ---    0.02113   0.02148   0.02154   0.02172   0.02210
     Eigenvalues ---    0.02233   0.02248   0.02340   0.15930   0.16000
     Eigenvalues ---    0.16000   0.16000   0.16000   0.16000   0.16025
     Eigenvalues ---    0.20982   0.22028   0.22665   0.24568   0.24718
     Eigenvalues ---    0.35653   0.35715   0.35786   0.35849   0.36025
     Eigenvalues ---    0.36485   0.36507   0.38062   0.40589   0.43040
     Eigenvalues ---    0.44464   0.46608   0.47157   0.47311   0.47620
     Eigenvalues ---    0.49814   0.51906
 RFO step:  Lambda=-1.49304466D-03 EMin= 1.85353039D-02
 Quartic linear search produced a step of  0.17292.
 Iteration  1 RMS(Cart)=  0.00753382 RMS(Int)=  0.00005557
 Iteration  2 RMS(Cart)=  0.00009302 RMS(Int)=  0.00002334
 Iteration  3 RMS(Cart)=  0.00000000 RMS(Int)=  0.00002334
 Variable       Old X    -DE/DX   Delta X   Delta X   Delta X     New X
                                 (Linear)    (Quad)   (Total)
    R1        2.63512  -0.00947  -0.00352  -0.02278  -0.02633   2.60879
    R2        2.67445   0.00232   0.01064  -0.00015   0.01047   2.68492
    R3        2.05349  -0.00008   0.00160  -0.00111   0.00049   2.05398
    R4        2.72421   0.00736   0.01879   0.00776   0.02653   2.75073
    R5        2.05424  -0.00003   0.00175  -0.00103   0.00072   2.05496
    R6        2.63251  -0.00540  -0.00021  -0.01341  -0.01360   2.61891
    R7        2.05493  -0.00075   0.00166  -0.00333  -0.00167   2.05327
    R8        2.69010  -0.00263   0.00165  -0.00907  -0.00737   2.68273
    R9        2.63526   0.00204   0.00588   0.00080   0.00672   2.64198
   R10        2.71123   0.00068   0.01099  -0.00423   0.00678   2.71801
   R11        2.66241  -0.00609  -0.00795  -0.01282  -0.02081   2.64160
   R12        2.05467  -0.00089   0.00163  -0.00379  -0.00216   2.05251
   R13        2.56263  -0.00591  -0.00745  -0.00975  -0.01719   2.54544
   R14        1.90724   0.00043   0.00204  -0.00003   0.00201   1.90925
   R15        2.67172   0.00875   0.01609   0.01199   0.02803   2.69976
   R16        2.04577   0.00076   0.00200   0.00135   0.00335   2.04912
   R17        2.04520  -0.00085   0.00188  -0.00374  -0.00185   2.04334
    A1        2.11300   0.00270  -0.00021   0.01449   0.01423   2.12723
    A2        2.07774  -0.00068  -0.00037  -0.00216  -0.00250   2.07524
    A3        2.09245  -0.00201   0.00057  -0.01233  -0.01173   2.08072
    A4        2.12794   0.00006   0.00220  -0.00058   0.00157   2.12951
    A5        2.07589   0.00149  -0.00134   0.01147   0.01015   2.08604
    A6        2.07935  -0.00155  -0.00086  -0.01089  -0.01172   2.06764
    A7        2.03704  -0.00373  -0.00249  -0.01821  -0.02069   2.01635
    A8        2.12371   0.00031   0.00191  -0.00255  -0.00064   2.12307
    A9        2.12243   0.00342   0.00058   0.02075   0.02133   2.14376
   A10        2.13866   0.00482   0.00083   0.02348   0.02432   2.16298
   A11        2.26393  -0.00108  -0.00260  -0.00211  -0.00478   2.25915
   A12        1.88060  -0.00374   0.00177  -0.02137  -0.01955   1.86105
   A13        2.09122  -0.00165   0.00320  -0.00927  -0.00601   2.08521
   A14        1.84703   0.00477  -0.00314   0.02327   0.02010   1.86713
   A15        2.34493  -0.00311  -0.00006  -0.01401  -0.01409   2.33084
   A16        2.05851  -0.00219  -0.00352  -0.00991  -0.01343   2.04508
   A17        2.11556   0.00176   0.00216   0.00955   0.01171   2.12728
   A18        2.10911   0.00043   0.00136   0.00036   0.00172   2.11083
   A19        1.92178   0.00355   0.00248   0.01622   0.01877   1.94055
   A20        2.18688  -0.00294  -0.00058  -0.01692  -0.01753   2.16935
   A21        2.17452  -0.00061  -0.00190   0.00070  -0.00124   2.17328
   A22        1.90026  -0.00236   0.00529  -0.01238  -0.00715   1.89311
   A23        2.20317   0.00261  -0.00242   0.01643   0.01404   2.21720
   A24        2.17976  -0.00024  -0.00287  -0.00405  -0.00689   2.17288
   A25        1.87510  -0.00221  -0.00641  -0.00575  -0.01217   1.86293
   A26        2.11747   0.00234   0.00259   0.01219   0.01478   2.13225
   A27        2.29061  -0.00013   0.00382  -0.00643  -0.00261   2.28801
    D1       -0.00001   0.00000   0.00000   0.00002   0.00001   0.00000
    D2       -3.14159   0.00000  -0.00001   0.00001   0.00000  -3.14159
    D3        3.14159   0.00000   0.00001   0.00002   0.00003  -3.14157
    D4        0.00001   0.00000   0.00001   0.00001   0.00002   0.00003
    D5        0.00004   0.00000   0.00001   0.00000   0.00001   0.00005
    D6       -3.14157   0.00000   0.00001   0.00003   0.00004  -3.14153
    D7       -3.14156   0.00000   0.00000  -0.00000  -0.00000  -3.14156
    D8        0.00001   0.00000   0.00000   0.00002   0.00003   0.00004
    D9       -0.00003   0.00000  -0.00001   0.00000  -0.00001  -0.00004
   D10       -3.14154  -0.00000  -0.00000   0.00000   0.00000  -3.14153
   D11        3.14155   0.00000  -0.00001   0.00001   0.00001   3.14155
   D12        0.00004   0.00000   0.00001   0.00001   0.00002   0.00006
   D13        0.00005  -0.00000   0.00001  -0.00004  -0.00003   0.00002
   D14       -3.14145  -0.00000  -0.00000  -0.00005  -0.00005  -3.14150
   D15        3.14156  -0.00000  -0.00000  -0.00004  -0.00004   3.14152
   D16        0.00005  -0.00000  -0.00001  -0.00005  -0.00006  -0.00001
   D17       -0.00003   0.00000   0.00000   0.00006   0.00006   0.00003
   D18        3.14159   0.00000  -0.00001   0.00004   0.00002  -3.14158
   D19        3.14150   0.00000   0.00001   0.00006   0.00007   3.14157
   D20       -0.00007   0.00000  -0.00000   0.00004   0.00004  -0.00004
   D21       -3.14146  -0.00000  -0.00004  -0.00011  -0.00015   3.14157
   D22       -0.00100   0.00001   0.00002   0.00029   0.00031  -0.00069
   D23        0.00021  -0.00000  -0.00005  -0.00012  -0.00017   0.00004
   D24        3.14067   0.00001   0.00001   0.00029   0.00029   3.14096
   D25       -0.00002  -0.00000  -0.00001  -0.00004  -0.00005  -0.00007
   D26       -3.14159  -0.00000  -0.00001  -0.00006  -0.00008   3.14151
   D27        3.14154  -0.00000   0.00001  -0.00001   0.00000   3.14155
   D28       -0.00003  -0.00000   0.00001  -0.00003  -0.00003  -0.00006
   D29       -0.00008   0.00000   0.00006   0.00005   0.00010   0.00002
   D30        3.14146   0.00000   0.00001   0.00006   0.00007   3.14152
   D31        3.14154   0.00000   0.00004   0.00002   0.00006  -3.14159
   D32       -0.00011   0.00000  -0.00001   0.00003   0.00002  -0.00009
   D33       -0.00026   0.00000   0.00009   0.00014   0.00023  -0.00002
   D34        3.14153   0.00000   0.00003   0.00006   0.00009  -3.14157
   D35       -3.14073  -0.00000   0.00003  -0.00024  -0.00022  -3.14094
   D36        0.00106  -0.00001  -0.00003  -0.00033  -0.00036   0.00070
   D37        0.00021  -0.00000  -0.00009  -0.00012  -0.00021  -0.00000
   D38        3.14158  -0.00000  -0.00003  -0.00002  -0.00005   3.14154
   D39       -3.14133  -0.00000  -0.00004  -0.00013  -0.00017  -3.14150
   D40        0.00005  -0.00000   0.00002  -0.00003  -0.00001   0.00003
         Item               Value     Threshold  Converged?
 Maximum Force            0.009473     0.000450     NO 
 RMS     Force            0.002463     0.000300     NO 
 Maximum Displacement     0.023048     0.001800     NO 
 RMS     Displacement     0.007533     0.001200     NO 
 Predicted change in Energy=-9.571509D-04
 GradGradGradGradGradGradGradGradGradGradGradGradGradGradGradGradGradGrad

                          Input orientation:                          
 ---------------------------------------------------------------------
 Center     Atomic      Atomic             Coordinates (Angstroms)
 Number     Number       Type             X           Y           Z
[...]
 ! D12   D(13,2,3,14)            0.0032         -DE/DX =    0.0                 !
 ! D13   D(2,3,4,5)             -0.0001         -DE/DX =    0.0                 !
 ! D14   D(2,3,4,7)           -179.997          -DE/DX =    0.0                 !
 ! D15   D(14,3,4,5)           179.9963         -DE/DX =    0.0                 !
 ! D16   D(14,3,4,7)            -0.0007         -DE/DX =    0.0                 !
 ! D17   D(3,4,5,6)              0.0017         -DE/DX =    0.0                 !
 ! D18   D(3,4,5,8)           -179.9985         -DE/DX =    0.0                 !
 ! D19   D(7,4,5,6)            179.9992         -DE/DX =    0.0                 !
 ! D20   D(7,4,5,8)             -0.0009         -DE/DX =    0.0                 !
 ! D21   D(3,4,7,9)           -180.0027         -DE/DX =    0.0                 !
 ! D22   D(3,4,7,10)            -0.0168         -DE/DX =    0.0                 !
 ! D23   D(5,4,7,9)              0.0            -DE/DX =    0.0                 !
 ! D24   D(5,4,7,10)           179.9858         -DE/DX =    0.0                 !
 ! D25   D(4,5,6,1)             -0.0026         -DE/DX =    0.0                 !
 ! D26   D(4,5,6,16)           179.9955         -DE/DX =    0.0                 !
 ! D27   D(8,5,6,1)            179.9976         -DE/DX =    0.0                 !
 ! D28   D(8,5,6,16)            -0.0044         -DE/DX =    0.0                 !
 ! D29   D(4,5,8,9)              0.0015         -DE/DX =    0.0                 !
 ! D30   D(4,5,8,11)           179.9977         -DE/DX =    0.0                 !
 ! D31   D(6,5,8,9)            180.0013         -DE/DX =    0.0                 !
 ! D32   D(6,5,8,11)            -0.0025         -DE/DX =    0.0                 !
 ! D33   D(4,7,9,8)              0.0009         -DE/DX =    0.0                 !
 ! D34   D(4,7,9,12)           180.0018         -DE/DX =    0.0                 !
 ! D35   D(10,7,9,8)          -179.9848         -DE/DX =    0.0                 !
 ! D36   D(10,7,9,12)            0.0161         -DE/DX =    0.0                 !
 ! D37   D(5,8,9,7)             -0.0015         -DE/DX =    0.0                 !
 ! D38   D(5,8,9,12)          -180.0025         -DE/DX =    0.0                 !
 ! D39   D(11,8,9,7)          -179.9979         -DE/DX =    0.0                 !
 ! D40   D(11,8,9,12)            0.0011         -DE/DX =    0.0                 !
 --------------------------------------------------------------------------------
 GradGradGradGradGradGradGradGradGradGradGradGradGradGradGradGradGradGrad

                          Input orientation:                          
 ---------------------------------------------------------------------
 Center     Atomic      Atomic             Coordinates (Angstroms)
 Number     Number       Type             X           Y           Z
 ---------------------------------------------------------------------
      1          6           0       -2.181846    0.687326   -0.000028
      2          6           0       -2.154329   -0.692104    0.000020
      3          6           0       -0.900538   -1.436645    0.000084
      4          6           0        0.248406   -0.665414    0.000082
      5          6           0        0.254208    0.753071    0.000020
      6          6           0       -0.993080    1.464043   -0.000008
      7          7           0        1.589333   -1.069967    0.000078
      8          6           0        1.594746    1.160064    0.000003
      9          6           0        2.418706   -0.009044    0.000019
     10          1           0        1.889253   -2.034804    0.000322
     11          1           0        1.973217    2.175015   -0.000075
     12          1           0        3.494238   -0.115743   -0.000023
     13          1           0       -3.086025   -1.251984    0.000013
     14          1           0       -0.887361   -2.522015    0.000073
     15          1           0       -3.142668    1.196351   -0.000062
     16          1           0       -1.019357    2.549295    0.000018
 ---------------------------------------------------------------------
                    Distance matrix (angstroms):
                    1          2          3          4          5
     1  C    0.000000
     2  C    1.379705   0.000000
     3  C    2.480525   1.458195   0.000000
     4  C    2.781372   2.402883   1.383788   0.000000
     5  C    2.436941   2.808840   2.475539   1.418496   0.000000
     6  C    1.420019   2.448973   2.902164   2.464928   1.435691
     7  N    4.160513   3.762683   2.516726   1.400624   2.259652
     8  C    3.806065   4.181637   3.601297   2.268259   1.400959
     9  C    4.652958   4.623767   3.613230   2.267383   2.294749
    10  H    4.897330   4.260680   2.853196   2.137197   3.231968
    11  H    4.413363   5.025635   4.615469   3.323102   2.230901
    12  H    5.732613   5.677896   4.588991   3.292046   3.354495
    13  H    2.139734   1.086979   2.193274   3.385630   3.895818
    14  H    3.460573   2.225709   1.085450   2.176450   3.468338
    15  H    1.087329   2.131450   3.458296   3.868533   3.425677
    16  H    2.195065   3.434360   3.987711   3.455658   2.201905
                    6          7          8          9         10
     6  C    0.000000
     7  N    3.618019   0.000000
     8  C    2.605618   2.230038   0.000000
     9  C    3.716217   1.346632   1.430289   0.000000
    10  H    4.533186   1.010377   3.208413   2.093806   0.000000
    11  H    3.050311   3.267610   1.083220   2.229030   4.210656
    12  H    4.757283   2.130542   2.288177   1.080811   2.501754
    13  H    3.428880   4.678899   5.265699   5.643311   5.036486
    14  H    3.987460   2.870967   4.440558   4.152722   2.819035
    15  H    2.166192   5.246716   4.737552   5.690506   5.980016
    16  H    1.085570   4.461425   2.960320   4.285484   5.428993
                   11         12         13         14         15
    11  H    0.000000
    12  H    2.749741   0.000000
    13  H    6.110667   6.677642   0.000000
    14  H    5.499545   4.998855   2.539115   0.000000
    15  H    5.208652   6.765361   2.448990   4.348868   0.000000
    16  H    3.015888   5.241657   4.326758   5.073028   2.517719
                   16
    16  H    0.000000
 Stoichiometry    C8H7N
 Framework group  C1[X(C8H7N)]
 Deg. of freedom    42
 Full point group                 C1      NOp   1
 Largest Abelian subgroup         C1      NOp   1
 Largest concise Abelian subgroup C1      NOp   1
                         Standard orientation:                         
 ---------------------------------------------------------------------
 Center     Atomic      Atomic             Coordinates (Angstroms)
 Number     Number       Type             X           Y           Z
 ---------------------------------------------------------------------
      1          6           0       -2.196314    0.641840   -0.000060
      2          6           0       -2.140902   -0.736751   -0.000012
      3          6           0       -0.872309   -1.455781    0.000053
      4          6           0        0.260801   -0.661470    0.000050
      5          6           0        0.237912    0.756842   -0.000011
      6          6           0       -1.023500    1.442442   -0.000040
      7          7           0        1.609636   -1.038819    0.000047
      8          6           0        1.569944    1.190865   -0.000029
      9          6           0        2.417382    0.038661   -0.000013
     10          1           0        1.929009   -1.997393    0.000291
     11          1           0        1.927810    2.213263   -0.000107
     12          1           0        3.494852   -0.046263   -0.000055
     13          1           0       -3.061083   -1.315361   -0.000019
     14          1           0       -0.837182   -2.540663    0.000041
     15          1           0       -3.167234    1.131328   -0.000094
     16          1           0       -1.071721    2.526940   -0.000013
 ---------------------------------------------------------------------
 Rotational constants (GHZ):           3.8560283           1.6131647           1.1373541

 **********************************************************************

            Population analysis using the CI Density.

 **********************************************************************

 Orbital symmetries:
       Occupied  (A) (A) (A) (A) (A) (A) (A) (A) (A) (A) (A) (A)
                 (A) (A) (A) (A) (A) (A) (A) (A) (A) (A) (A) (A)
                 (A) (A) (A) (A) (A) (A) (A)
       Virtual   (A) (A) (A) (A) (A) (A) (A) (A) (A) (A) (A) (A)
                 (A) (A) (A) (A) (A) (A) (A) (A) (A) (A) (A) (A)
                 (A) (A) (A) (A) (A) (A) (A) (A) (A) (A) (A) (A)
                 (A) (A) (A) (A) (A) (A) (A) (A) (A) (A) (A) (A)
                 (A) (A) (A) (A) (A) (A) (A) (A) (A) (A) (A) (A)
                 (A) (A) (A) (A) (A) (A) (A) (A) (A) (A) (A) (A)
                 (A) (A) (A) (A) (A) (A) (A) (A) (A) (A) (A) (A)
                 (A) (A) (A) (A) (A) (A) (A) (A) (A) (A) (A) (A)
                 (A) (A) (A) (A) (A) (A) (A) (A) (A) (A) (A) (A)
                 (A) (A) (A) (A) (A) (A) (A) (A) (A) (A) (A) (A)
                 (A) (A) (A) (A) (A) (A) (A) (A) (A) (A) (A) (A)
                 (A) (A) (A) (A) (A) (A) (A) (A) (A) (A) (A) (A)
                 (A) (A) (A) (A) (A) (A) (A) (A) (A) (A)
 The electronic state is 1-A.
 Alpha  occ. eigenvalues --  -14.46697 -10.31651 -10.30850 -10.28537 -10.27925
 Alpha  occ. eigenvalues --  -10.27664 -10.27488 -10.27098 -10.26233  -1.11960
 Alpha  occ. eigenvalues --   -0.97005  -0.90986  -0.87154  -0.83539  -0.75138
 Alpha  occ. eigenvalues --   -0.71876  -0.69765  -0.65675  -0.59782  -0.58512
 Alpha  occ. eigenvalues --   -0.54810  -0.54161  -0.54090  -0.51025  -0.49864
 Alpha  occ. eigenvalues --   -0.45105  -0.44627  -0.44461  -0.37629  -0.32239
 Alpha  occ. eigenvalues --   -0.27865
 Alpha virt. eigenvalues --    0.04550   0.06526   0.08358   0.08884   0.09875
 Alpha virt. eigenvalues --    0.10070   0.10472   0.11937   0.12385   0.12893
 Alpha virt. eigenvalues --    0.12925   0.13389   0.15351   0.15805   0.16780
 Alpha virt. eigenvalues --    0.16853   0.17860   0.19546   0.20534   0.20648
 Alpha virt. eigenvalues --    0.22022   0.22343   0.23268   0.23896   0.24136
 Alpha virt. eigenvalues --    0.25162   0.25650   0.25934   0.26496   0.27150
 Alpha virt. eigenvalues --    0.27673   0.28793   0.28840   0.29503   0.30392
 Alpha virt. eigenvalues --    0.30653   0.30878   0.31440   0.32394   0.33389
 Alpha virt. eigenvalues --    0.34212   0.34575   0.36178   0.37331   0.38226
 Alpha virt. eigenvalues --    0.39547   0.40020   0.41586   0.43524   0.44727
 Alpha virt. eigenvalues --    0.46697   0.48260   0.52487   0.55001   0.61463
 Alpha virt. eigenvalues --    0.67936   0.71217   0.77319   0.77682   0.80141
 Alpha virt. eigenvalues --    0.82092   0.82719   0.83365   0.83732   0.84612
 Alpha virt. eigenvalues --    0.85991   0.86987   0.87978   0.89526   0.89702
 Alpha virt. eigenvalues --    0.91761   0.95746   0.99499   1.00240   1.01665
 Alpha virt. eigenvalues --    1.05094   1.05345   1.06204   1.06799   1.09419
 Alpha virt. eigenvalues --    1.10618   1.13571   1.15451   1.16956   1.19438
 Alpha virt. eigenvalues --    1.21739   1.23152   1.27953   1.28233   1.31517
 Alpha virt. eigenvalues --    1.32820   1.34285   1.35333   1.42566   1.42581
 Alpha virt. eigenvalues --    1.45178   1.46765   1.51122   1.51621   1.54734
 Alpha virt. eigenvalues --    1.57549   1.57795   1.59883   1.60654   1.65075
 Alpha virt. eigenvalues --    1.69143   1.74238   1.88846   1.91930   1.99294
 Alpha virt. eigenvalues --    2.00535   2.01760   2.04538   2.10054   2.10647
 Alpha virt. eigenvalues --    2.11063   2.13885   2.17240   2.23096   2.25959
 Alpha virt. eigenvalues --    2.26514   2.30183   2.32623   2.34993   2.38134
 Alpha virt. eigenvalues --    2.38347   2.41727   2.47428   2.51143   2.56338
 Alpha virt. eigenvalues --    2.63253   2.66186   2.72156   2.75017   2.75928
 Alpha virt. eigenvalues --    2.77516   2.83427   2.90262   2.93880   2.95487
 Alpha virt. eigenvalues --    3.05673   3.08191   3.19600   3.34621   3.50945
 Alpha virt. eigenvalues --    4.26660   4.36409   4.39985   4.43292   4.47911
 Alpha virt. eigenvalues --    4.52455   4.59693   4.63571   4.89325
          Condensed to atoms (all electrons):
               1          2          3          4          5          6
     1  C    5.400478   0.491170   0.296927  -0.380628  -0.138043  -0.033921
     2  C    0.491170   5.716818  -0.379174   0.301254  -0.315577   0.471959
     3  C    0.296927  -0.379174  12.202410  -1.414638  -3.512241  -2.348109
     4  C   -0.380628   0.301254  -1.414638  11.242566  -2.772897  -1.137931
     5  C   -0.138043  -0.315577  -3.512241  -2.772897  13.233026   0.333003
     6  C   -0.033921   0.471959  -2.348109  -1.137931   0.333003  11.277833
     7  N   -0.012633   0.014356  -0.516809  -0.164112   0.777297   0.099905
     8  C    0.162650  -0.312139   2.716521   1.651962  -4.241018  -3.040634
     9  C   -0.078346   0.044216  -0.905219  -0.617605   1.463714   0.792000
    10  H   -0.003300  -0.002772  -0.121744  -0.061866   0.154408   0.021918
    11  H    0.002892   0.000817   0.002300   0.022630  -0.010851  -0.003545
    12  H    0.000907  -0.000217   0.019879   0.058726  -0.056506  -0.013755
    13  H   -0.003690   0.313901  -0.030094   0.015751   0.005714   0.013159
    14  H    0.017714   0.014231   0.286772  -0.005483   0.006046  -0.010530
    15  H    0.306672   0.001220   0.016783  -0.013344   0.027618  -0.027600
    16  H   -0.017576   0.014466  -0.031855   0.049868   0.052738   0.289282
               7          8          9         10         11         12
     1  C   -0.012633   0.162650  -0.078346  -0.003300   0.002892   0.000907
     2  C    0.014356  -0.312139   0.044216  -0.002772   0.000817  -0.000217
     3  C   -0.516809   2.716521  -0.905219  -0.121744   0.002300   0.019879
     4  C   -0.164112   1.651962  -0.617605  -0.061866   0.022630   0.058726
     5  C    0.777297  -4.241018   1.463714   0.154408  -0.010851  -0.056506
     6  C    0.099905  -3.040634   0.792000   0.021918  -0.003545  -0.013755
     7  N    7.135915  -0.647397   0.530592   0.283143   0.007229  -0.046751
     8  C   -0.647397  10.777355  -1.512433  -0.022596   0.333831   0.013364
     9  C    0.530592  -1.512433   6.275574  -0.003059  -0.042333   0.348965
    10  H    0.283143  -0.022596  -0.003059   0.307151  -0.000061  -0.001690
    11  H    0.007229   0.333831  -0.042333  -0.000061   0.451063  -0.000299
    12  H   -0.046751   0.013364   0.348965  -0.001690  -0.000299   0.437174
    13  H   -0.000237  -0.001018   0.001141  -0.000001   0.000000  -0.000000
    14  H   -0.000357  -0.010617   0.010309   0.001575   0.000002   0.000002
    15  H    0.000181   0.002763   0.000078  -0.000000  -0.000001  -0.000000
    16  H   -0.000666  -0.053360   0.004192   0.000003   0.001182  -0.000001
              13         14         15         16
     1  C   -0.003690   0.017714   0.306672  -0.017576
     2  C    0.313901   0.014231   0.001220   0.014466
     3  C   -0.030094   0.286772   0.016783  -0.031855
     4  C    0.015751  -0.005483  -0.013344   0.049868
     5  C    0.005714   0.006046   0.027618   0.052738
     6  C    0.013159  -0.010530  -0.027600   0.289282
     7  N   -0.000237  -0.000357   0.000181  -0.000666
     8  C   -0.001018  -0.010617   0.002763  -0.053360
     9  C    0.001141   0.010309   0.000078   0.004192
    10  H   -0.000001   0.001575  -0.000000   0.000003
    11  H    0.000000   0.000002  -0.000001   0.001182
    12  H   -0.000000   0.000002  -0.000000  -0.000001
    13  H    0.495258  -0.002495  -0.003597  -0.000111
    14  H   -0.002495   0.491273  -0.000103   0.000010
    15  H   -0.003597  -0.000103   0.498253  -0.002637
    16  H   -0.000111   0.000010  -0.002637   0.490478
 Mulliken charges:
               1
     1  C   -0.011275
     2  C   -0.374530
     3  C   -0.281710
     4  C   -0.774254
     5  C    0.993569
     6  C   -0.683033
     7  N   -0.459657
     8  C    0.182767
     9  C   -0.311786
    10  H    0.448892
    11  H    0.235145
    12  H    0.240201
    13  H    0.196320
    14  H    0.201652
    15  H    0.193712
    16  H    0.203986
 Sum of Mulliken charges =  -0.00000
 Mulliken charges with hydrogens summed into heavy atoms:
               1
     1  C    0.182438
     2  C   -0.178210
     3  C   -0.080057
     4  C   -0.774254
     5  C    0.993569
     6  C   -0.479047
     7  N   -0.010765
     8  C    0.417912
     9  C   -0.071585
 Electronic spatial extent (au):  <R**2>=           1022.1744
 Charge=             -0.0000 electrons
 Dipole moment (field-independent basis, Debye):
    X=              3.8720    Y=             -1.5566    Z=              0.0002  Tot=              4.1731
 Quadrupole moment (field-independent basis, Debye-Ang):
   XX=            -44.6302   YY=            -46.0538   ZZ=            -60.6316
   XY=             -2.5493   XZ=              0.0006   YZ=             -0.0009
 Traceless Quadrupole moment (field-independent basis, Debye-Ang):
   XX=              5.8083   YY=              4.3848   ZZ=            -10.1931
   XY=             -2.5493   XZ=              0.0006   YZ=             -0.0009
 Octapole moment (field-independent basis, Debye-Ang**2):
  XXX=             26.3296  YYY=            -10.4278  ZZZ=              0.0001  XYY=             14.1873
  XXY=             -7.7089  XXZ=              0.0001  XZZ=              4.5232  YZZ=             -1.9626
  YYZ=              0.0016  XYZ=             -0.0025
 Hexadecapole moment (field-independent basis, Debye-Ang**3):
 XXXX=           -838.2444 YYYY=           -391.9545 ZZZZ=            -85.1988 XXXY=            -19.8104
 XXXZ=             -0.0032 YYYX=            -15.8426 YYYZ=              0.0028 ZZZX=             -0.0042
 ZZZY=              0.0086 XXYY=           -197.3976 XXZZ=           -201.0367 YYZZ=           -103.4045
 XXYZ=             -0.0029 YYXZ=              0.0025 ZZXY=             -2.2485
 N-N= 3.980975609702D+02 E-N=-1.638018576496D+03  KE= 3.601066756807D+02
 Unable to Open any file for archive entry.
 1\1\GINC-EXP-4-06\FOpt\RwB97X TD-FC\6-31+G(d)\C8H7N1\SCAPARAS\16-Jun-2
 021\0\\# td= (nstates=6, root=2) WB97X/6-31+G* Opt density=current\\Fu
 ncsWB97X-V-2nd\\0,1\C,-2.1818464492,0.6873262948,-0.0000283964\C,-2.15
 43288104,-0.6921043124,0.0000198503\C,-0.9005379835,-1.4366449627,0.00
 0084274\C,0.2484056097,-0.6654135635,0.0000820484\C,0.2542077626,0.753
 0708112,0.0000202798\C,-0.9930798613,1.464043118,-0.0000082602\N,1.589
 3326437,-1.0699669216,0.0000783524\C,1.5947456135,1.1600643142,0.00000
 30921\C,2.4187063734,-0.0090439867,0.0000188337\H,1.8892528021,-2.0348
 037314,0.0003224447\H,1.9732169081,2.1750150251,-0.0000753975\H,3.4942
 380659,-0.1157429507,-0.0000228357\H,-3.0860246235,-1.2519839869,0.000
 0129161\H,-0.8873605567,-2.5220150721,0.0000728023\H,-3.1426678536,1.1
 963509341,-0.0000623118\H,-1.0193566407,2.5492949906,0.0000183079\\Ver
 sion=AS64L-G16RevC.01\State=1-A\HF=-363.7170005\RMSD=8.746e-09\RMSF=8.
 813e-05\Dipole=1.5233567,-0.612399,0.0000946\Quadrupole=4.3183354,3.25
 99592,-7.5782946,-1.8953225,0.0004254,-0.0006805\PG=C01 [X(C8H7N1)]\\@
 The archive entry for this job was punched.


 I DO NOT KNOW WHAT I MAY APPEAR TO THE WORLD; BUT TO MYSELF
 I SEEM TO HAVE BEEN ONLY LIKE A BOY PLAYING ON THE SEASHORE,
 AND DIVERTING MYSELF IN NOW AND THEN FINDING A SMOOTHER PEBBLE
 OR A PRETTIER SHELL THAN ORDINARY, WHILST THE GREAT OCEAN OF
 TRUTH LAY ALL UNDISCOVERED BEFORE ME.
                                          -- NEWTON (1642-1726)
 Job cpu time:       0 days  2 hours  5 minutes 45.8 seconds.
 Elapsed time:       0 days  0 hours 32 minutes  2.8 seconds.
 File lengths (MBytes):  RWF=    239 Int=      0 D2E=      0 Chk=     11 Scr=      1
 Normal termination of Gaussian 16 at Wed Jun 16 07:53:11 2021.
