 Entering Gaussian System, Link 0=/cm/shared/apps/spack/cpu/opt/spack/linux-centos8-zen/gcc-8.3.1/gaussian-16.C.01-po5bqktfeugvmjyga3v7eigbecnokxng/g16/g16
 Initial command:
 /cm/shared/apps/spack/cpu/opt/spack/linux-centos8-zen/gcc-8.3.1/gaussian-16.C.01-po5bqktfeugvmjyga3v7eigbecnokxng/g16/l1.exe "/scratch/scaparas/job_3445987/Gau-89606.inp" -scrdir="/scratch/scaparas/job_3445987/"
 Entering Link 1 = /cm/shared/apps/spack/cpu/opt/spack/linux-centos8-zen/gcc-8.3.1/gaussian-16.C.01-po5bqktfeugvmjyga3v7eigbecnokxng/g16/l1.exe PID=     89607.
  
 Copyright (c) 1988-2019, Gaussian, Inc.  All Rights Reserved.
  
 This is part of the Gaussian(R) 16 program.  It is based on
 the Gaussian(R) 09 system (copyright 2009, Gaussian, Inc.),
 the Gaussian(R) 03 system (copyright 2003, Gaussian, Inc.),
 the Gaussian(R) 98 system (copyright 1998, Gaussian, Inc.),
 the Gaussian(R) 94 system (copyright 1995, Gaussian, Inc.),
 the Gaussian 92(TM) system (copyright 1992, Gaussian, Inc.),
 the Gaussian 90(TM) system (copyright 1990, Gaussian, Inc.),
 the Gaussian 88(TM) system (copyright 1988, Gaussian, Inc.),
 the Gaussian 86(TM) system (copyright 1986, Carnegie Mellon
 University), and the Gaussian 82(TM) system (copyright 1983,
 Carnegie Mellon University). Gaussian is a federally registered
 trademark of Gaussian, Inc.
  
 This software contains proprietary and confidential information,
 including trade secrets, belonging to Gaussian, Inc.
  
 This software is provided under written license and may be
 used, copied, transmitted, or stored only in accord with that
 written license.
  
 The following legend is applicable only to US Government
 contracts under FAR:
  
                    RESTRICTED RIGHTS LEGEND
  
 Use, reproduction and disclosure by the US Government is
 subject to restrictions as set forth in subparagraphs (a)
 and (c) of the Commercial Computer Software - Restricted
 Rights clause in FAR 52.227-19.
  
 Gaussian, Inc.
 340 Quinnipiac St., Bldg. 40, Wallingford CT 06492
  
  
 ---------------------------------------------------------------
 Warning -- This program may not be used in any manner that
 competes with the business of Gaussian, Inc. or will provide
 assistance to any competitor of Gaussian, Inc.  The licensee
 of this program is prohibited from giving any competitor of
 Gaussian, Inc. access to this program.  By using this program,
 the user acknowledges that Gaussian, Inc. is engaged in the
 business of creating and licensing software in the field of
 computational chemistry and represents and warrants to the
 licensee that it is not a competitor of Gaussian, Inc. and that
 it will not use this program in any manner prohibited above.
 ---------------------------------------------------------------
  

 Cite this work as:
 Gaussian 16, Revision C.01,
 M. J. Frisch, G. W. Trucks, H. B. Schlegel, G. E. Scuseria, 
 M. A. Robb, J. R. Cheeseman, G. Scalmani, V. Barone, 
 G. A. Petersson, H. Nakatsuji, X. Li, M. Caricato, A. V. Marenich, 
 J. Bloino, B. G. Janesko, R. Gomperts, B. Mennucci, H. P. Hratchian, 
 J. V. Ortiz, A. F. Izmaylov, J. L. Sonnenberg, D. Williams-Young, 
 F. Ding, F. Lipparini, F. Egidi, J. Goings, B. Peng, A. Petrone, 
 T. Henderson, D. Ranasinghe, V. G. Zakrzewski, J. Gao, N. Rega, 
 G. Zheng, W. Liang, M. Hada, M. Ehara, K. Toyota, R. Fukuda, 
 J. Hasegawa, M. Ishida, T. Nakajima, Y. Honda, O. Kitao, H. Nakai, 
 T. Vreven, K. Throssell, J. A. Montgomery, Jr., J. E. Peralta, 
 F. Ogliaro, M. J. Bearpark, J. J. Heyd, E. N. Brothers, K. N. Kudin, 
 V. N. Staroverov, T. A. Keith, R. Kobayashi, J. Normand, 
 K. Raghavachari, A. P. Rendell, J. C. Burant, S. S. Iyengar, 
 J. Tomasi, M. Cossi, J. M. Millam, M. Klene, C. Adamo, R. Cammi, 
 J. W. Ochterski, R. L. Martin, K. Morokuma, O. Farkas, 
 J. B. Foresman, and D. J. Fox, Gaussian, Inc., Wallingford CT, 2019.
 
 ******************************************
 Gaussian 16:  AS64L-G16RevC.01  3-Jul-2019
                16-Jun-2021 
 ******************************************
 %nprocshared=4
 Will use up to    4 processors via shared memory.
 %chk=FuncsLC-BLYP-V-2nd.chk
 %Mem=3GB
 -------------------------------------------------------------
 # td= (nstates=6, root=2) LC-BLYP/6-31+G* Opt density=current
 -------------------------------------------------------------
 1/18=20,19=15,26=3,38=1/1,3;
 2/9=110,12=2,17=6,18=5,40=1/2;
 3/5=1,6=6,7=11,11=9,25=1,30=1,71=1,74=1000402/1,2,3,8;
 4//1;
 5/5=2,38=5/2;
 8/6=1,10=2,107=2,108=6/1;
 9/8=2,15=2,41=6,42=1,70=2/14;
 10/5=4,28=2/2;
 6/7=2,8=2,9=2,10=2,22=-1/1;
 7/12=6,13=5,14=2/1,2,3,16;
 1/18=20,19=15,26=3/3(2);
 2/9=110/2;
 99//99;
 2/9=110/2;
 3/5=1,6=6,7=11,11=9,25=1,30=1,71=1,74=1000402/1,2,3,8;
 4/5=5,16=3,69=1/1;
 5/5=2,38=5/2;
 8/6=1,10=2,107=2,108=6/1;
 9/8=2,15=2,41=6,42=1,49=4,70=2/14;
 10/5=4,28=2/2;
 7/12=6,13=5,14=2/1,2,3,16;
 1/18=20,19=15,26=3/3(-8);
 2/9=110/2;
 6/7=2,8=2,9=2,10=2,22=-1/1;
 99/9=10/99;
 ------------------
 FuncsLC-BLYP-V-2nd
 ------------------
 Symbolic Z-matrix:
 Charge =  0 Multiplicity = 1
 C                    -2.15106   0.68921   0.00009 
 C                    -2.12793  -0.71582   0.00008 
 C                    -0.9323   -1.4131   -0.00001 
 C                     0.24691  -0.6702   -0.00004 
 C                     0.24819   0.7483    0. 
 C                    -0.97947   1.42353   0.00003 
 N                     1.56177  -1.07759  -0.00029 
 C                     1.62013   1.1629   -0.00016 
 C                     2.38201   0.03081   0.00025 
 H                     1.87632  -2.03001   0.00044 
 H                     1.99217   2.17301  -0.00035 
 H                     3.45255  -0.08243   0.00041 
 H                    -3.06159  -1.26202   0.00009 
 H                    -0.91725  -2.49534  -0.00007 
 H                    -3.1042    1.20079   0.00009 
 H                    -1.00935   2.50542  -0.00002 
 

 GradGradGradGradGradGradGradGradGradGradGradGradGradGradGradGradGradGrad
 Berny optimization.
 Initialization pass.
                           ----------------------------
                           !    Initial Parameters    !
                           ! (Angstroms and Degrees)  !
 --------------------------                            --------------------------
 ! Name  Definition              Value          Derivative Info.                !
 --------------------------------------------------------------------------------
 ! R1    R(1,2)                  1.4052         estimate D2E/DX2                !
 ! R2    R(1,6)                  1.3827         estimate D2E/DX2                !
 ! R3    R(1,15)                 1.0818         estimate D2E/DX2                !
 ! R4    R(2,3)                  1.3841         estimate D2E/DX2                !
 ! R5    R(2,13)                 1.0817         estimate D2E/DX2                !
 ! R6    R(3,4)                  1.3937         estimate D2E/DX2                !
 ! R7    R(3,14)                 1.0823         estimate D2E/DX2                !
 ! R8    R(4,5)                  1.4185         estimate D2E/DX2                !
 ! R9    R(4,7)                  1.3765         estimate D2E/DX2                !
 ! R10   R(5,6)                  1.4011         estimate D2E/DX2                !
 ! R11   R(5,8)                  1.4332         estimate D2E/DX2                !
 ! R12   R(6,16)                 1.0823         estimate D2E/DX2                !
 ! R13   R(7,9)                  1.3789         estimate D2E/DX2                !
 ! R14   R(7,10)                 1.003          estimate D2E/DX2                !
 ! R15   R(8,9)                  1.3646         estimate D2E/DX2                !
 ! R16   R(8,11)                 1.0764         estimate D2E/DX2                !
 ! R17   R(9,12)                 1.0765         estimate D2E/DX2                !
 ! A1    A(2,1,6)              121.1349         estimate D2E/DX2                !
 ! A2    A(2,1,15)             119.1671         estimate D2E/DX2                !
 ! A3    A(6,1,15)             119.698          estimate D2E/DX2                !
 ! A4    A(1,2,3)              121.1938         estimate D2E/DX2                !
 ! A5    A(1,2,13)             119.3846         estimate D2E/DX2                !
 ! A6    A(3,2,13)             119.4217         estimate D2E/DX2                !
 ! A7    A(2,3,4)              117.5387         estimate D2E/DX2                !
 ! A8    A(2,3,14)             121.0469         estimate D2E/DX2                !
 ! A9    A(4,3,14)             121.4144         estimate D2E/DX2                !
 ! A10   A(3,4,5)              122.2626         estimate D2E/DX2                !
 ! A11   A(3,4,7)              130.5743         estimate D2E/DX2                !
 ! A12   A(5,4,7)              107.163          estimate D2E/DX2                !
 ! A13   A(4,5,6)              118.7594         estimate D2E/DX2                !
 ! A14   A(4,5,8)              106.8666         estimate D2E/DX2                !
 ! A15   A(6,5,8)              134.374          estimate D2E/DX2                !
 ! A16   A(1,6,5)              119.1105         estimate D2E/DX2                !
 ! A17   A(1,6,16)             120.4966         estimate D2E/DX2                !
 ! A18   A(5,6,16)             120.3928         estimate D2E/DX2                !
 ! A19   A(4,7,9)              109.2874         estimate D2E/DX2                !
 ! A20   A(4,7,10)             125.4909         estimate D2E/DX2                !
 ! A21   A(9,7,10)             125.2217         estimate D2E/DX2                !
 ! A22   A(5,8,9)              107.125          estimate D2E/DX2                !
 ! A23   A(5,8,11)             127.0344         estimate D2E/DX2                !
 ! A24   A(9,8,11)             125.8405         estimate D2E/DX2                !
 ! A25   A(7,9,8)              109.5578         estimate D2E/DX2                !
 ! A26   A(7,9,12)             120.4645         estimate D2E/DX2                !
 ! A27   A(8,9,12)             129.9776         estimate D2E/DX2                !
 ! D1    D(6,1,2,3)             -0.0008         estimate D2E/DX2                !
 ! D2    D(6,1,2,13)          -179.9981         estimate D2E/DX2                !
 ! D3    D(15,1,2,3)           179.996          estimate D2E/DX2                !
 ! D4    D(15,1,2,13)           -0.0013         estimate D2E/DX2                !
 ! D5    D(2,1,6,5)             -0.0018         estimate D2E/DX2                !
 ! D6    D(2,1,6,16)           179.9965         estimate D2E/DX2                !
 ! D7    D(15,1,6,5)          -179.9986         estimate D2E/DX2                !
 ! D8    D(15,1,6,16)           -0.0003         estimate D2E/DX2                !
 ! D9    D(1,2,3,4)              0.002          estimate D2E/DX2                !
 ! D10   D(1,2,3,14)          -179.9968         estimate D2E/DX2                !
 ! D11   D(13,2,3,4)           179.9992         estimate D2E/DX2                !
 ! D12   D(13,2,3,14)            0.0005         estimate D2E/DX2                !
 ! D13   D(2,3,4,5)             -0.0005         estimate D2E/DX2                !
 ! D14   D(2,3,4,7)           -179.9911         estimate D2E/DX2                !
 ! D15   D(14,3,4,5)           179.9982         estimate D2E/DX2                !
 ! D16   D(14,3,4,7)             0.0076         estimate D2E/DX2                !
 ! D17   D(3,4,5,6)             -0.002          estimate D2E/DX2                !
 ! D18   D(3,4,5,8)           -179.9955         estimate D2E/DX2                !
 ! D19   D(7,4,5,6)            179.9905         estimate D2E/DX2                !
 ! D20   D(7,4,5,8)             -0.003          estimate D2E/DX2                !
 ! D21   D(3,4,7,9)           -179.98           estimate D2E/DX2                !
 ! D22   D(3,4,7,10)            -0.0649         estimate D2E/DX2                !
 ! D23   D(5,4,7,9)              0.0284         estimate D2E/DX2                !
 ! D24   D(5,4,7,10)           179.9434         estimate D2E/DX2                !
 ! D25   D(4,5,6,1)              0.0031         estimate D2E/DX2                !
 ! D26   D(4,5,6,16)          -179.9951         estimate D2E/DX2                !
 ! D27   D(8,5,6,1)            179.9944         estimate D2E/DX2                !
 ! D28   D(8,5,6,16)            -0.0038         estimate D2E/DX2                !
 ! D29   D(4,5,8,9)             -0.0234         estimate D2E/DX2                !
 ! D30   D(4,5,8,11)           179.9883         estimate D2E/DX2                !
 ! D31   D(6,5,8,9)            179.9846         estimate D2E/DX2                !
 ! D32   D(6,5,8,11)            -0.0037         estimate D2E/DX2                !
 ! D33   D(4,7,9,8)             -0.0444         estimate D2E/DX2                !
 ! D34   D(4,7,9,12)           179.9847         estimate D2E/DX2                !
 ! D35   D(10,7,9,8)          -179.9597         estimate D2E/DX2                !
 ! D36   D(10,7,9,12)            0.0693         estimate D2E/DX2                !
 ! D37   D(5,8,9,7)              0.0414         estimate D2E/DX2                !
 ! D38   D(5,8,9,12)          -179.9913         estimate D2E/DX2                !
 ! D39   D(11,8,9,7)          -179.9702         estimate D2E/DX2                !
 ! D40   D(11,8,9,12)           -0.0029         estimate D2E/DX2                !
 --------------------------------------------------------------------------------
 Trust Radius=3.00D-01 FncErr=1.00D-07 GrdErr=1.00D-06 EigMax=2.50D+02 EigMin=1.00D-04
 Number of steps in this run=     94 maximum allowed number of steps=    100.
 GradGradGradGradGradGradGradGradGradGradGradGradGradGradGradGradGradGrad

                          Input orientation:                          
 ---------------------------------------------------------------------
 Center     Atomic      Atomic             Coordinates (Angstroms)
 Number     Number       Type             X           Y           Z
 ---------------------------------------------------------------------
      1          6           0       -2.151063    0.689208    0.000088
      2          6           0       -2.127927   -0.715818    0.000075
      3          6           0       -0.932297   -1.413100   -0.000011
      4          6           0        0.246911   -0.670201   -0.000042
      5          6           0        0.248193    0.748299    0.000000
      6          6           0       -0.979474    1.423526    0.000032
      7          7           0        1.561774   -1.077592   -0.000285
      8          6           0        1.620133    1.162900   -0.000157
      9          6           0        2.382013    0.030806    0.000248
     10          1           0        1.876315   -2.030011    0.000438
     11          1           0        1.992173    2.173010   -0.000348
     12          1           0        3.452549   -0.082425    0.000408
     13          1           0       -3.061594   -1.262020    0.000088
     14          1           0       -0.917252   -2.495342   -0.000073
     15          1           0       -3.104203    1.200785    0.000090
     16          1           0       -1.009348    2.505421   -0.000015
 ---------------------------------------------------------------------
                    Distance matrix (angstroms):
                    1          2          3          4          5
     1  C    0.000000
     2  C    1.405216   0.000000
     3  C    2.430039   1.384100   0.000000
     4  C    2.756496   2.375276   1.393711   0.000000
     5  C    2.399984   2.790983   2.462763   1.418501   0.000000
     6  C    1.382694   2.428114   2.837018   2.426461   1.401106
     7  N    4.111781   3.707395   2.516536   1.376529   2.249305
     8  C    3.800829   4.192557   3.626386   2.290414   1.433218
     9  C    4.580641   4.571324   3.615178   2.247236   2.251218
    10  H    4.859416   4.214387   2.875566   2.122273   3.220216
    11  H    4.400917   5.031953   4.627387   3.336134   2.251948
    12  H    5.656491   5.616307   4.582311   3.259079   3.310287
    13  H    2.153220   1.081698   2.134650   3.361020   3.872476
    14  H    3.415208   2.152310   1.082347   2.164813   3.446661
    15  H    1.081752   2.150926   3.398466   3.838040   3.382795
    16  H    2.145261   3.409927   3.919278   3.415079   2.160761
                    6          7          8          9         10
     6  C    0.000000
     7  N    3.565604   0.000000
     8  C    2.612639   2.241252   0.000000
     9  C    3.638580   1.378890   1.364587   0.000000
    10  H    4.481345   1.003015   3.203172   2.121956   0.000000
    11  H    3.064704   3.278972   1.076446   2.177387   4.204618
    12  H    4.680888   2.136677   2.215532   1.076508   2.505515
    13  H    3.398144   4.627045   5.272457   5.595021   4.997275
    14  H    3.919362   2.855798   4.452085   4.155307   2.832058
    15  H    2.136372   5.192528   4.724488   5.609583   5.936632
    16  H    1.082307   4.410062   2.952378   4.198220   5.375611
                   11         12         13         14         15
    11  H    0.000000
    12  H    2.686947   0.000000
    13  H    6.110646   6.620083   0.000000
    14  H    5.500751   4.991726   2.473719   0.000000
    15  H    5.188282   6.681139   2.463174   4.294661   0.000000
    16  H    3.019872   5.158049   4.290143   5.001611   2.467892
                   16
    16  H    0.000000
 Stoichiometry    C8H7N
 Framework group  C1[X(C8H7N)]
 Deg. of freedom    42
 Full point group                 C1      NOp   1
 Largest Abelian subgroup         C1      NOp   1
 Largest concise Abelian subgroup C1      NOp   1
                         Standard orientation:                         
 ---------------------------------------------------------------------
 Center     Atomic      Atomic             Coordinates (Angstroms)
 Number     Number       Type             X           Y           Z
 ---------------------------------------------------------------------
      1          6           0       -2.151063    0.689208    0.000088
      2          6           0       -2.127927   -0.715818    0.000075
      3          6           0       -0.932297   -1.413100   -0.000011
      4          6           0        0.246911   -0.670201   -0.000042
      5          6           0        0.248193    0.748299    0.000000
      6          6           0       -0.979474    1.423526    0.000032
      7          7           0        1.561774   -1.077592   -0.000285
      8          6           0        1.620133    1.162900   -0.000157
      9          6           0        2.382013    0.030806    0.000248
     10          1           0        1.876315   -2.030011    0.000438
     11          1           0        1.992173    2.173010   -0.000348
     12          1           0        3.452549   -0.082425    0.000408
     13          1           0       -3.061594   -1.262020    0.000088
     14          1           0       -0.917252   -2.495342   -0.000073
     15          1           0       -3.104203    1.200785    0.000090
     16          1           0       -1.009348    2.505421   -0.000015
 ---------------------------------------------------------------------
 Rotational constants (GHZ):           3.9080822           1.6429452           1.1566805
 Standard basis: 6-31+G(d) (6D, 7F)
 There are   185 symmetry adapted cartesian basis functions of A   symmetry.
 There are   185 symmetry adapted basis functions of A   symmetry.
   185 basis functions,   316 primitive gaussians,   185 cartesian basis functions
    31 alpha electrons       31 beta electrons
       nuclear repulsion energy       401.3368668897 Hartrees.
 NAtoms=   16 NActive=   16 NUniq=   16 SFac= 1.00D+00 NAtFMM=   60 NAOKFM=F Big=F
 Integral buffers will be    131072 words long.
 Raffenetti 1 integral format.
 Two-electron integral symmetry is turned on.
 One-electron integrals computed using PRISM.
 NBasis=   185 RedAO= T EigKep=  1.26D-06  NBF=   185
 NBsUse=   185 1.00D-06 EigRej= -1.00D+00 NBFU=   185
 ExpMin= 4.38D-02 ExpMax= 4.17D+03 ExpMxC= 6.27D+02 IAcc=3 IRadAn=         5 AccDes= 0.00D+00
 Harris functional with IExCor=10402 and IRadAn=       5 diagonalized for initial guess.
 HarFok:  IExCor=10402 AccDes= 0.00D+00 IRadAn=         5 IDoV= 1 UseB2=F ITyADJ=14
 ICtDFT=  3500011 ScaDFX=  1.000000  1.000000  1.000000  1.000000
 FoFCou: FMM=F IPFlag=           0 FMFlag=      100000 FMFlg1=           0
         NFxFlg=           0 DoJE=T BraDBF=F KetDBF=T FulRan=T
         wScrn=  0.000000 ICntrl=       500 IOpCl=  0 I1Cent=   200000004 NGrid=           0
         NMat0=    1 NMatS0=      1 NMatT0=    0 NMatD0=    1 NMtDS0=    0 NMtDT0=    0
 Petite list used in FoFCou.
 Keep R1 ints in memory in canonical form, NReq=303303409.
 Requested convergence on RMS density matrix=1.00D-08 within 128 cycles.
 Requested convergence on MAX density matrix=1.00D-06.
 Requested convergence on             energy=1.00D-06.
 No special actions if energy rises.
 SCF Done:  E(RLC-B+HF-LYP) =  -362.735201154     A.U. after   16 cycles
            NFock= 16  Conv=0.28D-08     -V/T= 2.0089
 DoSCS=F DFT=T ScalE2(SS,OS)=  1.000000  1.000000
 ExpMin= 4.38D-02 ExpMax= 4.17D+03 ExpMxC= 6.27D+02 IAcc=3 IRadAn=         5 AccDes= 0.00D+00
 HarFok:  IExCor=  205 AccDes= 0.00D+00 IRadAn=         5 IDoV=-2 UseB2=F ITyADJ=14
 ICtDFT= 12500011 ScaDFX=  1.000000  1.000000  1.000000  1.000000
 Range of M.O.s used for correlation:    10   185
 NBasis=   185 NAE=    31 NBE=    31 NFC=     9 NFV=     0
 NROrb=    176 NOA=    22 NOB=    22 NVA=   154 NVB=   154

 **** Warning!!: The largest alpha MO coefficient is  0.21393293D+03

 Orbital symmetries:
       Occupied  (A) (A) (A) (A) (A) (A) (A) (A) (A) (A) (A) (A)
                 (A) (A) (A) (A) (A) (A) (A) (A) (A) (A) (A) (A)
                 (A) (A) (A) (A) (A) (A) (A)
       Virtual   (A) (A) (A) (A) (A) (A) (A) (A) (A) (A) (A) (A)
                 (A) (A) (A) (A) (A) (A) (A) (A) (A) (A) (A) (A)
                 (A) (A) (A) (A) (A) (A) (A) (A) (A) (A) (A) (A)
                 (A) (A) (A) (A) (A) (A) (A) (A) (A) (A) (A) (A)
                 (A) (A) (A) (A) (A) (A) (A) (A) (A) (A) (A) (A)
                 (A) (A) (A) (A) (A) (A) (A) (A) (A) (A) (A) (A)
                 (A) (A) (A) (A) (A) (A) (A) (A) (A) (A) (A) (A)
                 (A) (A) (A) (A) (A) (A) (A) (A) (A) (A) (A) (A)
                 (A) (A) (A) (A) (A) (A) (A) (A) (A) (A) (A) (A)
                 (A) (A) (A) (A) (A) (A) (A) (A) (A) (A) (A) (A)
                 (A) (A) (A) (A) (A) (A) (A) (A) (A) (A) (A) (A)
                 (A) (A) (A) (A) (A) (A) (A) (A) (A) (A) (A) (A)
                 (A) (A) (A) (A) (A) (A) (A) (A) (A) (A)
    24 initial guesses have been made.
 Convergence on wavefunction:    0.000001000000000
 Iteration     1 Dimension    24 NMult     0 NNew     24
 CISAX will form    24 AO SS matrices at one time.
 New state      1 was old state      6
 New state      3 was old state      1
 New state      4 was old state      3
 New state      6 was old state      4
 Iteration     2 Dimension    36 NMult    24 NNew     12
 Iteration     3 Dimension    48 NMult    36 NNew     12
 Iteration     4 Dimension    60 NMult    48 NNew     12
 Iteration     5 Dimension    72 NMult    60 NNew     12
 Iteration     6 Dimension    84 NMult    72 NNew     12
 Iteration     7 Dimension    96 NMult    84 NNew     12
 Iteration     8 Dimension   108 NMult    96 NNew     12
 Iteration     9 Dimension   120 NMult   108 NNew     12
 Iteration    10 Dimension   132 NMult   120 NNew     12
 Iteration    11 Dimension   140 NMult   132 NNew      8
 Iteration    12 Dimension   144 NMult   140 NNew      4
 Iteration    13 Dimension   148 NMult   144 NNew      4
 Iteration    14 Dimension   150 NMult   148 NNew      2
 Iteration    15 Dimension   152 NMult   150 NNew      2
 ***********************************************************************
 Excited states from <AA,BB:AA,BB> singles matrix:
 ***********************************************************************
 
 Ground to excited state transition densities written to RWF  633
 Ground to excited state transition electric dipole moments (Au):
       state          X           Y           Z        Dip. S.      Osc.
         1        -0.4569     -0.3396     -0.0001      0.3241      0.0415
         2        -0.8170      0.6486     -0.0002      1.0882      0.1431
         3         0.0004     -0.0003     -0.1765      0.0312      0.0045
         4        -0.0011     -0.0004     -0.2031      0.0413      0.0064
         5         0.0018      0.0005     -0.0227      0.0005      0.0001
         6         0.0147      0.0053      0.1032      0.0109      0.0017
 Ground to excited state transition velocity dipole moments (Au):
       state          X           Y           Z        Dip. S.      Osc.
         1         0.0840      0.0685      0.0000      0.0118      0.0408
         2         0.1483     -0.1350      0.0000      0.0402      0.1360
         3        -0.0001      0.0001      0.0276      0.0008      0.0024
         4         0.0002      0.0001      0.0485      0.0024      0.0068
         5        -0.0004     -0.0001      0.0059      0.0000      0.0001
         6        -0.0034     -0.0013     -0.0260      0.0007      0.0019
 Ground to excited state transition magnetic dipole moments (Au):
       state          X           Y           Z
         1        -0.0001     -0.0002     -0.1476
         2         0.0003     -0.0002      0.0879
         3         0.1493     -0.1259     -0.0002
         4         0.1294     -0.4096     -0.0005
         5         0.1697     -0.4031      0.0007
         6         0.4253      0.2659      0.0084
 Ground to excited state transition velocity quadrupole moments (Au):
       state          XX          YY          ZZ          XY          XZ          YZ
         1        -0.0011     -0.0919      0.0175     -0.0200      0.0001     -0.0001
         2         0.2922     -0.1896      0.0177     -0.0433      0.0002      0.0001
         3        -0.0002      0.0001      0.0001     -0.0001      0.1103      0.0778
         4         0.0001     -0.0000      0.0000     -0.0003      0.3164      0.0814
         5        -0.0005      0.0003     -0.0000      0.0005      0.4412      0.2381
         6        -0.0010      0.0011      0.0005      0.0057     -0.1687      0.3087
 <0|del|b> * <b|rxdel|0> + <0|del|b> * <b|delr+rdel|0>
 Rotatory Strengths (R) in cgs (10**-40 erg-esu-cm/Gauss)
       state          XX          YY          ZZ    R(velocity)    E-M Angle
         1        -0.0390     -0.0354     -0.0259     -0.0334       90.00
         2         0.1077      0.1106      0.0565      0.0916       90.00
         3        -0.0415     -0.0283     -0.0099     -0.0266       90.00
         4        -0.1639      0.0593      0.0049     -0.0333       90.00
         5         0.1661     -0.2531      0.0358     -0.0171       90.00
         6        -1.3450     -3.7783     -0.7644     -1.9625       98.75
 1/2[<0|r|b>*<b|rxdel|0> + (<0|rxdel|b>*<b|r|0>)*]
 Rotatory Strengths (R) in cgs (10**-40 erg-esu-cm/Gauss)
       state          XX          YY          ZZ     R(length)
         1        -0.0467     -0.0457     -0.0071     -0.0331
         2         0.1668      0.1038      0.0141      0.0949
         3        -0.0398     -0.0309     -0.0204     -0.0304
         4         0.0998     -0.1241     -0.0782     -0.0341
         5        -0.2177      0.1393      0.0118     -0.0222
         6        -4.4078     -1.0049     -0.6133     -2.0087
  1/2[<0|del|b>*<b|r|0> + (<0|r|b>*<b|del|0>)*] (Au)
       state          X           Y           Z        Dip. S.   Osc.(frdel)
         1        -0.0384     -0.0233     -0.0000      0.0617      0.0411
         2        -0.1212     -0.0876     -0.0000      0.2088      0.1392
         3        -0.0000     -0.0000     -0.0049      0.0049      0.0032
         4        -0.0000     -0.0000     -0.0099      0.0099      0.0066
         5        -0.0000     -0.0000     -0.0001      0.0001      0.0001
         6        -0.0000     -0.0000     -0.0027      0.0027      0.0018

 Excitation energies and oscillator strengths:
 
 Excited State   1:      Singlet-A      5.2259 eV  237.25 nm  f=0.0415  <S**2>=0.000
      30 -> 33         0.57563
      31 -> 38        -0.32510
 
 Excited State   2:      Singlet-A      5.3657 eV  231.07 nm  f=0.1431  <S**2>=0.000
      30 -> 38         0.23097
      31 -> 33         0.64149
 This state for optimization and/or second-order correction.
 Total Energy, E(TD-HF/TD-DFT) =  -362.538013957    
 Copying the excited state density for this state as the 1-particle RhoCI density.
 
 Excited State   3:      Singlet-A      5.8337 eV  212.53 nm  f=0.0045  <S**2>=0.000
      29 -> 32         0.11352
      31 -> 32         0.65359
      31 -> 40         0.12280
 
 Excited State   4:      Singlet-A      6.3198 eV  196.18 nm  f=0.0064  <S**2>=0.000
      27 -> 32        -0.10773
      30 -> 32         0.56991
      30 -> 34        -0.11017
      30 -> 40         0.13613
      31 -> 34         0.26682
      31 -> 35        -0.13367
 
 Excited State   5:      Singlet-A      6.5186 eV  190.20 nm  f=0.0001  <S**2>=0.000
      30 -> 32        -0.27469
      30 -> 34         0.12127
      31 -> 34         0.50260
      31 -> 35        -0.29665
 
 Excited State   6:      Singlet-A      6.5528 eV  189.21 nm  f=0.0017  <S**2>=0.000
      31 -> 34         0.31229
      31 -> 35         0.52837
      31 -> 36         0.11897
      31 -> 42         0.17116
 SavETr:  write IOETrn=   770 NScale= 10 NData=  16 NLR=1 NState=    6 LETran=     118.
          IDoAtm=1111111111111111
          Differentiating once with respect to electric field.
                with respect to dipole field.
          Differentiating once with respect to nuclear coordinates.
 Keep R1 ints in memory in canonical form, NReq=303315801.
          There are     1 degrees of freedom in the 1st order CPHF.  IDoFFX=0 NUNeed=     1.
 LinEq1:  Iter=  0 NonCon=     1 RMS=3.58D-03 Max=6.05D-02 NDo=     1
 AX will form     1 AO Fock derivatives at one time.
 LinEq1:  Iter=  1 NonCon=     1 RMS=1.81D-03 Max=5.24D-02 NDo=     1
 LinEq1:  Iter=  2 NonCon=     1 RMS=6.40D-04 Max=1.05D-02 NDo=     1
 LinEq1:  Iter=  3 NonCon=     1 RMS=3.48D-04 Max=9.64D-03 NDo=     1
 LinEq1:  Iter=  4 NonCon=     1 RMS=1.38D-04 Max=3.34D-03 NDo=     1
 LinEq1:  Iter=  5 NonCon=     1 RMS=6.06D-05 Max=1.95D-03 NDo=     1
 LinEq1:  Iter=  6 NonCon=     1 RMS=2.69D-05 Max=7.86D-04 NDo=     1
 LinEq1:  Iter=  7 NonCon=     1 RMS=1.24D-05 Max=2.45D-04 NDo=     1
 LinEq1:  Iter=  8 NonCon=     1 RMS=4.71D-06 Max=1.14D-04 NDo=     1
 LinEq1:  Iter=  9 NonCon=     1 RMS=1.51D-06 Max=2.60D-05 NDo=     1
 LinEq1:  Iter= 10 NonCon=     1 RMS=8.20D-07 Max=2.18D-05 NDo=     1
 LinEq1:  Iter= 11 NonCon=     1 RMS=2.44D-07 Max=5.35D-06 NDo=     1
 LinEq1:  Iter= 12 NonCon=     1 RMS=9.90D-08 Max=1.90D-06 NDo=     1
 LinEq1:  Iter= 13 NonCon=     1 RMS=3.84D-08 Max=6.59D-07 NDo=     1
 LinEq1:  Iter= 14 NonCon=     1 RMS=9.83D-09 Max=2.18D-07 NDo=     1
 LinEq1:  Iter= 15 NonCon=     1 RMS=4.40D-09 Max=6.80D-08 NDo=     1
 LinEq1:  Iter= 16 NonCon=     1 RMS=1.14D-09 Max=1.61D-08 NDo=     1
 LinEq1:  Iter= 17 NonCon=     1 RMS=3.05D-10 Max=5.71D-09 NDo=     1
 LinEq1:  Iter= 18 NonCon=     1 RMS=1.35D-10 Max=1.63D-09 NDo=     1
 LinEq1:  Iter= 19 NonCon=     0 RMS=3.31D-11 Max=6.41D-10 NDo=     1
 Linear equations converged to 1.000D-10 1.000D-09 after    19 iterations.
 End of Minotr F.D. properties file   721 does not exist.
 End of Minotr F.D. properties file   722 does not exist.
 End of Minotr F.D. properties file   788 does not exist.

 **********************************************************************

            Population analysis using the CI Density.

 **********************************************************************

 Orbital symmetries:
       Occupied  (A) (A) (A) (A) (A) (A) (A) (A) (A) (A) (A) (A)
                 (A) (A) (A) (A) (A) (A) (A) (A) (A) (A) (A) (A)
                 (A) (A) (A) (A) (A) (A) (A)
       Virtual   (A) (A) (A) (A) (A) (A) (A) (A) (A) (A) (A) (A)
                 (A) (A) (A) (A) (A) (A) (A) (A) (A) (A) (A) (A)
                 (A) (A) (A) (A) (A) (A) (A) (A) (A) (A) (A) (A)
                 (A) (A) (A) (A) (A) (A) (A) (A) (A) (A) (A) (A)
                 (A) (A) (A) (A) (A) (A) (A) (A) (A) (A) (A) (A)
                 (A) (A) (A) (A) (A) (A) (A) (A) (A) (A) (A) (A)
                 (A) (A) (A) (A) (A) (A) (A) (A) (A) (A) (A) (A)
                 (A) (A) (A) (A) (A) (A) (A) (A) (A) (A) (A) (A)
                 (A) (A) (A) (A) (A) (A) (A) (A) (A) (A) (A) (A)
                 (A) (A) (A) (A) (A) (A) (A) (A) (A) (A) (A) (A)
                 (A) (A) (A) (A) (A) (A) (A) (A) (A) (A) (A) (A)
                 (A) (A) (A) (A) (A) (A) (A) (A) (A) (A) (A) (A)
                 (A) (A) (A) (A) (A) (A) (A) (A) (A) (A)
 The electronic state is 1-A.
 Alpha  occ. eigenvalues --  -14.30559 -10.19620 -10.19317 -10.16258 -10.15821
 Alpha  occ. eigenvalues --  -10.15796 -10.15679 -10.15155 -10.14758  -1.15497
 Alpha  occ. eigenvalues --   -1.01601  -0.95286  -0.90185  -0.88282  -0.78068
 Alpha  occ. eigenvalues --   -0.74690  -0.73457  -0.68893  -0.62382  -0.61379
 Alpha  occ. eigenvalues --   -0.57417  -0.57273  -0.56714  -0.54676  -0.52401
 Alpha  occ. eigenvalues --   -0.48377  -0.47186  -0.46087  -0.40131  -0.32614
 Alpha  occ. eigenvalues --   -0.30858
 Alpha virt. eigenvalues --    0.04614   0.06012   0.06381   0.06813   0.08113
 Alpha virt. eigenvalues --    0.08441   0.10018   0.10584   0.10709   0.10954
 Alpha virt. eigenvalues --    0.11688   0.11721   0.13564   0.14797   0.14864
 Alpha virt. eigenvalues --    0.15055   0.16608   0.17859   0.19370   0.19452
 Alpha virt. eigenvalues --    0.20546   0.21344   0.21777   0.22766   0.22959
 Alpha virt. eigenvalues --    0.24333   0.24359   0.24761   0.26105   0.26498
 Alpha virt. eigenvalues --    0.27345   0.27714   0.28345   0.29043   0.29787
 Alpha virt. eigenvalues --    0.30680   0.30984   0.32128   0.32689   0.32885
 Alpha virt. eigenvalues --    0.34492   0.34997   0.37158   0.37900   0.39934
 Alpha virt. eigenvalues --    0.40717   0.41314   0.42281   0.44735   0.47159
 Alpha virt. eigenvalues --    0.47984   0.51017   0.55672   0.56537   0.62997
 Alpha virt. eigenvalues --    0.70456   0.75269   0.78300   0.78674   0.81092
 Alpha virt. eigenvalues --    0.83096   0.83244   0.84913   0.84983   0.86209
 Alpha virt. eigenvalues --    0.86664   0.87691   0.89192   0.90778   0.91856
 Alpha virt. eigenvalues --    0.93578   0.97026   1.01009   1.01879   1.03087
 Alpha virt. eigenvalues --    1.05615   1.06394   1.07386   1.08085   1.10419
 Alpha virt. eigenvalues --    1.12464   1.14946   1.16631   1.18596   1.21701
 Alpha virt. eigenvalues --    1.23753   1.24575   1.29458   1.31008   1.33565
 Alpha virt. eigenvalues --    1.34855   1.38334   1.38485   1.45038   1.47164
 Alpha virt. eigenvalues --    1.49187   1.50103   1.55011   1.56740   1.58539
 Alpha virt. eigenvalues --    1.61433   1.61788   1.65136   1.65833   1.66757
 Alpha virt. eigenvalues --    1.72443   1.78971   1.93585   1.99293   2.03438
 Alpha virt. eigenvalues --    2.04672   2.06676   2.08878   2.14753   2.14993
 Alpha virt. eigenvalues --    2.16207   2.21565   2.25191   2.29192   2.32461
 Alpha virt. eigenvalues --    2.33132   2.34921   2.40730   2.41868   2.42374
 Alpha virt. eigenvalues --    2.43487   2.46325   2.53998   2.56795   2.59624
 Alpha virt. eigenvalues --    2.69807   2.71983   2.78527   2.80633   2.83000
 Alpha virt. eigenvalues --    2.85060   2.88490   2.95938   2.99486   3.00867
 Alpha virt. eigenvalues --    3.10463   3.12659   3.26891   3.39225   3.60135
 Alpha virt. eigenvalues --    4.27429   4.38182   4.41129   4.44608   4.48296
 Alpha virt. eigenvalues --    4.52060   4.60310   4.64313   4.91492
          Condensed to atoms (all electrons):
               1          2          3          4          5          6
     1  C    5.572296   0.508466   0.159521  -0.541514  -0.095641  -0.090831
     2  C    0.508466   5.970757  -0.483426   0.578465  -0.605984   0.442361
     3  C    0.159521  -0.483426  13.981112  -3.841061  -3.057189  -2.396800
     4  C   -0.541514   0.578465  -3.841061  13.789403  -2.164694  -0.920854
     5  C   -0.095641  -0.605984  -3.057189  -2.164694  14.720584  -1.399986
     6  C   -0.090831   0.442361  -2.396800  -0.920854  -1.399986  12.824004
     7  N   -0.005025   0.003994  -0.395504  -0.281459   0.605967   0.078572
     8  C    0.233220  -0.301764   3.384017   0.308148  -5.320957  -2.830745
     9  C   -0.095073   0.044573  -1.296589  -0.242355   2.025703   0.870885
    10  H   -0.002857  -0.009487  -0.130738  -0.087965   0.177583   0.034157
    11  H   -0.000222   0.000213   0.009823   0.095837  -0.085069  -0.069920
    12  H    0.000336   0.000597   0.015421   0.060268  -0.027281  -0.022175
    13  H   -0.038875   0.338824  -0.056410   0.042330  -0.009643   0.033461
    14  H    0.026475   0.003403   0.296720  -0.031497   0.022609  -0.020911
    15  H    0.347638  -0.038258   0.028209  -0.019342   0.040801  -0.048738
    16  H   -0.032838   0.027162  -0.052257   0.066409   0.044577   0.310494
               7          8          9         10         11         12
     1  C   -0.005025   0.233220  -0.095073  -0.002857  -0.000222   0.000336
     2  C    0.003994  -0.301764   0.044573  -0.009487   0.000213   0.000597
     3  C   -0.395504   3.384017  -1.296589  -0.130738   0.009823   0.015421
     4  C   -0.281459   0.308148  -0.242355  -0.087965   0.095837   0.060268
     5  C    0.605967  -5.320957   2.025703   0.177583  -0.085069  -0.027281
     6  C    0.078572  -2.830745   0.870885   0.034157  -0.069920  -0.022175
     7  N    7.245649  -0.487225   0.472828   0.286526   0.006851  -0.052552
     8  C   -0.487225  13.131236  -2.633919  -0.009218   0.422555  -0.049516
     9  C    0.472828  -2.633919   6.890283  -0.019507  -0.076915   0.387855
    10  H    0.286526  -0.009218  -0.019507   0.325843  -0.000074  -0.002444
    11  H    0.006851   0.422555  -0.076915  -0.000074   0.473457  -0.000615
    12  H   -0.052552  -0.049516   0.387855  -0.002444  -0.000615   0.465809
    13  H   -0.000438  -0.002621   0.001572  -0.000001   0.000000  -0.000000
    14  H   -0.002153  -0.012651   0.011975   0.001624   0.000001   0.000003
    15  H    0.000185  -0.001401   0.000359  -0.000000  -0.000002  -0.000000
    16  H   -0.000869  -0.074141   0.006170   0.000003   0.001316  -0.000001
              13         14         15         16
     1  C   -0.038875   0.026475   0.347638  -0.032838
     2  C    0.338824   0.003403  -0.038258   0.027162
     3  C   -0.056410   0.296720   0.028209  -0.052257
     4  C    0.042330  -0.031497  -0.019342   0.066409
     5  C   -0.009643   0.022609   0.040801   0.044577
     6  C    0.033461  -0.020911  -0.048738   0.310494
     7  N   -0.000438  -0.002153   0.000185  -0.000869
     8  C   -0.002621  -0.012651  -0.001401  -0.074141
     9  C    0.001572   0.011975   0.000359   0.006170
    10  H   -0.000001   0.001624  -0.000000   0.000003
    11  H    0.000000   0.000001  -0.000002   0.001316
    12  H   -0.000000   0.000003  -0.000000  -0.000001
    13  H    0.510558  -0.003858  -0.004124  -0.000140
    14  H   -0.003858   0.516585  -0.000141   0.000016
    15  H   -0.004124  -0.000141   0.513918  -0.003931
    16  H   -0.000140   0.000016  -0.003931   0.515134
 Mulliken charges:
               1
     1  C    0.054922
     2  C   -0.479895
     3  C   -0.164848
     4  C   -0.810120
     5  C    1.128619
     6  C   -0.792973
     7  N   -0.475348
     8  C    0.244984
     9  C   -0.347843
    10  H    0.436556
    11  H    0.222761
    12  H    0.224295
    13  H    0.189366
    14  H    0.191799
    15  H    0.184829
    16  H    0.192896
 Sum of Mulliken charges =  -0.00000
 Mulliken charges with hydrogens summed into heavy atoms:
               1
     1  C    0.239751
     2  C   -0.290529
     3  C    0.026951
     4  C   -0.810120
     5  C    1.128619
     6  C   -0.600078
     7  N   -0.038791
     8  C    0.467745
     9  C   -0.123549
 Electronic spatial extent (au):  <R**2>=           1008.6680
 Charge=             -0.0000 electrons
 Dipole moment (field-independent basis, Debye):
    X=              3.3635    Y=             -1.4959    Z=             -0.0010  Tot=              3.6812
 Quadrupole moment (field-independent basis, Debye-Ang):
   XX=            -46.3609   YY=            -46.1264   ZZ=            -60.8180
   XY=             -2.2766   XZ=             -0.0008   YZ=             -0.0007
 Traceless Quadrupole moment (field-independent basis, Debye-Ang):
   XX=              4.7409   YY=              4.9754   ZZ=             -9.7163
   XY=             -2.2766   XZ=             -0.0008   YZ=             -0.0007
 Octapole moment (field-independent basis, Debye-Ang**2):
  XXX=             23.3647  YYY=            -10.3302  ZZZ=             -0.0153  XYY=             13.4185
  XXY=             -6.6744  XXZ=             -0.0040  XZZ=              3.8096  YZZ=             -1.3573
  YYZ=             -0.0074  XYZ=             -0.0024
 Hexadecapole moment (field-independent basis, Debye-Ang**3):
 XXXX=           -857.2543 YYYY=           -392.6920 ZZZZ=            -89.6382 XXXY=            -17.3744
 XXXZ=             -0.0207 YYYX=            -15.6003 YYYZ=              0.0038 ZZZX=             -0.0174
 ZZZY=              0.0119 XXYY=           -197.6452 XXZZ=           -203.8290 YYZZ=           -103.8386
 XXYZ=             -0.0021 YYXZ=              0.0023 ZZXY=             -1.7855
 N-N= 4.013368668897D+02 E-N=-1.644002380293D+03  KE= 3.596847373208D+02
 Calling FoFJK, ICntrl=  10005127 FMM=F ISym2X=0 I1Cent= 0 IOpClX= 0 NMat=1 NMatS=1 NMatT=0.
 ***** Axes restored to original set *****
 -------------------------------------------------------------------
 Center     Atomic                   Forces (Hartrees/Bohr)
 Number     Number              X              Y              Z
 -------------------------------------------------------------------
      1        6          -0.015671520   -0.033350796   -0.000004596
      2        6          -0.036994107    0.045934007    0.000000431
      3        6           0.050987527   -0.019194563    0.000010717
      4        6          -0.015463714    0.000851618   -0.000018882
      5        6           0.039875142   -0.003297475   -0.000029174
      6        6          -0.000310680    0.024469792    0.000002080
      7        7           0.014277837    0.029346416    0.000054120
      8        6          -0.055737116    0.010843635    0.000026902
      9        6           0.015131021   -0.051683241   -0.000046534
     10        1           0.002581780   -0.006239223    0.000000660
     11        1           0.001277967    0.003040950    0.000004992
     12        1           0.003037975   -0.000567561   -0.000000995
     13        1          -0.002076498   -0.000787743    0.000000285
     14        1           0.000668673   -0.001985555   -0.000004091
     15        1          -0.001838895    0.000604722    0.000001431
     16        1           0.000254607    0.002015017    0.000002655
 -------------------------------------------------------------------
 Cartesian Forces:  Max     0.055737116 RMS     0.019103206

 GradGradGradGradGradGradGradGradGradGradGradGradGradGradGradGradGradGrad
 Berny optimization.
 FormGI is forming the generalized inverse of G from B-inverse, IUseBI=4.
 Internal  Forces:  Max     0.047036747 RMS     0.009149705
 Search for a local minimum.
 Step number   1 out of a maximum of   94
 All quantities printed in internal units (Hartrees-Bohrs-Radians)
 Mixed Optimization -- RFO/linear search
 Second derivative matrix not updated -- first step.
 ITU=  0
     Eigenvalues ---    0.01853   0.01931   0.01986   0.02012   0.02070
     Eigenvalues ---    0.02113   0.02148   0.02153   0.02172   0.02209
     Eigenvalues ---    0.02233   0.02248   0.02338   0.16000   0.16000
     Eigenvalues ---    0.16000   0.16000   0.16000   0.16000   0.16000
     Eigenvalues ---    0.22000   0.22188   0.22662   0.24011   0.24651
     Eigenvalues ---    0.35712   0.35717   0.35783   0.35790   0.36420
     Eigenvalues ---    0.36427   0.37009   0.38432   0.42633   0.43465
     Eigenvalues ---    0.45769   0.46692   0.47162   0.47468   0.47567
     Eigenvalues ---    0.48125   0.50955
 RFO step:  Lambda=-1.49339763D-02 EMin= 1.85287394D-02
 Linear search not attempted -- first point.
 Iteration  1 RMS(Cart)=  0.02369562 RMS(Int)=  0.00016035
 Iteration  2 RMS(Cart)=  0.00014158 RMS(Int)=  0.00007232
 Iteration  3 RMS(Cart)=  0.00000003 RMS(Int)=  0.00007232
 Variable       Old X    -DE/DX   Delta X   Delta X   Delta X     New X
                                 (Linear)    (Quad)   (Total)
    R1        2.65547  -0.02010   0.00000  -0.04217  -0.04216   2.61332
    R2        2.61291   0.02089   0.00000   0.04268   0.04270   2.65561
    R3        2.04421   0.00191   0.00000   0.00511   0.00511   2.04933
    R4        2.61557   0.04704   0.00000   0.09457   0.09456   2.71013
    R5        2.04411   0.00219   0.00000   0.00587   0.00587   2.04999
    R6        2.63373  -0.01204   0.00000  -0.02604  -0.02605   2.60768
    R7        2.04534   0.00199   0.00000   0.00536   0.00536   2.05070
    R8        2.68058  -0.00122   0.00000  -0.00653  -0.00668   2.67389
    R9        2.60126   0.00743   0.00000   0.01313   0.01322   2.61448
   R10        2.64771   0.02138   0.00000   0.04537   0.04537   2.69307
   R11        2.70839  -0.02842   0.00000  -0.06743  -0.06761   2.64078
   R12        2.04526   0.00201   0.00000   0.00539   0.00539   2.05066
   R13        2.60573  -0.02742   0.00000  -0.05276  -0.05256   2.55316
   R14        1.89542   0.00673   0.00000   0.01384   0.01384   1.90926
   R15        2.57870   0.03710   0.00000   0.07140   0.07144   2.65014
   R16        2.03419   0.00330   0.00000   0.00869   0.00869   2.04288
   R17        2.03430   0.00308   0.00000   0.00813   0.00813   2.04243
    A1        2.11420  -0.00089   0.00000   0.00012   0.00011   2.11431
    A2        2.07986   0.00010   0.00000  -0.00203  -0.00202   2.07783
    A3        2.08912   0.00079   0.00000   0.00191   0.00191   2.09104
    A4        2.11523   0.00105   0.00000   0.00667   0.00664   2.12187
    A5        2.08365  -0.00090   0.00000  -0.00549  -0.00548   2.07818
    A6        2.08430  -0.00015   0.00000  -0.00118  -0.00117   2.08313
    A7        2.05144  -0.00146   0.00000  -0.00867  -0.00871   2.04273
    A8        2.11267   0.00139   0.00000   0.00808   0.00810   2.12077
    A9        2.11908   0.00007   0.00000   0.00059   0.00061   2.11969
   A10        2.13389   0.00159   0.00000   0.00488   0.00486   2.13875
   A11        2.27895  -0.00486   0.00000  -0.01238  -0.01233   2.26662
   A12        1.87035   0.00327   0.00000   0.00750   0.00747   1.87781
   A13        2.07274   0.00379   0.00000   0.01331   0.01342   2.08617
   A14        1.86517  -0.00267   0.00000  -0.01293  -0.01322   1.85195
   A15        2.34527  -0.00112   0.00000  -0.00038  -0.00020   2.34507
   A16        2.07887  -0.00408   0.00000  -0.01631  -0.01633   2.06254
   A17        2.10306   0.00236   0.00000   0.00997   0.00998   2.11304
   A18        2.10125   0.00172   0.00000   0.00634   0.00635   2.10760
   A19        1.90743   0.00339   0.00000   0.01299   0.01324   1.92067
   A20        2.19023  -0.00123   0.00000  -0.00381  -0.00394   2.18629
   A21        2.18553  -0.00216   0.00000  -0.00918  -0.00930   2.17623
   A22        1.86968   0.00576   0.00000   0.02828   0.02814   1.89783
   A23        2.21717  -0.00273   0.00000  -0.01328  -0.01321   2.20396
   A24        2.19633  -0.00303   0.00000  -0.01500  -0.01493   2.18140
   A25        1.91215  -0.00975   0.00000  -0.03584  -0.03563   1.87652
   A26        2.10250   0.00463   0.00000   0.01650   0.01639   2.11889
   A27        2.26854   0.00513   0.00000   0.01934   0.01924   2.28778
    D1       -0.00001   0.00000   0.00000   0.00001   0.00001  -0.00001
    D2       -3.14156  -0.00000   0.00000  -0.00003  -0.00004   3.14159
    D3        3.14152   0.00000   0.00000   0.00007   0.00007  -3.14159
    D4       -0.00002   0.00000   0.00000   0.00003   0.00003   0.00001
    D5       -0.00003   0.00000   0.00000   0.00008   0.00008   0.00005
    D6        3.14153   0.00000   0.00000   0.00008   0.00008  -3.14157
    D7       -3.14157   0.00000   0.00000   0.00002   0.00001  -3.14155
    D8       -0.00001   0.00000   0.00000   0.00002   0.00002   0.00001
    D9        0.00003  -0.00000   0.00000  -0.00008  -0.00008  -0.00005
   D10       -3.14154  -0.00000   0.00000   0.00001   0.00001  -3.14153
   D11        3.14158  -0.00000   0.00000  -0.00004  -0.00004   3.14154
   D12        0.00001   0.00000   0.00000   0.00005   0.00005   0.00006
   D13       -0.00001   0.00000   0.00000   0.00007   0.00007   0.00007
   D14       -3.14144  -0.00000   0.00000  -0.00002  -0.00002  -3.14146
   D15        3.14156  -0.00000   0.00000  -0.00002  -0.00002   3.14154
   D16        0.00013  -0.00000   0.00000  -0.00011  -0.00011   0.00002
   D17       -0.00004   0.00000   0.00000   0.00001   0.00001  -0.00002
   D18       -3.14151  -0.00000   0.00000  -0.00010  -0.00011   3.14157
   D19        3.14143   0.00000   0.00000   0.00008   0.00008   3.14151
   D20       -0.00005   0.00000   0.00000  -0.00003  -0.00003  -0.00008
   D21       -3.14124  -0.00000   0.00000  -0.00021  -0.00022  -3.14147
   D22       -0.00113   0.00001   0.00000   0.00017   0.00016  -0.00097
   D23        0.00049  -0.00001   0.00000  -0.00029  -0.00031   0.00019
   D24        3.14060   0.00001   0.00000   0.00008   0.00008   3.14068
   D25        0.00005  -0.00000   0.00000  -0.00009  -0.00009  -0.00003
   D26       -3.14151  -0.00000   0.00000  -0.00009  -0.00009   3.14159
   D27        3.14150   0.00000   0.00000   0.00006   0.00007   3.14156
   D28       -0.00007   0.00000   0.00000   0.00006   0.00006  -0.00000
   D29       -0.00041   0.00001   0.00000   0.00036   0.00036  -0.00004
   D30        3.14139   0.00001   0.00000   0.00009   0.00009   3.14148
   D31        3.14132   0.00001   0.00000   0.00022   0.00022   3.14154
   D32       -0.00006   0.00000   0.00000  -0.00005  -0.00005  -0.00012
   D33       -0.00077   0.00002   0.00000   0.00057   0.00056  -0.00022
   D34        3.14133   0.00001   0.00000   0.00021   0.00021   3.14153
   D35       -3.14089   0.00001   0.00000   0.00019   0.00018  -3.14071
   D36        0.00121  -0.00000   0.00000  -0.00017  -0.00017   0.00104
   D37        0.00072  -0.00002   0.00000  -0.00056  -0.00056   0.00016
   D38       -3.14144  -0.00000   0.00000  -0.00016  -0.00017   3.14157
   D39       -3.14107  -0.00001   0.00000  -0.00029  -0.00029  -3.14136
   D40       -0.00005   0.00001   0.00000   0.00011   0.00010   0.00005
         Item               Value     Threshold  Converged?
 Maximum Force            0.047037     0.000450     NO 
 RMS     Force            0.009150     0.000300     NO 
 Maximum Displacement     0.080971     0.001800     NO 
 RMS     Displacement     0.023690     0.001200     NO 
 Predicted change in Energy=-7.712223D-03
 GradGradGradGradGradGradGradGradGradGradGradGradGradGradGradGradGradGrad

                          Input orientation:                          
 ---------------------------------------------------------------------
 Center     Atomic      Atomic             Coordinates (Angstroms)
 Number     Number       Type             X           Y           Z
 ---------------------------------------------------------------------
      1          6           0       -2.175442    0.690599    0.000007
      2          6           0       -2.140734   -0.691872    0.000024
      3          6           0       -0.900441   -1.411896    0.000053
      4          6           0        0.259163   -0.663893    0.000004
      5          6           0        0.252178    0.751054    0.000005
      6          6           0       -0.991281    1.447300    0.000029
      7          7           0        1.580040   -1.075502   -0.000129
      8          6           0        1.592818    1.145420   -0.000015
      9          6           0        2.399791   -0.001531    0.000030
     10          1           0        1.891535   -2.036624    0.000591
     11          1           0        1.960528    2.162005   -0.000120
     12          1           0        3.474775   -0.113576    0.000016
     13          1           0       -3.075348   -1.242600    0.000008
     14          1           0       -0.874404   -2.496767    0.000005
     15          1           0       -3.136378    1.193243   -0.000011
     16          1           0       -1.019897    2.532085    0.000038
 ---------------------------------------------------------------------
                    Distance matrix (angstroms):
                    1          2          3          4          5
     1  C    0.000000
     2  C    1.382907   0.000000
     3  C    2.458885   1.434141   0.000000
     4  C    2.786028   2.400060   1.379924   0.000000
     5  C    2.428372   2.794291   2.450894   1.414964   0.000000
     6  C    1.405288   2.428436   2.860639   2.453721   1.425113
     7  N    4.150031   3.740499   2.503187   1.383524   2.258213
     8  C    3.795608   4.161136   3.571582   2.247720   1.397441
     9  C    4.627288   4.592705   3.588963   2.240761   2.275659
    10  H    4.896738   4.250594   2.861016   2.132845   3.233982
    11  H    4.389906   4.996495   4.577981   3.298536   2.215681
    12  H    5.707157   5.645208   4.563787   3.262362   3.336573
    13  H    2.132391   1.084807   2.181487   3.384357   3.879057
    14  H    3.442674   2.204821   1.085184   2.155087   3.437663
    15  H    1.084458   2.131893   3.433098   3.870226   3.417285
    16  H    2.174018   3.413235   3.945789   3.442422   2.188663
                    6          7          8          9         10
     6  C    0.000000
     7  N    3.602253   0.000000
     8  C    2.601672   2.220959   0.000000
     9  C    3.687611   1.351076   1.402391   0.000000
    10  H    4.521985   1.010339   3.196034   2.097601   0.000000
    11  H    3.037100   3.259789   1.081045   2.207678   4.199196
    12  H    4.730960   2.124929   2.264251   1.080808   2.490937
    13  H    3.402779   4.658387   5.243511   5.614036   5.029950
    14  H    3.945799   2.836246   4.399171   4.116619   2.803952
    15  H    2.160090   5.233718   4.729437   5.663625   5.975947
    16  H    1.085162   4.446837   2.957891   4.255992   5.417521
                   11         12         13         14         15
    11  H    0.000000
    12  H    2.733352   0.000000
    13  H    6.078765   6.646714   0.000000
    14  H    5.453531   4.959331   2.533198   0.000000
    15  H    5.188154   6.739074   2.436607   4.328129   0.000000
    16  H    3.003313   5.215515   4.298037   5.030956   2.504394
                   16
    16  H    0.000000
 Stoichiometry    C8H7N
 Framework group  C1[X(C8H7N)]
 Deg. of freedom    42
 Full point group                 C1      NOp   1
 Largest Abelian subgroup         C1      NOp   1
 Largest concise Abelian subgroup C1      NOp   1
                         Standard orientation:                         
 ---------------------------------------------------------------------
 Center     Atomic      Atomic             Coordinates (Angstroms)
 Number     Number       Type             X           Y           Z
 ---------------------------------------------------------------------
      1          6           0       -2.191873    0.638635    0.000000
      2          6           0       -2.124903   -0.742650    0.000016
      3          6           0       -0.868140   -1.433525    0.000046
      4          6           0        0.273687   -0.658657   -0.000004
      5          6           0        0.233674    0.755741   -0.000002
      6          6           0       -1.025698    1.422772    0.000022
      7          7           0        1.603812   -1.039320   -0.000136
      8          6           0        1.564743    1.181294   -0.000022
      9          6           0        2.398270    0.053494    0.000023
     10          1           0        1.937658   -1.992909    0.000584
     11          1           0        1.908622    2.206187   -0.000127
     12          1           0        3.475576   -0.033427    0.000009
     13          1           0       -3.046407   -1.315044    0.000000
     14          1           0       -0.816786   -2.517493   -0.000002
     15          1           0       -3.164280    1.118710   -0.000019
     16          1           0       -1.079629    2.506593    0.000031
 ---------------------------------------------------------------------
 Rotational constants (GHZ):           3.9157774           1.6281918           1.1500130
 Standard basis: 6-31+G(d) (6D, 7F)
 There are   185 symmetry adapted cartesian basis functions of A   symmetry.
 There are   185 symmetry adapted basis functions of A   symmetry.
   185 basis functions,   316 primitive gaussians,   185 cartesian basis functions
    31 alpha electrons       31 beta electrons
       nuclear repulsion energy       400.3876018999 Hartrees.
 NAtoms=   16 NActive=   16 NUniq=   16 SFac= 1.00D+00 NAtFMM=   60 NAOKFM=F Big=F
 Integral buffers will be    131072 words long.
 Raffenetti 1 integral format.
 Two-electron integral symmetry is turned on.
 One-electron integrals computed using PRISM.
 NBasis=   185 RedAO= T EigKep=  1.19D-06  NBF=   185
 NBsUse=   185 1.00D-06 EigRej= -1.00D+00 NBFU=   185
 Initial guess from the checkpoint file:  "FuncsLC-BLYP-V-2nd.chk"
 B after Tr=     0.000000   -0.000000   -0.000000
         Rot=    0.999937    0.000006    0.000004   -0.011195 Ang=   1.28 deg.
 ExpMin= 4.38D-02 ExpMax= 4.17D+03 ExpMxC= 6.27D+02 IAcc=3 IRadAn=         5 AccDes= 0.00D+00
 Harris functional with IExCor=10402 and IRadAn=       5 diagonalized for initial guess.
 HarFok:  IExCor=10402 AccDes= 0.00D+00 IRadAn=         5 IDoV= 1 UseB2=F ITyADJ=14
 ICtDFT=  3500011 ScaDFX=  1.000000  1.000000  1.000000  1.000000
 FoFCou: FMM=F IPFlag=           0 FMFlag=      100000 FMFlg1=           0
         NFxFlg=           0 DoJE=T BraDBF=F KetDBF=T FulRan=T
         wScrn=  0.000000 ICntrl=       500 IOpCl=  0 I1Cent=   200000004 NGrid=           0
         NMat0=    1 NMatS0=      1 NMatT0=    0 NMatD0=    1 NMtDS0=    0 NMtDT0=    0
 Petite list used in FoFCou.
 Keep R1 ints in memory in canonical form, NReq=303303409.
 Requested convergence on RMS density matrix=1.00D-08 within 128 cycles.
 Requested convergence on MAX density matrix=1.00D-06.
 Requested convergence on             energy=1.00D-06.
 No special actions if energy rises.
 SCF Done:  E(RLC-B+HF-LYP) =  -362.727330612     A.U. after   16 cycles
            NFock= 16  Conv=0.55D-08     -V/T= 2.0092
 DoSCS=F DFT=T ScalE2(SS,OS)=  1.000000  1.000000
 ExpMin= 4.38D-02 ExpMax= 4.17D+03 ExpMxC= 6.27D+02 IAcc=3 IRadAn=         5 AccDes= 0.00D+00
 HarFok:  IExCor=  205 AccDes= 0.00D+00 IRadAn=         5 IDoV=-2 UseB2=F ITyADJ=14
 ICtDFT= 12500011 ScaDFX=  1.000000  1.000000  1.000000  1.000000
 Range of M.O.s used for correlation:    10   185
 NBasis=   185 NAE=    31 NBE=    31 NFC=     9 NFV=     0
 NROrb=    176 NOA=    22 NOB=    22 NVA=   154 NVB=   154

 **** Warning!!: The largest alpha MO coefficient is  0.20959063D+03

 Orbital symmetries:
       Occupied  (A) (A) (A) (A) (A) (A) (A) (A) (A) (A) (A) (A)
                 (A) (A) (A) (A) (A) (A) (A) (A) (A) (A) (A) (A)
                 (A) (A) (A) (A) (A) (A) (A)
       Virtual   (A) (A) (A) (A) (A) (A) (A) (A) (A) (A) (A) (A)
                 (A) (A) (A) (A) (A) (A) (A) (A) (A) (A) (A) (A)
                 (A) (A) (A) (A) (A) (A) (A) (A) (A) (A) (A) (A)
                 (A) (A) (A) (A) (A) (A) (A) (A) (A) (A) (A) (A)
                 (A) (A) (A) (A) (A) (A) (A) (A) (A) (A) (A) (A)
                 (A) (A) (A) (A) (A) (A) (A) (A) (A) (A) (A) (A)
                 (A) (A) (A) (A) (A) (A) (A) (A) (A) (A) (A) (A)
                 (A) (A) (A) (A) (A) (A) (A) (A) (A) (A) (A) (A)
                 (A) (A) (A) (A) (A) (A) (A) (A) (A) (A) (A) (A)
                 (A) (A) (A) (A) (A) (A) (A) (A) (A) (A) (A) (A)
                 (A) (A) (A) (A) (A) (A) (A) (A) (A) (A) (A) (A)
                 (A) (A) (A) (A) (A) (A) (A) (A) (A) (A) (A) (A)
                 (A) (A) (A) (A) (A) (A) (A) (A) (A) (A)
 Generating guess from densities on rwf.
 Convergence on wavefunction:    0.000001000000000
 Iteration     1 Dimension    12 NMult     0 NNew     12
 CISAX will form    12 AO SS matrices at one time.
 New state      1 was old state      2
 New state      2 was old state      1
 New state      4 was old state      6
 New state      6 was old state      4
 Iteration     2 Dimension    24 NMult    12 NNew     12
 Iteration     3 Dimension    36 NMult    24 NNew     12
 Iteration     4 Dimension    48 NMult    36 NNew     12
 Iteration     5 Dimension    60 NMult    48 NNew     12
 No map to state      6
 Iteration     6 Dimension    72 NMult    60 NNew     12
 Iteration     7 Dimension    84 NMult    72 NNew     12
 Iteration     8 Dimension    96 NMult    84 NNew     12
 Iteration     9 Dimension   108 NMult    96 NNew     12
 Iteration    10 Dimension   120 NMult   108 NNew     12
 Iteration    11 Dimension   132 NMult   120 NNew     12
 Iteration    12 Dimension   140 NMult   132 NNew      8
 Iteration    13 Dimension   146 NMult   140 NNew      6
 Iteration    14 Dimension   152 NMult   146 NNew      6
 Iteration    15 Dimension   154 NMult   152 NNew      2
 Iteration    16 Dimension   156 NMult   154 NNew      2
 Iteration    17 Dimension   158 NMult   156 NNew      2
 ***********************************************************************
 Excited states from <AA,BB:AA,BB> singles matrix:
 ***********************************************************************
 
 Ground to excited state transition densities written to RWF  633
 Ground to excited state transition electric dipole moments (Au):
       state          X           Y           Z        Dip. S.      Osc.
         1        -0.2126     -0.3115     -0.0000      0.1422      0.0179
         2        -1.0992      0.7527     -0.0001      1.7747      0.2131
         3         0.0003     -0.0002     -0.1968      0.0387      0.0052
         4        -0.0002     -0.0001     -0.1410      0.0199      0.0030
         5         0.0012      0.0005      0.1259      0.0158      0.0024
         6         1.7460      0.7493      0.0000      3.6099      0.5639
 Ground to excited state transition velocity dipole moments (Au):
       state          X           Y           Z        Dip. S.      Osc.
         1         0.0379      0.0617      0.0000      0.0052      0.0185
         2         0.1838     -0.1439      0.0000      0.0545      0.2017
         3        -0.0000      0.0000      0.0302      0.0009      0.0030
         4         0.0001      0.0000      0.0329      0.0011      0.0032
         5        -0.0003     -0.0001     -0.0280      0.0008      0.0023
         6        -0.3948     -0.1736     -0.0000      0.1860      0.5293
 Ground to excited state transition magnetic dipole moments (Au):
       state          X           Y           Z
         1        -0.0001     -0.0001      0.0194
         2         0.0001     -0.0000      0.0849
         3         0.1460     -0.1570      0.0000
         4         0.2280     -0.5230     -0.0001
         5         0.3734      0.2197      0.0009
         6        -0.0005      0.0001      1.0886
 Ground to excited state transition velocity quadrupole moments (Au):
       state          XX          YY          ZZ          XY          XZ          YZ
         1         0.0031     -0.0795      0.0240      0.0159      0.0000     -0.0000
         2         0.2438     -0.1893      0.0150      0.0257      0.0000     -0.0000
         3        -0.0001      0.0001      0.0001      0.0000      0.1248      0.0605
         4         0.0000     -0.0001     -0.0000     -0.0001      0.4936      0.2483
         5        -0.0001      0.0001      0.0001      0.0006     -0.1291      0.2389
         6        -0.3054      0.2307      0.0521      0.7500     -0.0000     -0.0002
 <0|del|b> * <b|rxdel|0> + <0|del|b> * <b|delr+rdel|0>
 Rotatory Strengths (R) in cgs (10**-40 erg-esu-cm/Gauss)
       state          XX          YY          ZZ    R(velocity)    E-M Angle
         1        -0.0094     -0.0080     -0.0117     -0.0097       90.00
         2         0.0161      0.0192      0.0239      0.0197       90.00
         3        -0.0133     -0.0146     -0.0088     -0.0122       90.00
         4        -0.0530      0.0359     -0.0028     -0.0066       90.00
         5        -0.1202     -0.2586     -0.0685     -0.1491       90.68
         6        -0.0633      0.4278      0.1201      0.1615       89.98
 1/2[<0|r|b>*<b|rxdel|0> + (<0|rxdel|b>*<b|r|0>)*]
 Rotatory Strengths (R) in cgs (10**-40 erg-esu-cm/Gauss)
       state          XX          YY          ZZ     R(length)
         1        -0.0140     -0.0155      0.0003     -0.0097
         2         0.0550      0.0046      0.0044      0.0213
         3        -0.0275     -0.0175      0.0061     -0.0130
         4         0.0377     -0.0462     -0.0143     -0.0076
         5        -0.3123     -0.0754     -0.0798     -0.1558
         6         0.6024     -0.0664     -0.0107      0.1751
  1/2[<0|del|b>*<b|r|0> + (<0|r|b>*<b|del|0>)*] (Au)
       state          X           Y           Z        Dip. S.   Osc.(frdel)
         1        -0.0081     -0.0192     -0.0000      0.0273      0.0182
         2        -0.2020     -0.1083     -0.0000      0.3103      0.2069
         3        -0.0000     -0.0000     -0.0059      0.0059      0.0040
         4        -0.0000     -0.0000     -0.0046      0.0046      0.0031
         5        -0.0000     -0.0000     -0.0035      0.0035      0.0024
         6        -0.6894     -0.1301     -0.0000      0.8195      0.5463

 Excitation energies and oscillator strengths:
 
 Excited State   1:      Singlet-A      5.1457 eV  240.95 nm  f=0.0179  <S**2>=0.000
      30 -> 33         0.54989
      31 -> 38        -0.36428
      31 -> 43         0.10768
 
 Excited State   2:      Singlet-A      4.9014 eV  252.96 nm  f=0.2131  <S**2>=0.000
      30 -> 38         0.15027
      31 -> 33         0.67111
 This state for optimization and/or second-order correction.
 Total Energy, E(TD-HF/TD-DFT) =  -362.547207730    
 Copying the excited state density for this state as the 1-particle RhoCI density.
 
 Excited State   3:      Singlet-A      5.5215 eV  224.55 nm  f=0.0052  <S**2>=0.000
      29 -> 32         0.10577
      31 -> 32         0.66135
      31 -> 40         0.12287
 
 Excited State   4:      Singlet-A      6.1776 eV  200.70 nm  f=0.0030  <S**2>=0.000
      30 -> 32         0.13722
      31 -> 34         0.57065
      31 -> 35        -0.30578
 
 Excited State   5:      Singlet-A      6.2414 eV  198.65 nm  f=0.0024  <S**2>=0.000
      31 -> 32         0.10210
      31 -> 34         0.29225
      31 -> 35         0.54083
      31 -> 36         0.15359
      31 -> 40        -0.10560
      31 -> 42         0.17815
 
 Excited State   6:      Singlet-A      6.3762 eV  194.45 nm  f=0.5639  <S**2>=0.000
      30 -> 33        -0.35994
      31 -> 38        -0.54402
      31 -> 39        -0.17060
 SavETr:  write IOETrn=   770 NScale= 10 NData=  16 NLR=1 NState=    6 LETran=     118.
          IDoAtm=1111111111111111
          Differentiating once with respect to electric field.
                with respect to dipole field.
          Differentiating once with respect to nuclear coordinates.
 Keep R1 ints in memory in canonical form, NReq=303315801.
          There are     1 degrees of freedom in the 1st order CPHF.  IDoFFX=0 NUNeed=     1.
 LinEq1:  Iter=  0 NonCon=     1 RMS=4.02D-03 Max=6.78D-02 NDo=     1
 AX will form     1 AO Fock derivatives at one time.
 LinEq1:  Iter=  1 NonCon=     1 RMS=1.94D-03 Max=5.58D-02 NDo=     1
 LinEq1:  Iter=  2 NonCon=     1 RMS=6.19D-04 Max=1.08D-02 NDo=     1
 LinEq1:  Iter=  3 NonCon=     1 RMS=3.79D-04 Max=1.33D-02 NDo=     1
 LinEq1:  Iter=  4 NonCon=     1 RMS=1.49D-04 Max=4.10D-03 NDo=     1
 LinEq1:  Iter=  5 NonCon=     1 RMS=6.41D-05 Max=1.72D-03 NDo=     1
 LinEq1:  Iter=  6 NonCon=     1 RMS=2.90D-05 Max=7.57D-04 NDo=     1
 LinEq1:  Iter=  7 NonCon=     1 RMS=1.32D-05 Max=2.60D-04 NDo=     1
 LinEq1:  Iter=  8 NonCon=     1 RMS=5.60D-06 Max=1.46D-04 NDo=     1
 LinEq1:  Iter=  9 NonCon=     1 RMS=1.90D-06 Max=3.33D-05 NDo=     1
 LinEq1:  Iter= 10 NonCon=     1 RMS=9.46D-07 Max=2.07D-05 NDo=     1
 LinEq1:  Iter= 11 NonCon=     1 RMS=3.02D-07 Max=7.41D-06 NDo=     1
 LinEq1:  Iter= 12 NonCon=     1 RMS=1.31D-07 Max=2.50D-06 NDo=     1
 LinEq1:  Iter= 13 NonCon=     1 RMS=4.88D-08 Max=1.13D-06 NDo=     1
 LinEq1:  Iter= 14 NonCon=     1 RMS=1.34D-08 Max=2.59D-07 NDo=     1
 LinEq1:  Iter= 15 NonCon=     1 RMS=6.12D-09 Max=9.72D-08 NDo=     1
 LinEq1:  Iter= 16 NonCon=     1 RMS=1.56D-09 Max=2.20D-08 NDo=     1
 LinEq1:  Iter= 17 NonCon=     1 RMS=3.77D-10 Max=7.15D-09 NDo=     1
 LinEq1:  Iter= 18 NonCon=     1 RMS=1.82D-10 Max=2.38D-09 NDo=     1
 LinEq1:  Iter= 19 NonCon=     0 RMS=4.54D-11 Max=7.31D-10 NDo=     1
 Linear equations converged to 1.000D-10 1.000D-09 after    19 iterations.
 End of Minotr F.D. properties file   721 does not exist.
 End of Minotr F.D. properties file   722 does not exist.
 End of Minotr F.D. properties file   788 does not exist.
 Calling FoFJK, ICntrl=  10005127 FMM=F ISym2X=0 I1Cent= 0 IOpClX= 0 NMat=1 NMatS=1 NMatT=0.
 ***** Axes restored to original set *****
 -------------------------------------------------------------------
 Center     Atomic                   Forces (Hartrees/Bohr)
 Number     Number              X              Y              Z
 -------------------------------------------------------------------
      1        6           0.002029321   -0.011544429    0.000000003
      2        6          -0.008394638    0.015335439    0.000000332
      3        6           0.015061831   -0.007189509    0.000001595
      4        6          -0.015545771   -0.001542523   -0.000004703
      5        6           0.015343166   -0.004366738   -0.000002975
      6        6          -0.003433000    0.006764702   -0.000000635
      7        7           0.006750931    0.009354597    0.000029199
      8        6          -0.015640856    0.010243624   -0.000006740
      9        6           0.003787905   -0.016920624   -0.000008527
     10        1          -0.000960748   -0.000643093   -0.000013705
     11        1           0.001341625    0.000190451    0.000003051
     12        1          -0.000488487    0.001276377    0.000002480
     13        1           0.000823012   -0.001419570    0.000000117
     14        1          -0.001530587    0.000471875   -0.000000841
     15        1           0.000286653    0.000692843    0.000000003
     16        1           0.000569641   -0.000703423    0.000001346
 -------------------------------------------------------------------
 Cartesian Forces:  Max     0.016920624 RMS     0.006571169

 GradGradGradGradGradGradGradGradGradGradGradGradGradGradGradGradGradGrad
 Berny optimization.
 Using GEDIIS/GDIIS optimizer.
 FormGI is forming the generalized inverse of G from B-inverse, IUseBI=4.
 Internal  Forces:  Max     0.010379978 RMS     0.002506341
 Search for a local minimum.
 Step number   2 out of a maximum of   94
 All quantities printed in internal units (Hartrees-Bohrs-Radians)
 Mixed Optimization -- RFO/linear search
 Update second derivatives using D2CorX and points    1    2
 DE= -9.19D-03 DEPred=-7.71D-03 R= 1.19D+00
 TightC=F SS=  1.41D+00  RLast= 1.82D-01 DXNew= 5.0454D-01 5.4483D-01
 Trust test= 1.19D+00 RLast= 1.82D-01 DXMaxT set to 5.05D-01
 ITU=  1  0
 Use linear search instead of GDIIS.
     Eigenvalues ---    0.01853   0.01931   0.01986   0.02011   0.02070
     Eigenvalues ---    0.02113   0.02148   0.02154   0.02172   0.02210
     Eigenvalues ---    0.02233   0.02248   0.02339   0.15887   0.16000
     Eigenvalues ---    0.16000   0.16000   0.16000   0.16000   0.16015
     Eigenvalues ---    0.20949   0.22011   0.22754   0.24468   0.24703
     Eigenvalues ---    0.35297   0.35714   0.35786   0.35797   0.35969
     Eigenvalues ---    0.36448   0.36564   0.37473   0.40590   0.43055
     Eigenvalues ---    0.44168   0.46375   0.46824   0.47206   0.47561
     Eigenvalues ---    0.49171   0.50277
 RFO step:  Lambda=-1.13252753D-03 EMin= 1.85340887D-02
 Quartic linear search produced a step of  0.24931.
 Iteration  1 RMS(Cart)=  0.00709698 RMS(Int)=  0.00004903
 Iteration  2 RMS(Cart)=  0.00007856 RMS(Int)=  0.00002324
 Iteration  3 RMS(Cart)=  0.00000000 RMS(Int)=  0.00002324
 Variable       Old X    -DE/DX   Delta X   Delta X   Delta X     New X
                                 (Linear)    (Quad)   (Total)
    R1        2.61332  -0.00769  -0.01051  -0.01328  -0.02382   2.58949
    R2        2.65561   0.00104   0.01064  -0.00576   0.00487   2.66048
    R3        2.04933   0.00007   0.00127  -0.00081   0.00047   2.04980
    R4        2.71013   0.00839   0.02358   0.00306   0.02662   2.73675
    R5        2.04999   0.00001   0.00146  -0.00115   0.00031   2.05030
    R6        2.60768  -0.00602  -0.00650  -0.01088  -0.01736   2.59032
    R7        2.05070  -0.00051   0.00134  -0.00286  -0.00153   2.04917
    R8        2.67389   0.00019  -0.00167   0.00150  -0.00012   2.67377
    R9        2.61448   0.00276   0.00330   0.00368   0.00703   2.62151
   R10        2.69307   0.00319   0.01131  -0.00008   0.01125   2.70432
   R11        2.64078  -0.00783  -0.01686  -0.01007  -0.02697   2.61381
   R12        2.05066  -0.00072   0.00134  -0.00360  -0.00226   2.04840
   R13        2.55316  -0.00692  -0.01310  -0.00718  -0.02027   2.53289
   R14        1.90926   0.00032   0.00345  -0.00188   0.00157   1.91084
   R15        2.65014   0.01038   0.01781   0.01172   0.02949   2.67962
   R16        2.04288   0.00064   0.00217   0.00041   0.00258   2.04545
   R17        2.04243  -0.00062   0.00203  -0.00376  -0.00174   2.04069
    A1        2.11431   0.00240   0.00003   0.01308   0.01307   2.12738
    A2        2.07783  -0.00043  -0.00050  -0.00013  -0.00062   2.07722
    A3        2.09104  -0.00196   0.00048  -0.01295  -0.01245   2.07859
    A4        2.12187   0.00073   0.00166   0.00217   0.00378   2.12565
    A5        2.07818   0.00132  -0.00136   0.01248   0.01113   2.08931
    A6        2.08313  -0.00205  -0.00029  -0.01464  -0.01491   2.06822
    A7        2.04273  -0.00347  -0.00217  -0.01748  -0.01965   2.02308
    A8        2.12077   0.00018   0.00202  -0.00424  -0.00222   2.11855
    A9        2.11969   0.00329   0.00015   0.02172   0.02187   2.14156
   A10        2.13875   0.00396   0.00121   0.02025   0.02147   2.16022
   A11        2.26662  -0.00083  -0.00307  -0.00082  -0.00396   2.26267
   A12        1.87781  -0.00312   0.00186  -0.01943  -0.01752   1.86030
   A13        2.08617  -0.00136   0.00335  -0.00906  -0.00565   2.08052
   A14        1.85195   0.00394  -0.00330   0.02218   0.01884   1.87079
   A15        2.34507  -0.00258  -0.00005  -0.01313  -0.01320   2.33187
   A16        2.06254  -0.00226  -0.00407  -0.00896  -0.01303   2.04952
   A17        2.11304   0.00169   0.00249   0.00842   0.01090   2.12394
   A18        2.10760   0.00056   0.00158   0.00054   0.00212   2.10972
   A19        1.92067   0.00254   0.00330   0.01026   0.01363   1.93430
   A20        2.18629  -0.00233  -0.00098  -0.01401  -0.01503   2.17126
   A21        2.17623  -0.00021  -0.00232   0.00375   0.00139   2.17762
   A22        1.89783  -0.00203   0.00702  -0.01521  -0.00826   1.88957
   A23        2.20396   0.00224  -0.00329   0.01687   0.01361   2.21757
   A24        2.18140  -0.00021  -0.00372  -0.00167  -0.00535   2.17604
   A25        1.87652  -0.00132  -0.00888   0.00219  -0.00670   1.86981
   A26        2.11889   0.00191   0.00409   0.00890   0.01299   2.13188
   A27        2.28778  -0.00058   0.00480  -0.01109  -0.00629   2.28149
    D1       -0.00001   0.00000   0.00000   0.00001   0.00001   0.00000
    D2        3.14159   0.00000  -0.00001   0.00003   0.00002  -3.14157
    D3       -3.14159   0.00000   0.00002  -0.00004  -0.00002   3.14158
    D4        0.00001   0.00000   0.00001  -0.00002  -0.00001   0.00000
    D5        0.00005  -0.00000   0.00002  -0.00006  -0.00003   0.00002
    D6       -3.14157   0.00000   0.00002  -0.00004  -0.00002  -3.14159
    D7       -3.14155   0.00000   0.00000  -0.00001  -0.00000  -3.14156
    D8        0.00001   0.00000   0.00000   0.00001   0.00001   0.00002
    D9       -0.00005   0.00000  -0.00002   0.00006   0.00004  -0.00001
   D10       -3.14153  -0.00000   0.00000  -0.00001  -0.00001  -3.14154
   D11        3.14154   0.00000  -0.00001   0.00005   0.00003   3.14157
   D12        0.00006  -0.00000   0.00001  -0.00003  -0.00002   0.00004
   D13        0.00007  -0.00000   0.00002  -0.00010  -0.00008  -0.00001
   D14       -3.14146  -0.00000  -0.00000  -0.00006  -0.00007  -3.14153
   D15        3.14154  -0.00000  -0.00000  -0.00002  -0.00003   3.14152
   D16        0.00002  -0.00000  -0.00003   0.00001  -0.00002   0.00001
   D17       -0.00002   0.00000   0.00000   0.00006   0.00006   0.00004
   D18        3.14157   0.00000  -0.00003   0.00013   0.00010  -3.14152
   D19        3.14151   0.00000   0.00002   0.00003   0.00005   3.14156
   D20       -0.00008   0.00000  -0.00001   0.00010   0.00009   0.00001
   D21       -3.14147  -0.00000  -0.00006   0.00007   0.00001  -3.14145
   D22       -0.00097   0.00001   0.00004   0.00024   0.00028  -0.00069
   D23        0.00019  -0.00000  -0.00008   0.00010   0.00002   0.00021
   D24        3.14068   0.00001   0.00002   0.00027   0.00029   3.14097
   D25       -0.00003  -0.00000  -0.00002   0.00002   0.00000  -0.00003
   D26        3.14159  -0.00000  -0.00002   0.00001  -0.00002   3.14157
   D27        3.14156  -0.00000   0.00002  -0.00007  -0.00005   3.14151
   D28       -0.00000  -0.00000   0.00002  -0.00008  -0.00007  -0.00007
   D29       -0.00004   0.00000   0.00009  -0.00025  -0.00016  -0.00020
   D30        3.14148   0.00000   0.00002   0.00000   0.00002   3.14150
   D31        3.14154   0.00000   0.00006  -0.00017  -0.00011   3.14143
   D32       -0.00012   0.00000  -0.00001   0.00008   0.00007  -0.00005
   D33       -0.00022   0.00000   0.00014  -0.00025  -0.00012  -0.00033
   D34        3.14153   0.00000   0.00005  -0.00009  -0.00003   3.14150
   D35       -3.14071  -0.00000   0.00004  -0.00042  -0.00038  -3.14109
   D36        0.00104  -0.00001  -0.00004  -0.00025  -0.00029   0.00074
   D37        0.00016  -0.00000  -0.00014   0.00031   0.00017   0.00033
   D38        3.14157   0.00000  -0.00004   0.00013   0.00008  -3.14153
   D39       -3.14136  -0.00000  -0.00007   0.00007  -0.00001  -3.14137
   D40        0.00005  -0.00000   0.00003  -0.00012  -0.00010  -0.00004
         Item               Value     Threshold  Converged?
 Maximum Force            0.010380     0.000450     NO 
 RMS     Force            0.002506     0.000300     NO 
 Maximum Displacement     0.022216     0.001800     NO 
 RMS     Displacement     0.007108     0.001200     NO 
 Predicted change in Energy=-1.013102D-03
 GradGradGradGradGradGradGradGradGradGradGradGradGradGradGradGradGradGrad

                          Input orientation:                          
 ---------------------------------------------------------------------
 Center     Atomic      Atomic             Coordinates (Angstroms)
 Number     Number       Type             X           Y           Z
 ---------------------------------------------------------------------
      1          6           0       -2.167682    0.684935    0.000039
      2          6           0       -2.139282   -0.685071    0.000036
      3          6           0       -0.892772   -1.422349    0.000027
      4          6           0        0.250494   -0.666132    0.000013
      5          6           0        0.257626    0.748749   -0.000008
[...]
 ! D9    D(1,2,3,4)              0.0003         -DE/DX =    0.0                 !
 ! D10   D(1,2,3,14)          -179.9974         -DE/DX =    0.0                 !
 ! D11   D(13,2,3,4)           179.9999         -DE/DX =    0.0                 !
 ! D12   D(13,2,3,14)            0.0022         -DE/DX =    0.0                 !
 ! D13   D(2,3,4,5)             -0.0017         -DE/DX =    0.0                 !
 ! D14   D(2,3,4,7)           -179.9984         -DE/DX =    0.0                 !
 ! D15   D(14,3,4,5)           179.996          -DE/DX =    0.0                 !
 ! D16   D(14,3,4,7)            -0.0008         -DE/DX =    0.0                 !
 ! D17   D(3,4,5,6)              0.0027         -DE/DX =    0.0                 !
 ! D18   D(3,4,5,8)            180.0035         -DE/DX =    0.0                 !
 ! D19   D(7,4,5,6)            180.0001         -DE/DX =    0.0                 !
 ! D20   D(7,4,5,8)              0.0009         -DE/DX =    0.0                 !
 ! D21   D(3,4,7,9)            180.0026         -DE/DX =    0.0                 !
 ! D22   D(3,4,7,10)            -0.0171         -DE/DX =    0.0                 !
 ! D23   D(5,4,7,9)              0.0054         -DE/DX =    0.0                 !
 ! D24   D(5,4,7,10)           179.9857         -DE/DX =    0.0                 !
 ! D25   D(4,5,6,1)             -0.0023         -DE/DX =    0.0                 !
 ! D26   D(4,5,6,16)           179.9971         -DE/DX =    0.0                 !
 ! D27   D(8,5,6,1)            179.9967         -DE/DX =    0.0                 !
 ! D28   D(8,5,6,16)            -0.004          -DE/DX =    0.0                 !
 ! D29   D(4,5,8,9)             -0.0065         -DE/DX =    0.0                 !
 ! D30   D(4,5,8,11)           179.9978         -DE/DX =    0.0                 !
 ! D31   D(6,5,8,9)           -180.0055         -DE/DX =    0.0                 !
 ! D32   D(6,5,8,11)            -0.0012         -DE/DX =    0.0                 !
 ! D33   D(4,7,9,8)             -0.0093         -DE/DX =    0.0                 !
 ! D34   D(4,7,9,12)          -180.0021         -DE/DX =    0.0                 !
 ! D35   D(10,7,9,8)          -179.9895         -DE/DX =    0.0                 !
 ! D36   D(10,7,9,12)            0.0178         -DE/DX =    0.0                 !
 ! D37   D(5,8,9,7)              0.0098         -DE/DX =    0.0                 !
 ! D38   D(5,8,9,12)           180.0017         -DE/DX =    0.0                 !
 ! D39   D(11,8,9,7)          -179.9944         -DE/DX =    0.0                 !
 ! D40   D(11,8,9,12)           -0.0024         -DE/DX =    0.0                 !
 --------------------------------------------------------------------------------
 GradGradGradGradGradGradGradGradGradGradGradGradGradGradGradGradGradGrad

                          Input orientation:                          
 ---------------------------------------------------------------------
 Center     Atomic      Atomic             Coordinates (Angstroms)
 Number     Number       Type             X           Y           Z
 ---------------------------------------------------------------------
      1          6           0       -2.167737    0.685362    0.000009
      2          6           0       -2.141592   -0.686008    0.000036
      3          6           0       -0.892648   -1.424209    0.000057
      4          6           0        0.248643   -0.666167    0.000053
      5          6           0        0.256264    0.748897   -0.000003
      6          6           0       -0.989167    1.453225   -0.000001
      7          7           0        1.579963   -1.068601    0.000040
      8          6           0        1.582134    1.152645   -0.000070
      9          6           0        2.400233   -0.008716    0.000097
     10          1           0        1.881696   -2.033718    0.000280
     11          1           0        1.958573    2.166624   -0.000158
     12          1           0        3.475343   -0.109476    0.000130
     13          1           0       -3.070948   -1.245661    0.000037
     14          1           0       -0.881923   -2.507803    0.000036
     15          1           0       -3.126150    1.194433   -0.000012
     16          1           0       -1.015780    2.536620    0.000005
 ---------------------------------------------------------------------
                    Distance matrix (angstroms):
                    1          2          3          4          5
     1  C    0.000000
     2  C    1.371620   0.000000
     3  C    2.464984   1.450793   0.000000
     4  C    2.768669   2.390318   1.370100   0.000000
     5  C    2.424833   2.794399   2.458127   1.415084   0.000000
     6  C    1.406642   2.429898   2.879053   2.454383   1.430795
     7  N    4.137831   3.741170   2.498052   1.390815   2.248439
     8  C    3.778874   4.152925   3.572776   2.255277   1.385982
     9  C    4.620400   4.592047   3.584228   2.249796   2.273891
    10  H    4.877634   4.243014   2.840509   2.130037   3.222573
    11  H    4.384127   4.994884   4.585144   3.308861   2.215357
    12  H    5.698783   5.646446   4.561565   3.274370   3.331558
    13  H    2.131816   1.084856   2.185605   3.369792   3.879252
    14  H    3.442328   2.214882   1.083646   2.160972   3.449864
    15  H    1.085223   2.122596   3.441775   3.853708   3.411631
    16  H    2.180404   3.413618   3.962743   3.443343   2.194094
                    6          7          8          9         10
     6  C    0.000000
     7  N    3.600005   0.000000
     8  C    2.588809   2.221247   0.000000
     9  C    3.691246   1.340224   1.420579   0.000000
    10  H    4.516705   1.011184   3.200414   2.090339   0.000000
    11  H    3.032838   3.257303   1.081600   2.219722   4.201045
    12  H    4.730104   2.124238   2.275345   1.079822   2.498483
    13  H    3.408489   4.654280   5.234791   5.609264   5.014949
    14  H    3.962479   2.851698   4.412534   4.125285   2.803987
    15  H    2.152597   5.221956   4.708470   5.655836   5.958145
    16  H    1.083722   4.442465   2.943559   4.260032   5.411410
                   11         12         13         14         15
    11  H    0.000000
    12  H    2.735183   0.000000
    13  H    6.077809   6.644158   0.000000
    14  H    5.469797   4.973704   2.526823   0.000000
    15  H    5.176830   6.729034   2.440718   4.329331   0.000000
    16  H    2.997277   5.212678   4.304575   5.046199   2.501026
                   16
    16  H    0.000000
 Stoichiometry    C8H7N
 Framework group  C1[X(C8H7N)]
 Deg. of freedom    42
 Full point group                 C1      NOp   1
 Largest Abelian subgroup         C1      NOp   1
 Largest concise Abelian subgroup C1      NOp   1
                         Standard orientation:                         
 ---------------------------------------------------------------------
 Center     Atomic      Atomic             Coordinates (Angstroms)
 Number     Number       Type             X           Y           Z
 ---------------------------------------------------------------------
      1          6           0       -2.183383    0.636027   -0.000018
      2          6           0       -2.126674   -0.734420    0.000009
      3          6           0       -0.861585   -1.444597    0.000030
      4          6           0        0.262525   -0.661302    0.000026
      5          6           0        0.238600    0.753580   -0.000030
      6          6           0       -1.022222    1.429971   -0.000028
      7          7           0        1.602485   -1.033958    0.000013
      8          6           0        1.555140    1.186785   -0.000097
      9          6           0        2.398925    0.043949    0.000070
     10          1           0        1.925657   -1.992109    0.000253
     11          1           0        1.908882    2.208902   -0.000184
     12          1           0        3.476014   -0.032821    0.000103
     13          1           0       -3.043323   -1.314650    0.000010
     14          1           0       -0.826706   -2.527682    0.000010
     15          1           0       -3.152905    1.123606   -0.000039
     16          1           0       -1.072979    2.512504   -0.000022
 ---------------------------------------------------------------------
 Rotational constants (GHZ):           3.8995970           1.6341629           1.1515817

 **********************************************************************

            Population analysis using the CI Density.

 **********************************************************************

 Orbital symmetries:
       Occupied  (A) (A) (A) (A) (A) (A) (A) (A) (A) (A) (A) (A)
                 (A) (A) (A) (A) (A) (A) (A) (A) (A) (A) (A) (A)
                 (A) (A) (A) (A) (A) (A) (A)
       Virtual   (A) (A) (A) (A) (A) (A) (A) (A) (A) (A) (A) (A)
                 (A) (A) (A) (A) (A) (A) (A) (A) (A) (A) (A) (A)
                 (A) (A) (A) (A) (A) (A) (A) (A) (A) (A) (A) (A)
                 (A) (A) (A) (A) (A) (A) (A) (A) (A) (A) (A) (A)
                 (A) (A) (A) (A) (A) (A) (A) (A) (A) (A) (A) (A)
                 (A) (A) (A) (A) (A) (A) (A) (A) (A) (A) (A) (A)
                 (A) (A) (A) (A) (A) (A) (A) (A) (A) (A) (A) (A)
                 (A) (A) (A) (A) (A) (A) (A) (A) (A) (A) (A) (A)
                 (A) (A) (A) (A) (A) (A) (A) (A) (A) (A) (A) (A)
                 (A) (A) (A) (A) (A) (A) (A) (A) (A) (A) (A) (A)
                 (A) (A) (A) (A) (A) (A) (A) (A) (A) (A) (A) (A)
                 (A) (A) (A) (A) (A) (A) (A) (A) (A) (A) (A) (A)
                 (A) (A) (A) (A) (A) (A) (A) (A) (A) (A)
 The electronic state is 1-A.
 Alpha  occ. eigenvalues --  -14.31046 -10.20230 -10.19238 -10.16848 -10.16219
 Alpha  occ. eigenvalues --  -10.15998 -10.15795 -10.15393 -10.14499  -1.16240
 Alpha  occ. eigenvalues --   -1.01379  -0.95055  -0.90918  -0.87123  -0.78476
 Alpha  occ. eigenvalues --   -0.75045  -0.73038  -0.68789  -0.62501  -0.61344
 Alpha  occ. eigenvalues --   -0.57764  -0.57643  -0.56852  -0.53710  -0.52520
 Alpha  occ. eigenvalues --   -0.47630  -0.47115  -0.46858  -0.39786  -0.33774
 Alpha  occ. eigenvalues --   -0.29128
 Alpha virt. eigenvalues --    0.04456   0.04892   0.06348   0.06873   0.08087
 Alpha virt. eigenvalues --    0.08450   0.10166   0.10651   0.10665   0.10923
 Alpha virt. eigenvalues --    0.11654   0.11658   0.13717   0.14653   0.14861
 Alpha virt. eigenvalues --    0.15016   0.16588   0.17957   0.19237   0.19323
 Alpha virt. eigenvalues --    0.20426   0.21202   0.21680   0.22746   0.23000
 Alpha virt. eigenvalues --    0.24222   0.24424   0.24850   0.26071   0.26447
 Alpha virt. eigenvalues --    0.27384   0.27686   0.28258   0.29060   0.29739
 Alpha virt. eigenvalues --    0.30435   0.30805   0.32001   0.32244   0.32898
 Alpha virt. eigenvalues --    0.34465   0.34729   0.37055   0.37850   0.39305
 Alpha virt. eigenvalues --    0.40960   0.41097   0.42344   0.44756   0.46062
 Alpha virt. eigenvalues --    0.48116   0.50166   0.54565   0.57038   0.63542
 Alpha virt. eigenvalues --    0.70212   0.73846   0.78190   0.78301   0.80915
 Alpha virt. eigenvalues --    0.83087   0.83414   0.84550   0.84808   0.86146
 Alpha virt. eigenvalues --    0.86978   0.88464   0.88993   0.90863   0.91052
 Alpha virt. eigenvalues --    0.93230   0.96971   1.00334   1.00981   1.02744
 Alpha virt. eigenvalues --    1.06223   1.06474   1.07492   1.07847   1.10640
 Alpha virt. eigenvalues --    1.12070   1.14748   1.16648   1.17775   1.21077
 Alpha virt. eigenvalues --    1.23651   1.25079   1.29901   1.30601   1.33833
 Alpha virt. eigenvalues --    1.34980   1.37658   1.38526   1.45115   1.46828
 Alpha virt. eigenvalues --    1.49591   1.49646   1.54718   1.55661   1.57623
 Alpha virt. eigenvalues --    1.61852   1.62347   1.64922   1.65326   1.67059
 Alpha virt. eigenvalues --    1.72229   1.77823   1.92819   1.96491   2.04135
 Alpha virt. eigenvalues --    2.05566   2.05865   2.09443   2.14857   2.15485
 Alpha virt. eigenvalues --    2.16196   2.19067   2.22597   2.28757   2.31027
 Alpha virt. eigenvalues --    2.31557   2.34739   2.38411   2.40575   2.43447
 Alpha virt. eigenvalues --    2.43518   2.46682   2.53167   2.57183   2.61112
 Alpha virt. eigenvalues --    2.68263   2.72520   2.76419   2.80413   2.81524
 Alpha virt. eigenvalues --    2.82388   2.87656   2.95222   2.98448   3.00286
 Alpha virt. eigenvalues --    3.10372   3.12722   3.25870   3.39699   3.57523
 Alpha virt. eigenvalues --    4.27700   4.37182   4.40133   4.43357   4.48401
 Alpha virt. eigenvalues --    4.53002   4.60303   4.63892   4.90738
          Condensed to atoms (all electrons):
               1          2          3          4          5          6
     1  C    5.439390   0.470964   0.330945  -0.448712  -0.162081  -0.074248
     2  C    0.470964   5.848878  -0.548436   0.452779  -0.365762   0.477187
     3  C    0.330945  -0.548436  14.515056  -3.357975  -4.116718  -2.495706
     4  C   -0.448712   0.452779  -3.357975  13.694344  -2.681212  -1.230319
     5  C   -0.162081  -0.365762  -4.116718  -2.681212  15.674567  -0.360857
     6  C   -0.074248   0.477187  -2.495706  -1.230319  -0.360857  12.299484
     7  N   -0.006697   0.012791  -0.457303  -0.192998   0.652814   0.055014
     8  C    0.214912  -0.315730   3.537121   0.892816  -6.034300  -3.031926
     9  C   -0.084807   0.037644  -1.211547  -0.456255   2.094138   0.845963
    10  H   -0.004577  -0.004778  -0.155626  -0.082841   0.198162   0.030861
    11  H   -0.000170  -0.000053   0.012516   0.102223  -0.119547  -0.058998
    12  H    0.000660   0.000090   0.015400   0.052898  -0.020202  -0.017582
    13  H   -0.032262   0.341633  -0.058267   0.032619  -0.007037   0.032772
    14  H    0.027242  -0.006974   0.332311  -0.054766   0.022401  -0.019423
    15  H    0.335456  -0.027081   0.023148  -0.015901   0.033709  -0.039492
    16  H   -0.037302   0.026805  -0.052397   0.067035   0.041386   0.327469
               7          8          9         10         11         12
     1  C   -0.006697   0.214912  -0.084807  -0.004577  -0.000170   0.000660
     2  C    0.012791  -0.315730   0.037644  -0.004778  -0.000053   0.000090
     3  C   -0.457303   3.537121  -1.211547  -0.155626   0.012516   0.015400
     4  C   -0.192998   0.892816  -0.456255  -0.082841   0.102223   0.052898
     5  C    0.652814  -6.034300   2.094138   0.198162  -0.119547  -0.020202
     6  C    0.055014  -3.031926   0.845963   0.030861  -0.058998  -0.017582
     7  N    7.200236  -0.492828   0.441134   0.284808   0.007633  -0.051105
     8  C   -0.492828  13.168051  -2.386307  -0.019549   0.444823  -0.052792
     9  C    0.441134  -2.386307   6.731189  -0.011423  -0.084635   0.388892
    10  H    0.284808  -0.019549  -0.011423   0.328044  -0.000077  -0.002422
    11  H    0.007633   0.444823  -0.084635  -0.000077   0.474300  -0.000504
    12  H   -0.051105  -0.052792   0.388892  -0.002422  -0.000504   0.457493
    13  H   -0.000371  -0.002460   0.001490  -0.000001   0.000000  -0.000000
    14  H   -0.001571  -0.011112   0.010268   0.001713   0.000002   0.000003
    15  H    0.000187  -0.002842   0.000433  -0.000000  -0.000002  -0.000000
    16  H   -0.000710  -0.081043   0.005776   0.000003   0.001415  -0.000001
              13         14         15         16
     1  C   -0.032262   0.027242   0.335456  -0.037302
     2  C    0.341633  -0.006974  -0.027081   0.026805
     3  C   -0.058267   0.332311   0.023148  -0.052397
     4  C    0.032619  -0.054766  -0.015901   0.067035
     5  C   -0.007037   0.022401   0.033709   0.041386
     6  C    0.032772  -0.019423  -0.039492   0.327469
     7  N   -0.000371  -0.001571   0.000187  -0.000710
     8  C   -0.002460  -0.011112  -0.002842  -0.081043
     9  C    0.001490   0.010268   0.000433   0.005776
    10  H   -0.000001   0.001713  -0.000000   0.000003
    11  H    0.000000   0.000002  -0.000002   0.001415
    12  H   -0.000000   0.000003  -0.000000  -0.000001
    13  H    0.512395  -0.003128  -0.004479  -0.000134
    14  H   -0.003128   0.512147  -0.000124   0.000013
    15  H   -0.004479  -0.000124   0.516384  -0.003404
    16  H   -0.000134   0.000013  -0.003404   0.510882
 Mulliken charges:
               1
     1  C    0.031288
     2  C   -0.399956
     3  C   -0.312521
     4  C   -0.773733
     5  C    1.150541
     6  C   -0.740197
     7  N   -0.451034
     8  C    0.173165
     9  C   -0.321952
    10  H    0.437705
    11  H    0.221076
    12  H    0.229174
    13  H    0.187230
    14  H    0.190996
    15  H    0.184008
    16  H    0.194210
 Sum of Mulliken charges =  -0.00000
 Mulliken charges with hydrogens summed into heavy atoms:
               1
     1  C    0.215297
     2  C   -0.212726
     3  C   -0.121525
     4  C   -0.773733
     5  C    1.150541
     6  C   -0.545987
     7  N   -0.013329
     8  C    0.394241
     9  C   -0.092779
 Electronic spatial extent (au):  <R**2>=           1012.5064
 Charge=             -0.0000 electrons
 Dipole moment (field-independent basis, Debye):
    X=              3.5325    Y=             -1.6298    Z=             -0.0000  Tot=              3.8904
 Quadrupole moment (field-independent basis, Debye-Ang):
   XX=            -45.5151   YY=            -46.5353   ZZ=            -60.9463
   XY=             -2.5484   XZ=              0.0004   YZ=             -0.0009
 Traceless Quadrupole moment (field-independent basis, Debye-Ang):
   XX=              5.4838   YY=              4.4636   ZZ=             -9.9474
   XY=             -2.5484   XZ=              0.0004   YZ=             -0.0009
 Octapole moment (field-independent basis, Debye-Ang**2):
  XXX=             23.9299  YYY=            -10.9002  ZZZ=             -0.0025  XYY=             13.4500
  XXY=             -7.8331  XXZ=              0.0002  XZZ=              3.7528  YZZ=             -2.0455
  YYZ=             -0.0005  XYZ=             -0.0021
 Hexadecapole moment (field-independent basis, Debye-Ang**3):
 XXXX=           -848.2918 YYYY=           -396.9280 ZZZZ=            -90.1388 XXXY=            -20.1072
 XXXZ=             -0.0028 YYYX=            -15.6059 YYYZ=              0.0031 ZZZX=             -0.0066
 ZZZY=              0.0089 XXYY=           -199.3522 XXZZ=           -203.5170 YYZZ=           -105.1437
 XXYZ=             -0.0022 YYXZ=              0.0013 ZZXY=             -2.0447
 N-N= 4.004579675641D+02 E-N=-1.642159145183D+03  KE= 3.595477643475D+02
 Unable to Open any file for archive entry.
 1\1\GINC-EXP-1-56\FOpt\RLC-BLYP TD-FC\6-31+G(d)\C8H7N1\SCAPARAS\16-Jun
 -2021\0\\# td= (nstates=6, root=2) LC-BLYP/6-31+G* Opt density=current
 \\FuncsLC-BLYP-V-2nd\\0,1\C,-2.1677373875,0.6853620386,0.0000089407\C,
 -2.1415923137,-0.6860083877,0.0000360875\C,-0.8926484368,-1.4242094639
 ,0.0000567548\C,0.2486431129,-0.6661671096,0.0000531541\C,0.2562635742
 ,0.7488967656,-0.0000030629\C,-0.9891666331,1.4532248783,-0.0000007622
 \N,1.5799630701,-1.068600985,0.0000396522\C,1.5821337968,1.1526453791,
 -0.0000701232\C,2.4002326712,-0.0087156041,0.0000969249\H,1.8816961785
 ,-2.0337181482,0.000279704\H,1.9585726133,2.1666235885,-0.0001576269\H
 ,3.4753431182,-0.1094763074,0.000130167\H,-3.0709476693,-1.2456607193,
 0.0000370293\H,-0.8819225765,-2.5078028226,0.0000364214\H,-3.126150463
 4,1.1944327824,-0.000011913\H,-1.015779655,2.5366201155,0.0000046523\\
 Version=AS64L-G16RevC.01\State=1-A\HF=-362.7224068\RMSD=7.286e-09\RMSF
 =6.187e-05\Dipole=1.3897992,-0.6412118,-0.0000074\Quadrupole=4.0770682
 ,3.3185642,-7.3956324,-1.8946448,0.0002668,-0.0006397\PG=C01 [X(C8H7N1
 )]\\@
 The archive entry for this job was punched.


 THE POLHOLDE ROLLS WITHOUT SLIPPING ON THE HERPOLHOLDE LYING IN
 THE INVARIABLE PLANE.
 H.GOLDSTEIN, "CLASSICAL MECHANICS", PG 161
 Job cpu time:       0 days  2 hours 23 minutes 52.9 seconds.
 Elapsed time:       0 days  0 hours 36 minutes 31.4 seconds.
 File lengths (MBytes):  RWF=    238 Int=      0 D2E=      0 Chk=     11 Scr=      1
 Normal termination of Gaussian 16 at Wed Jun 16 07:59:58 2021.
