 Entering Gaussian System, Link 0=/cm/shared/apps/spack/cpu/opt/spack/linux-centos8-zen/gcc-8.3.1/gaussian-16.C.01-po5bqktfeugvmjyga3v7eigbecnokxng/g16/g16
 Initial command:
 /cm/shared/apps/spack/cpu/opt/spack/linux-centos8-zen/gcc-8.3.1/gaussian-16.C.01-po5bqktfeugvmjyga3v7eigbecnokxng/g16/l1.exe "/scratch/cwaldt/job_3613158/Gau-38378.inp" -scrdir="/scratch/cwaldt/job_3613158/"
 Entering Link 1 = /cm/shared/apps/spack/cpu/opt/spack/linux-centos8-zen/gcc-8.3.1/gaussian-16.C.01-po5bqktfeugvmjyga3v7eigbecnokxng/g16/l1.exe PID=     38379.
  
 Copyright (c) 1988-2019, Gaussian, Inc.  All Rights Reserved.
  
 This is part of the Gaussian(R) 16 program.  It is based on
 the Gaussian(R) 09 system (copyright 2009, Gaussian, Inc.),
 the Gaussian(R) 03 system (copyright 2003, Gaussian, Inc.),
 the Gaussian(R) 98 system (copyright 1998, Gaussian, Inc.),
 the Gaussian(R) 94 system (copyright 1995, Gaussian, Inc.),
 the Gaussian 92(TM) system (copyright 1992, Gaussian, Inc.),
 the Gaussian 90(TM) system (copyright 1990, Gaussian, Inc.),
 the Gaussian 88(TM) system (copyright 1988, Gaussian, Inc.),
 the Gaussian 86(TM) system (copyright 1986, Carnegie Mellon
 University), and the Gaussian 82(TM) system (copyright 1983,
 Carnegie Mellon University). Gaussian is a federally registered
 trademark of Gaussian, Inc.
  
 This software contains proprietary and confidential information,
 including trade secrets, belonging to Gaussian, Inc.
  
 This software is provided under written license and may be
 used, copied, transmitted, or stored only in accord with that
 written license.
  
 The following legend is applicable only to US Government
 contracts under FAR:
  
                    RESTRICTED RIGHTS LEGEND
  
 Use, reproduction and disclosure by the US Government is
 subject to restrictions as set forth in subparagraphs (a)
 and (c) of the Commercial Computer Software - Restricted
 Rights clause in FAR 52.227-19.
  
 Gaussian, Inc.
 340 Quinnipiac St., Bldg. 40, Wallingford CT 06492
  
  
 ---------------------------------------------------------------
 Warning -- This program may not be used in any manner that
 competes with the business of Gaussian, Inc. or will provide
 assistance to any competitor of Gaussian, Inc.  The licensee
 of this program is prohibited from giving any competitor of
 Gaussian, Inc. access to this program.  By using this program,
 the user acknowledges that Gaussian, Inc. is engaged in the
 business of creating and licensing software in the field of
 computational chemistry and represents and warrants to the
 licensee that it is not a competitor of Gaussian, Inc. and that
 it will not use this program in any manner prohibited above.
 ---------------------------------------------------------------
  

 Cite this work as:
 Gaussian 16, Revision C.01,
 M. J. Frisch, G. W. Trucks, H. B. Schlegel, G. E. Scuseria, 
 M. A. Robb, J. R. Cheeseman, G. Scalmani, V. Barone, 
 G. A. Petersson, H. Nakatsuji, X. Li, M. Caricato, A. V. Marenich, 
 J. Bloino, B. G. Janesko, R. Gomperts, B. Mennucci, H. P. Hratchian, 
 J. V. Ortiz, A. F. Izmaylov, J. L. Sonnenberg, D. Williams-Young, 
 F. Ding, F. Lipparini, F. Egidi, J. Goings, B. Peng, A. Petrone, 
 T. Henderson, D. Ranasinghe, V. G. Zakrzewski, J. Gao, N. Rega, 
 G. Zheng, W. Liang, M. Hada, M. Ehara, K. Toyota, R. Fukuda, 
 J. Hasegawa, M. Ishida, T. Nakajima, Y. Honda, O. Kitao, H. Nakai, 
 T. Vreven, K. Throssell, J. A. Montgomery, Jr., J. E. Peralta, 
 F. Ogliaro, M. J. Bearpark, J. J. Heyd, E. N. Brothers, K. N. Kudin, 
 V. N. Staroverov, T. A. Keith, R. Kobayashi, J. Normand, 
 K. Raghavachari, A. P. Rendell, J. C. Burant, S. S. Iyengar, 
 J. Tomasi, M. Cossi, J. M. Millam, M. Klene, C. Adamo, R. Cammi, 
 J. W. Ochterski, R. L. Martin, K. Morokuma, O. Farkas, 
 J. B. Foresman, and D. J. Fox, Gaussian, Inc., Wallingford CT, 2019.
 
 ******************************************
 Gaussian 16:  AS64L-G16RevC.01  3-Jul-2019
                24-Jun-2021 
 ******************************************
 %nprocshared=4
 Will use up to    4 processors via shared memory.
 %chk=FuncsB3LYP-V-3rd.chk
 %Mem=3GB
 ----------------------------------------------------------------------
 # td= (nstates=6, root=3) B3LYP/6-31+G* Opt density=current EmpiricalD
 ispersion=GD3
 ----------------------------------------------------------------------
 1/18=20,19=15,26=3,38=1/1,3;
 2/9=110,12=2,17=6,18=5,40=1/2;
 3/5=1,6=6,7=11,11=9,25=1,30=1,71=1,74=-5,124=31/1,2,3,8;
 4//1;
 5/5=2,38=5/2;
 8/6=1,10=2,107=3,108=6/1;
 9/8=3,15=2,41=6,42=1,70=2/14;
 10/5=4,28=3/2;
 6/7=2,8=2,9=2,10=2,22=-1/1;
 7/12=6,13=5,14=3/1,2,3,16;
 1/18=20,19=15,26=3/3(2);
 2/9=110/2;
 99//99;
 2/9=110/2;
 3/5=1,6=6,7=11,11=9,25=1,30=1,71=1,74=-5,124=31/1,2,3,8;
 4/5=5,16=3,69=1/1;
 5/5=2,38=5/2;
 8/6=1,10=2,107=3,108=6/1;
 9/8=3,15=2,41=6,42=1,49=4,70=2/14;
 10/5=4,28=3/2;
 7/12=6,13=5,14=3/1,2,3,16;
 1/18=20,19=15,26=3/3(-8);
 2/9=110/2;
 6/7=2,8=2,9=2,10=2,22=-1/1;
 99/9=10/99;
 ----------------
 FuncsB3LYP-V-3rd
 ----------------
 Symbolic Z-matrix:
 Charge =  0 Multiplicity = 1
 C                    -2.15106   0.68921   0.00009 
 C                    -2.12793  -0.71582   0.00008 
 C                    -0.9323   -1.4131   -0.00001 
 C                     0.24691  -0.6702   -0.00004 
 C                     0.24819   0.7483    0. 
 C                    -0.97947   1.42353   0.00003 
 N                     1.56177  -1.07759  -0.00029 
 C                     1.62013   1.1629   -0.00016 
 C                     2.38201   0.03081   0.00025 
 H                     1.87632  -2.03001   0.00044 
 H                     1.99217   2.17301  -0.00035 
 H                     3.45255  -0.08243   0.00041 
 H                    -3.06159  -1.26202   0.00009 
 H                    -0.91725  -2.49534  -0.00007 
 H                    -3.1042    1.20079   0.00009 
 H                    -1.00935   2.50542  -0.00002 
 

 GradGradGradGradGradGradGradGradGradGradGradGradGradGradGradGradGradGrad
 Berny optimization.
 Initialization pass.
                           ----------------------------
                           !    Initial Parameters    !
                           ! (Angstroms and Degrees)  !
 --------------------------                            --------------------------
 ! Name  Definition              Value          Derivative Info.                !
 --------------------------------------------------------------------------------
 ! R1    R(1,2)                  1.4052         estimate D2E/DX2                !
 ! R2    R(1,6)                  1.3827         estimate D2E/DX2                !
 ! R3    R(1,15)                 1.0818         estimate D2E/DX2                !
 ! R4    R(2,3)                  1.3841         estimate D2E/DX2                !
 ! R5    R(2,13)                 1.0817         estimate D2E/DX2                !
 ! R6    R(3,4)                  1.3937         estimate D2E/DX2                !
 ! R7    R(3,14)                 1.0823         estimate D2E/DX2                !
 ! R8    R(4,5)                  1.4185         estimate D2E/DX2                !
 ! R9    R(4,7)                  1.3765         estimate D2E/DX2                !
 ! R10   R(5,6)                  1.4011         estimate D2E/DX2                !
 ! R11   R(5,8)                  1.4332         estimate D2E/DX2                !
 ! R12   R(6,16)                 1.0823         estimate D2E/DX2                !
 ! R13   R(7,9)                  1.3789         estimate D2E/DX2                !
 ! R14   R(7,10)                 1.003          estimate D2E/DX2                !
 ! R15   R(8,9)                  1.3646         estimate D2E/DX2                !
 ! R16   R(8,11)                 1.0764         estimate D2E/DX2                !
 ! R17   R(9,12)                 1.0765         estimate D2E/DX2                !
 ! A1    A(2,1,6)              121.1349         estimate D2E/DX2                !
 ! A2    A(2,1,15)             119.1671         estimate D2E/DX2                !
 ! A3    A(6,1,15)             119.698          estimate D2E/DX2                !
 ! A4    A(1,2,3)              121.1938         estimate D2E/DX2                !
 ! A5    A(1,2,13)             119.3846         estimate D2E/DX2                !
 ! A6    A(3,2,13)             119.4217         estimate D2E/DX2                !
 ! A7    A(2,3,4)              117.5387         estimate D2E/DX2                !
 ! A8    A(2,3,14)             121.0469         estimate D2E/DX2                !
 ! A9    A(4,3,14)             121.4144         estimate D2E/DX2                !
 ! A10   A(3,4,5)              122.2626         estimate D2E/DX2                !
 ! A11   A(3,4,7)              130.5743         estimate D2E/DX2                !
 ! A12   A(5,4,7)              107.163          estimate D2E/DX2                !
 ! A13   A(4,5,6)              118.7594         estimate D2E/DX2                !
 ! A14   A(4,5,8)              106.8666         estimate D2E/DX2                !
 ! A15   A(6,5,8)              134.374          estimate D2E/DX2                !
 ! A16   A(1,6,5)              119.1105         estimate D2E/DX2                !
 ! A17   A(1,6,16)             120.4966         estimate D2E/DX2                !
 ! A18   A(5,6,16)             120.3928         estimate D2E/DX2                !
 ! A19   A(4,7,9)              109.2874         estimate D2E/DX2                !
 ! A20   A(4,7,10)             125.4909         estimate D2E/DX2                !
 ! A21   A(9,7,10)             125.2217         estimate D2E/DX2                !
 ! A22   A(5,8,9)              107.125          estimate D2E/DX2                !
 ! A23   A(5,8,11)             127.0344         estimate D2E/DX2                !
 ! A24   A(9,8,11)             125.8405         estimate D2E/DX2                !
 ! A25   A(7,9,8)              109.5578         estimate D2E/DX2                !
 ! A26   A(7,9,12)             120.4645         estimate D2E/DX2                !
 ! A27   A(8,9,12)             129.9776         estimate D2E/DX2                !
 ! D1    D(6,1,2,3)             -0.0008         estimate D2E/DX2                !
 ! D2    D(6,1,2,13)          -179.9981         estimate D2E/DX2                !
 ! D3    D(15,1,2,3)           179.996          estimate D2E/DX2                !
 ! D4    D(15,1,2,13)           -0.0013         estimate D2E/DX2                !
 ! D5    D(2,1,6,5)             -0.0018         estimate D2E/DX2                !
 ! D6    D(2,1,6,16)           179.9965         estimate D2E/DX2                !
 ! D7    D(15,1,6,5)          -179.9986         estimate D2E/DX2                !
 ! D8    D(15,1,6,16)           -0.0003         estimate D2E/DX2                !
 ! D9    D(1,2,3,4)              0.002          estimate D2E/DX2                !
 ! D10   D(1,2,3,14)          -179.9968         estimate D2E/DX2                !
 ! D11   D(13,2,3,4)           179.9992         estimate D2E/DX2                !
 ! D12   D(13,2,3,14)            0.0005         estimate D2E/DX2                !
 ! D13   D(2,3,4,5)             -0.0005         estimate D2E/DX2                !
 ! D14   D(2,3,4,7)           -179.9911         estimate D2E/DX2                !
 ! D15   D(14,3,4,5)           179.9982         estimate D2E/DX2                !
 ! D16   D(14,3,4,7)             0.0076         estimate D2E/DX2                !
 ! D17   D(3,4,5,6)             -0.002          estimate D2E/DX2                !
 ! D18   D(3,4,5,8)           -179.9955         estimate D2E/DX2                !
 ! D19   D(7,4,5,6)            179.9905         estimate D2E/DX2                !
 ! D20   D(7,4,5,8)             -0.003          estimate D2E/DX2                !
 ! D21   D(3,4,7,9)           -179.98           estimate D2E/DX2                !
 ! D22   D(3,4,7,10)            -0.0649         estimate D2E/DX2                !
 ! D23   D(5,4,7,9)              0.0284         estimate D2E/DX2                !
 ! D24   D(5,4,7,10)           179.9434         estimate D2E/DX2                !
 ! D25   D(4,5,6,1)              0.0031         estimate D2E/DX2                !
 ! D26   D(4,5,6,16)          -179.9951         estimate D2E/DX2                !
 ! D27   D(8,5,6,1)            179.9944         estimate D2E/DX2                !
 ! D28   D(8,5,6,16)            -0.0038         estimate D2E/DX2                !
 ! D29   D(4,5,8,9)             -0.0234         estimate D2E/DX2                !
 ! D30   D(4,5,8,11)           179.9883         estimate D2E/DX2                !
 ! D31   D(6,5,8,9)            179.9846         estimate D2E/DX2                !
 ! D32   D(6,5,8,11)            -0.0037         estimate D2E/DX2                !
 ! D33   D(4,7,9,8)             -0.0444         estimate D2E/DX2                !
 ! D34   D(4,7,9,12)           179.9847         estimate D2E/DX2                !
 ! D35   D(10,7,9,8)          -179.9597         estimate D2E/DX2                !
 ! D36   D(10,7,9,12)            0.0693         estimate D2E/DX2                !
 ! D37   D(5,8,9,7)              0.0414         estimate D2E/DX2                !
 ! D38   D(5,8,9,12)          -179.9913         estimate D2E/DX2                !
 ! D39   D(11,8,9,7)          -179.9702         estimate D2E/DX2                !
 ! D40   D(11,8,9,12)           -0.0029         estimate D2E/DX2                !
 --------------------------------------------------------------------------------
 Trust Radius=3.00D-01 FncErr=1.00D-07 GrdErr=1.00D-06 EigMax=2.50D+02 EigMin=1.00D-04
 Number of steps in this run=     94 maximum allowed number of steps=    100.
 GradGradGradGradGradGradGradGradGradGradGradGradGradGradGradGradGradGrad

                          Input orientation:                          
 ---------------------------------------------------------------------
 Center     Atomic      Atomic             Coordinates (Angstroms)
 Number     Number       Type             X           Y           Z
 ---------------------------------------------------------------------
      1          6           0       -2.151063    0.689208    0.000088
      2          6           0       -2.127927   -0.715818    0.000075
      3          6           0       -0.932297   -1.413100   -0.000011
      4          6           0        0.246911   -0.670201   -0.000042
      5          6           0        0.248193    0.748299    0.000000
      6          6           0       -0.979474    1.423526    0.000032
      7          7           0        1.561774   -1.077592   -0.000285
      8          6           0        1.620133    1.162900   -0.000157
      9          6           0        2.382013    0.030806    0.000248
     10          1           0        1.876315   -2.030011    0.000438
     11          1           0        1.992173    2.173010   -0.000348
     12          1           0        3.452549   -0.082425    0.000408
     13          1           0       -3.061594   -1.262020    0.000088
     14          1           0       -0.917252   -2.495342   -0.000073
     15          1           0       -3.104203    1.200785    0.000090
     16          1           0       -1.009348    2.505421   -0.000015
 ---------------------------------------------------------------------
                    Distance matrix (angstroms):
                    1          2          3          4          5
     1  C    0.000000
     2  C    1.405216   0.000000
     3  C    2.430039   1.384100   0.000000
     4  C    2.756496   2.375276   1.393711   0.000000
     5  C    2.399984   2.790983   2.462763   1.418501   0.000000
     6  C    1.382694   2.428114   2.837018   2.426461   1.401106
     7  N    4.111781   3.707395   2.516536   1.376529   2.249305
     8  C    3.800829   4.192557   3.626386   2.290414   1.433218
     9  C    4.580641   4.571324   3.615178   2.247236   2.251218
    10  H    4.859416   4.214387   2.875566   2.122273   3.220216
    11  H    4.400917   5.031953   4.627387   3.336134   2.251948
    12  H    5.656491   5.616307   4.582311   3.259079   3.310287
    13  H    2.153220   1.081698   2.134650   3.361020   3.872476
    14  H    3.415208   2.152310   1.082347   2.164813   3.446661
    15  H    1.081752   2.150926   3.398466   3.838040   3.382795
    16  H    2.145261   3.409927   3.919278   3.415079   2.160761
                    6          7          8          9         10
     6  C    0.000000
     7  N    3.565604   0.000000
     8  C    2.612639   2.241252   0.000000
     9  C    3.638580   1.378890   1.364587   0.000000
    10  H    4.481345   1.003015   3.203172   2.121956   0.000000
    11  H    3.064704   3.278972   1.076446   2.177387   4.204618
    12  H    4.680888   2.136677   2.215532   1.076508   2.505515
    13  H    3.398144   4.627045   5.272457   5.595021   4.997275
    14  H    3.919362   2.855798   4.452085   4.155307   2.832058
    15  H    2.136372   5.192528   4.724488   5.609583   5.936632
    16  H    1.082307   4.410062   2.952378   4.198220   5.375611
                   11         12         13         14         15
    11  H    0.000000
    12  H    2.686947   0.000000
    13  H    6.110646   6.620083   0.000000
    14  H    5.500751   4.991726   2.473719   0.000000
    15  H    5.188282   6.681139   2.463174   4.294661   0.000000
    16  H    3.019872   5.158049   4.290143   5.001611   2.467892
                   16
    16  H    0.000000
 Stoichiometry    C8H7N
 Framework group  C1[X(C8H7N)]
 Deg. of freedom    42
 Full point group                 C1      NOp   1
 Largest Abelian subgroup         C1      NOp   1
 Largest concise Abelian subgroup C1      NOp   1
                         Standard orientation:                         
 ---------------------------------------------------------------------
 Center     Atomic      Atomic             Coordinates (Angstroms)
 Number     Number       Type             X           Y           Z
 ---------------------------------------------------------------------
      1          6           0       -2.151063    0.689208    0.000088
      2          6           0       -2.127927   -0.715818    0.000075
      3          6           0       -0.932297   -1.413100   -0.000011
      4          6           0        0.246911   -0.670201   -0.000042
      5          6           0        0.248193    0.748299    0.000000
      6          6           0       -0.979474    1.423526    0.000032
      7          7           0        1.561774   -1.077592   -0.000285
      8          6           0        1.620133    1.162900   -0.000157
      9          6           0        2.382013    0.030806    0.000248
     10          1           0        1.876315   -2.030011    0.000438
     11          1           0        1.992173    2.173010   -0.000348
     12          1           0        3.452549   -0.082425    0.000408
     13          1           0       -3.061594   -1.262020    0.000088
     14          1           0       -0.917252   -2.495342   -0.000073
     15          1           0       -3.104203    1.200785    0.000090
     16          1           0       -1.009348    2.505421   -0.000015
 ---------------------------------------------------------------------
 Rotational constants (GHZ):           3.9080822           1.6429452           1.1566805
 Standard basis: 6-31+G(d) (6D, 7F)
 There are   185 symmetry adapted cartesian basis functions of A   symmetry.
 There are   185 symmetry adapted basis functions of A   symmetry.
   185 basis functions,   316 primitive gaussians,   185 cartesian basis functions
    31 alpha electrons       31 beta electrons
       nuclear repulsion energy       401.3368668897 Hartrees.
 NAtoms=   16 NActive=   16 NUniq=   16 SFac= 1.00D+00 NAtFMM=   60 NAOKFM=F Big=F
 Integral buffers will be    131072 words long.
 Regular integral format.
 Two-electron integral symmetry is turned on.
 Nuclear repulsion after empirical dispersion term =      401.3276757835 Hartrees.
 One-electron integrals computed using PRISM.
 NBasis=   185 RedAO= T EigKep=  1.26D-06  NBF=   185
 NBsUse=   185 1.00D-06 EigRej= -1.00D+00 NBFU=   185
 ExpMin= 4.38D-02 ExpMax= 4.17D+03 ExpMxC= 6.27D+02 IAcc=3 IRadAn=         5 AccDes= 0.00D+00
 Harris functional with IExCor=  402 and IRadAn=       5 diagonalized for initial guess.
 HarFok:  IExCor=  402 AccDes= 0.00D+00 IRadAn=         5 IDoV= 1 UseB2=F ITyADJ=14
 ICtDFT=  3500011 ScaDFX=  1.000000  1.000000  1.000000  1.000000
 FoFCou: FMM=F IPFlag=           0 FMFlag=      100000 FMFlg1=           0
         NFxFlg=           0 DoJE=T BraDBF=F KetDBF=T FulRan=T
         wScrn=  0.000000 ICntrl=       500 IOpCl=  0 I1Cent=   200000004 NGrid=           0
         NMat0=    1 NMatS0=      1 NMatT0=    0 NMatD0=    1 NMtDS0=    0 NMtDT0=    0
 Petite list used in FoFCou.
 Keep R1 ints in memory in canonical form, NReq=152071459.
 Requested convergence on RMS density matrix=1.00D-08 within 128 cycles.
 Requested convergence on MAX density matrix=1.00D-06.
 Requested convergence on             energy=1.00D-06.
 No special actions if energy rises.
 SCF Done:  E(RB3LYP) =  -363.840468596     A.U. after   14 cycles
            NFock= 14  Conv=0.79D-08     -V/T= 2.0093
 DoSCS=F DFT=T ScalE2(SS,OS)=  1.000000  1.000000
 ExpMin= 4.38D-02 ExpMax= 4.17D+03 ExpMxC= 6.27D+02 IAcc=3 IRadAn=         5 AccDes= 0.00D+00
 HarFok:  IExCor=  205 AccDes= 0.00D+00 IRadAn=         5 IDoV=-2 UseB2=F ITyADJ=14
 ICtDFT= 12500011 ScaDFX=  1.000000  1.000000  1.000000  1.000000
 Range of M.O.s used for correlation:    10   185
 NBasis=   185 NAE=    31 NBE=    31 NFC=     9 NFV=     0
 NROrb=    176 NOA=    22 NOB=    22 NVA=   154 NVB=   154

 **** Warning!!: The largest alpha MO coefficient is  0.17824376D+03

 Orbital symmetries:
       Occupied  (A) (A) (A) (A) (A) (A) (A) (A) (A) (A) (A) (A)
                 (A) (A) (A) (A) (A) (A) (A) (A) (A) (A) (A) (A)
                 (A) (A) (A) (A) (A) (A) (A)
       Virtual   (A) (A) (A) (A) (A) (A) (A) (A) (A) (A) (A) (A)
                 (A) (A) (A) (A) (A) (A) (A) (A) (A) (A) (A) (A)
                 (A) (A) (A) (A) (A) (A) (A) (A) (A) (A) (A) (A)
                 (A) (A) (A) (A) (A) (A) (A) (A) (A) (A) (A) (A)
                 (A) (A) (A) (A) (A) (A) (A) (A) (A) (A) (A) (A)
                 (A) (A) (A) (A) (A) (A) (A) (A) (A) (A) (A) (A)
                 (A) (A) (A) (A) (A) (A) (A) (A) (A) (A) (A) (A)
                 (A) (A) (A) (A) (A) (A) (A) (A) (A) (A) (A) (A)
                 (A) (A) (A) (A) (A) (A) (A) (A) (A) (A) (A) (A)
                 (A) (A) (A) (A) (A) (A) (A) (A) (A) (A) (A) (A)
                 (A) (A) (A) (A) (A) (A) (A) (A) (A) (A) (A) (A)
                 (A) (A) (A) (A) (A) (A) (A) (A) (A) (A) (A) (A)
                 (A) (A) (A) (A) (A) (A) (A) (A) (A) (A)
    24 initial guesses have been made.
 Convergence on wavefunction:    0.000001000000000
 Iteration     1 Dimension    24 NMult     0 NNew     24
 CISAX will form    24 AO SS matrices at one time.
 New state      1 was old state      2
 New state      2 was old state      3
 New state      3 was old state      1
 New state      6 was old state      7
 Iteration     2 Dimension    36 NMult    24 NNew     12
 New state      1 was old state      3
 New state      2 was old state      1
 New state      3 was old state      2
 Iteration     3 Dimension    48 NMult    36 NNew     12
 Iteration     4 Dimension    60 NMult    48 NNew     12
 Iteration     5 Dimension    72 NMult    60 NNew     12
 Iteration     6 Dimension    84 NMult    72 NNew     12
 Iteration     7 Dimension    96 NMult    84 NNew     12
 Iteration     8 Dimension   108 NMult    96 NNew     12
 Iteration     9 Dimension   118 NMult   108 NNew     10
 Iteration    10 Dimension   122 NMult   118 NNew      4
 Iteration    11 Dimension   126 NMult   122 NNew      4
 ***********************************************************************
 Excited states from <AA,BB:AA,BB> singles matrix:
 ***********************************************************************
 
 Ground to excited state transition densities written to RWF  633
 Ground to excited state transition electric dipole moments (Au):
       state          X           Y           Z        Dip. S.      Osc.
         1        -0.5516      0.6146     -0.0005      0.6820      0.0796
         2         0.0014     -0.0022     -0.1323      0.0175      0.0021
         3        -0.5363     -0.1123      0.0000      0.3003      0.0362
         4        -0.0003      0.0002     -0.1396      0.0195      0.0025
         5         0.0003     -0.0000      0.0163      0.0003      0.0000
         6         0.0004      0.0002      0.1108      0.0123      0.0017
 Ground to excited state transition velocity dipole moments (Au):
       state          X           Y           Z        Dip. S.      Osc.
         1         0.0875     -0.1164      0.0001      0.0212      0.0807
         2        -0.0002      0.0004      0.0139      0.0002      0.0007
         3         0.0914      0.0211      0.0000      0.0088      0.0324
         4         0.0001     -0.0000      0.0286      0.0008      0.0028
         5        -0.0001      0.0000     -0.0019      0.0000      0.0000
         6        -0.0001     -0.0000     -0.0223      0.0005      0.0016
 Ground to excited state transition magnetic dipole moments (Au):
       state          X           Y           Z
         1         0.0006     -0.0002      0.1933
         2         0.1247     -0.0610     -0.0004
         3        -0.0002     -0.0002     -0.0275
         4         0.0356     -0.2211      0.0000
         5         0.3059     -0.1269      0.0002
         6         0.0901      0.3586      0.0004
 Ground to excited state transition velocity quadrupole moments (Au):
       state          XX          YY          ZZ          XY          XZ          YZ
         1         0.1917     -0.1099      0.0140      0.0551      0.0002      0.0002
         2        -0.0006      0.0003      0.0001     -0.0001      0.0532      0.0536
         3         0.0720     -0.1061      0.0276      0.0011      0.0001     -0.0001
         4        -0.0000      0.0001     -0.0000     -0.0000      0.1481     -0.0220
         5        -0.0002     -0.0001      0.0000      0.0001      0.1597      0.2504
         6         0.0001     -0.0001      0.0000      0.0002     -0.3147     -0.0014
 <0|del|b> * <b|rxdel|0> + <0|del|b> * <b|delr+rdel|0>
 Rotatory Strengths (R) in cgs (10**-40 erg-esu-cm/Gauss)
       state          XX          YY          ZZ    R(velocity)    E-M Angle
         1         0.1217      0.1575      0.0614      0.1135       90.00
         2        -0.1095     -0.0875     -0.0377     -0.0782       90.00
         3        -0.0090     -0.0512     -0.0202     -0.0268       90.00
         4         0.0237      0.0028      0.0104      0.0123       90.00
         5        -0.0051     -0.0630     -0.0058     -0.0247       90.00
         6        -0.0445     -0.0211     -0.0142     -0.0266       90.00
 1/2[<0|r|b>*<b|rxdel|0> + (<0|rxdel|b>*<b|r|0>)*]
 Rotatory Strengths (R) in cgs (10**-40 erg-esu-cm/Gauss)
       state          XX          YY          ZZ     R(length)
         1         0.2342      0.0815      0.0663      0.1273
         2        -0.1265     -0.0928     -0.0415     -0.0869
         3        -0.0707     -0.0126      0.0004     -0.0276
         4         0.0064      0.0258      0.0020      0.0114
         5        -0.0737     -0.0037     -0.0020     -0.0265
         6        -0.0269     -0.0397     -0.0307     -0.0325
  1/2[<0|del|b>*<b|r|0> + (<0|r|b>*<b|del|0>)*] (Au)
       state          X           Y           Z        Dip. S.   Osc.(frdel)
         1        -0.0482     -0.0715     -0.0000      0.1198      0.0798
         2        -0.0000     -0.0000     -0.0018      0.0018      0.0012
         3        -0.0490     -0.0024      0.0000      0.0514      0.0342
         4        -0.0000     -0.0000     -0.0040      0.0040      0.0027
         5        -0.0000     -0.0000     -0.0000      0.0000      0.0000
         6        -0.0000     -0.0000     -0.0025      0.0025      0.0017

 Excitation energies and oscillator strengths:
 
 Excited State   1:      Singlet-A      4.7646 eV  260.22 nm  f=0.0796  <S**2>=0.000
      30 -> 32        -0.12786
      30 -> 35         0.15179
      31 -> 32         0.66373
 
 Excited State   2:      Singlet-A      4.8333 eV  256.52 nm  f=0.0021  <S**2>=0.000
      31 -> 33         0.70418
 
 Excited State   3:      Singlet-A      4.9145 eV  252.28 nm  f=0.0362  <S**2>=0.000
      30 -> 32         0.56579
      31 -> 32         0.10340
      31 -> 35        -0.40138
 This state for optimization and/or second-order correction.
 Total Energy, E(TD-HF/TD-DFT) =  -363.659864198    
 Copying the excited state density for this state as the 1-particle RhoCI density.
 
 Excited State   4:      Singlet-A      5.2999 eV  233.94 nm  f=0.0025  <S**2>=0.000
      30 -> 33         0.69643
 
 Excited State   5:      Singlet-A      5.4216 eV  228.69 nm  f=0.0000  <S**2>=0.000
      31 -> 34         0.69547
 
 Excited State   6:      Singlet-A      5.5422 eV  223.71 nm  f=0.0017  <S**2>=0.000
      31 -> 36         0.69895
 SavETr:  write IOETrn=   770 NScale= 10 NData=  16 NLR=1 NState=    6 LETran=     118.
          IDoAtm=1111111111111111
          Differentiating once with respect to electric field.
                with respect to dipole field.
          Differentiating once with respect to nuclear coordinates.
 Keep R1 ints in memory in canonical form, NReq=152083851.
          There are     1 degrees of freedom in the 1st order CPHF.  IDoFFX=0 NUNeed=     1.
 LinEq1:  Iter=  0 NonCon=     1 RMS=5.51D-03 Max=1.66D-01 NDo=     1
 AX will form     1 AO Fock derivatives at one time.
 LinEq1:  Iter=  1 NonCon=     1 RMS=2.39D-03 Max=6.50D-02 NDo=     1
 LinEq1:  Iter=  2 NonCon=     1 RMS=2.18D-03 Max=7.46D-02 NDo=     1
 LinEq1:  Iter=  3 NonCon=     1 RMS=8.72D-04 Max=1.82D-02 NDo=     1
 LinEq1:  Iter=  4 NonCon=     1 RMS=5.01D-04 Max=1.70D-02 NDo=     1
 LinEq1:  Iter=  5 NonCon=     1 RMS=2.59D-04 Max=5.23D-03 NDo=     1
 LinEq1:  Iter=  6 NonCon=     1 RMS=1.67D-04 Max=4.02D-03 NDo=     1
 LinEq1:  Iter=  7 NonCon=     1 RMS=6.94D-05 Max=1.31D-03 NDo=     1
 LinEq1:  Iter=  8 NonCon=     1 RMS=4.95D-05 Max=1.24D-03 NDo=     1
 LinEq1:  Iter=  9 NonCon=     1 RMS=1.55D-05 Max=3.72D-04 NDo=     1
 LinEq1:  Iter= 10 NonCon=     1 RMS=1.24D-05 Max=2.73D-04 NDo=     1
 LinEq1:  Iter= 11 NonCon=     1 RMS=4.21D-06 Max=9.75D-05 NDo=     1
 LinEq1:  Iter= 12 NonCon=     1 RMS=2.82D-06 Max=5.55D-05 NDo=     1
 LinEq1:  Iter= 13 NonCon=     1 RMS=9.06D-07 Max=1.06D-05 NDo=     1
 LinEq1:  Iter= 14 NonCon=     1 RMS=2.80D-07 Max=6.48D-06 NDo=     1
 LinEq1:  Iter= 15 NonCon=     1 RMS=1.64D-07 Max=2.38D-06 NDo=     1
 LinEq1:  Iter= 16 NonCon=     1 RMS=3.51D-08 Max=6.06D-07 NDo=     1
 LinEq1:  Iter= 17 NonCon=     1 RMS=1.88D-08 Max=4.68D-07 NDo=     1
 LinEq1:  Iter= 18 NonCon=     1 RMS=7.96D-09 Max=1.40D-07 NDo=     1
 LinEq1:  Iter= 19 NonCon=     1 RMS=1.46D-09 Max=1.88D-08 NDo=     1
 LinEq1:  Iter= 20 NonCon=     1 RMS=3.38D-10 Max=3.66D-09 NDo=     1
 LinEq1:  Iter= 21 NonCon=     1 RMS=1.13D-10 Max=1.27D-09 NDo=     1
 LinEq1:  Iter= 22 NonCon=     0 RMS=2.51D-11 Max=2.83D-10 NDo=     1
 Linear equations converged to 1.000D-10 1.000D-09 after    22 iterations.
 End of Minotr F.D. properties file   721 does not exist.
 End of Minotr F.D. properties file   722 does not exist.
 End of Minotr F.D. properties file   788 does not exist.

 **********************************************************************

            Population analysis using the CI Density.

 **********************************************************************

 Orbital symmetries:
       Occupied  (A) (A) (A) (A) (A) (A) (A) (A) (A) (A) (A) (A)
                 (A) (A) (A) (A) (A) (A) (A) (A) (A) (A) (A) (A)
                 (A) (A) (A) (A) (A) (A) (A)
       Virtual   (A) (A) (A) (A) (A) (A) (A) (A) (A) (A) (A) (A)
                 (A) (A) (A) (A) (A) (A) (A) (A) (A) (A) (A) (A)
                 (A) (A) (A) (A) (A) (A) (A) (A) (A) (A) (A) (A)
                 (A) (A) (A) (A) (A) (A) (A) (A) (A) (A) (A) (A)
                 (A) (A) (A) (A) (A) (A) (A) (A) (A) (A) (A) (A)
                 (A) (A) (A) (A) (A) (A) (A) (A) (A) (A) (A) (A)
                 (A) (A) (A) (A) (A) (A) (A) (A) (A) (A) (A) (A)
                 (A) (A) (A) (A) (A) (A) (A) (A) (A) (A) (A) (A)
                 (A) (A) (A) (A) (A) (A) (A) (A) (A) (A) (A) (A)
                 (A) (A) (A) (A) (A) (A) (A) (A) (A) (A) (A) (A)
                 (A) (A) (A) (A) (A) (A) (A) (A) (A) (A) (A) (A)
                 (A) (A) (A) (A) (A) (A) (A) (A) (A) (A) (A) (A)
                 (A) (A) (A) (A) (A) (A) (A) (A) (A) (A)
 The electronic state is 1-A.
 Alpha  occ. eigenvalues --  -14.38639 -10.22450 -10.22177 -10.19187 -10.18708
 Alpha  occ. eigenvalues --  -10.18636 -10.18630 -10.18143 -10.17932  -0.98746
 Alpha  occ. eigenvalues --   -0.84407  -0.78757  -0.74015  -0.72195  -0.62920
 Alpha  occ. eigenvalues --   -0.60011  -0.58642  -0.54501  -0.48780  -0.47585
 Alpha  occ. eigenvalues --   -0.44251  -0.43433  -0.42583  -0.41626  -0.39683
 Alpha  occ. eigenvalues --   -0.36016  -0.34003  -0.33810  -0.28281  -0.22714
 Alpha  occ. eigenvalues --   -0.21044
 Alpha virt. eigenvalues --   -0.01809  -0.00384   0.01537   0.01790   0.02130
 Alpha virt. eigenvalues --    0.03659   0.03775   0.04409   0.05749   0.06009
 Alpha virt. eigenvalues --    0.06526   0.06634   0.08445   0.08819   0.10612
 Alpha virt. eigenvalues --    0.10693   0.11055   0.12528   0.13479   0.13696
 Alpha virt. eigenvalues --    0.15376   0.15700   0.16525   0.16653   0.17133
 Alpha virt. eigenvalues --    0.18215   0.18619   0.18820   0.19649   0.19926
 Alpha virt. eigenvalues --    0.20162   0.20268   0.21784   0.22411   0.23045
 Alpha virt. eigenvalues --    0.23460   0.23635   0.24554   0.25558   0.26043
 Alpha virt. eigenvalues --    0.27077   0.27367   0.27824   0.29717   0.30239
 Alpha virt. eigenvalues --    0.30945   0.31607   0.33210   0.35144   0.36803
 Alpha virt. eigenvalues --    0.37966   0.40026   0.43564   0.45053   0.51385
 Alpha virt. eigenvalues --    0.58156   0.62386   0.67098   0.67585   0.69554
 Alpha virt. eigenvalues --    0.71379   0.71752   0.72973   0.73318   0.73925
 Alpha virt. eigenvalues --    0.74948   0.75407   0.77432   0.78843   0.79684
 Alpha virt. eigenvalues --    0.81335   0.84993   0.88957   0.89551   0.90678
 Alpha virt. eigenvalues --    0.93040   0.93684   0.94822   0.95702   0.97948
 Alpha virt. eigenvalues --    0.99808   1.02664   1.04498   1.05974   1.09425
 Alpha virt. eigenvalues --    1.11323   1.11710   1.16948   1.17932   1.20517
 Alpha virt. eigenvalues --    1.22368   1.23949   1.25229   1.31584   1.32594
 Alpha virt. eigenvalues --    1.34540   1.36626   1.41640   1.41917   1.44830
 Alpha virt. eigenvalues --    1.46456   1.47165   1.50222   1.50790   1.53718
 Alpha virt. eigenvalues --    1.58834   1.65108   1.79087   1.84664   1.88552
 Alpha virt. eigenvalues --    1.89652   1.92272   1.94119   1.99553   1.99943
 Alpha virt. eigenvalues --    2.01054   2.06550   2.10168   2.14500   2.17464
 Alpha virt. eigenvalues --    2.18004   2.20038   2.25508   2.26665   2.27173
 Alpha virt. eigenvalues --    2.28952   2.31755   2.38739   2.41544   2.44927
 Alpha virt. eigenvalues --    2.55165   2.56594   2.64077   2.66229   2.67750
 Alpha virt. eigenvalues --    2.70246   2.73885   2.81319   2.85011   2.86093
 Alpha virt. eigenvalues --    2.95967   2.98354   3.11788   3.24621   3.45346
 Alpha virt. eigenvalues --    4.14970   4.25604   4.28599   4.32147   4.35711
 Alpha virt. eigenvalues --    4.39366   4.47707   4.51642   4.78799
          Condensed to atoms (all electrons):
               1          2          3          4          5          6
     1  C    5.859260   0.356394   0.085956  -0.478966  -0.196995  -0.089684
     2  C    0.356394   5.957269  -0.114266   0.354626  -0.704440   0.574287
     3  C    0.085956  -0.114266  14.399977  -3.623674  -3.535144  -2.884768
     4  C   -0.478966   0.354626  -3.623674  14.504880  -3.011135  -0.866331
     5  C   -0.196995  -0.704440  -3.535144  -3.011135  15.299797  -0.786650
     6  C   -0.089684   0.574287  -2.884768  -0.866331  -0.786650  12.984150
     7  N   -0.035590   0.010295  -0.457735  -0.444625   0.786968   0.157171
     8  C    0.228869  -0.312838   3.593418   0.594108  -5.463990  -3.432740
     9  C   -0.086134   0.042279  -1.368028  -0.308156   2.126890   0.941054
    10  H   -0.002372  -0.012952  -0.144319  -0.088307   0.193063   0.032057
    11  H   -0.000511   0.000916   0.006176   0.076375  -0.066083  -0.035309
    12  H    0.000551   0.000769   0.029884   0.095071  -0.075204  -0.027171
    13  H   -0.018922   0.299423  -0.029387   0.030281  -0.006144   0.023371
    14  H    0.023090   0.015218   0.258259  -0.001756   0.022102  -0.026107
    15  H    0.316682  -0.025552   0.032327  -0.025352   0.037794  -0.040719
    16  H   -0.004917   0.026414  -0.045974   0.031073   0.038760   0.288737
               7          8          9         10         11         12
     1  C   -0.035590   0.228869  -0.086134  -0.002372  -0.000511   0.000551
     2  C    0.010295  -0.312838   0.042279  -0.012952   0.000916   0.000769
     3  C   -0.457735   3.593418  -1.368028  -0.144319   0.006176   0.029884
     4  C   -0.444625   0.594108  -0.308156  -0.088307   0.076375   0.095071
     5  C    0.786968  -5.463990   2.126890   0.193063  -0.066083  -0.075204
     6  C    0.157171  -3.432740   0.941054   0.032057  -0.035309  -0.027171
     7  N    7.391307  -0.631195   0.498959   0.272840   0.007120  -0.060643
     8  C   -0.631195  13.561009  -2.625873   0.010131   0.357593  -0.011587
     9  C    0.498959  -2.625873   6.803165  -0.033398  -0.053918   0.351224
    10  H    0.272840   0.010131  -0.033398   0.355862  -0.000103  -0.002733
    11  H    0.007120   0.357593  -0.053918  -0.000103   0.513047  -0.001117
    12  H   -0.060643  -0.011587   0.351224  -0.002733  -0.001117   0.500650
    13  H   -0.000502  -0.001928   0.001593  -0.000002   0.000000  -0.000000
    14  H   -0.009483  -0.006063   0.006986   0.002231   0.000002   0.000002
    15  H    0.000293   0.003210  -0.000100  -0.000000  -0.000002  -0.000000
    16  H   -0.000864  -0.054629   0.004736   0.000005   0.001596  -0.000002
              13         14         15         16
     1  C   -0.018922   0.023090   0.316682  -0.004917
     2  C    0.299423   0.015218  -0.025552   0.026414
     3  C   -0.029387   0.258259   0.032327  -0.045974
     4  C    0.030281  -0.001756  -0.025352   0.031073
     5  C   -0.006144   0.022102   0.037794   0.038760
     6  C    0.023371  -0.026107  -0.040719   0.288737
     7  N   -0.000502  -0.009483   0.000293  -0.000864
     8  C   -0.001928  -0.006063   0.003210  -0.054629
     9  C    0.001593   0.006986  -0.000100   0.004736
    10  H   -0.000002   0.002231  -0.000000   0.000005
    11  H    0.000000   0.000002  -0.000002   0.001596
    12  H   -0.000000   0.000002  -0.000000  -0.000002
    13  H    0.532659  -0.004784  -0.004836  -0.000162
    14  H   -0.004784   0.542851  -0.000162   0.000019
    15  H   -0.004836  -0.000162   0.531323  -0.004708
    16  H   -0.000162   0.000019  -0.004708   0.539787
 Mulliken charges:
               1
     1  C    0.043289
     2  C   -0.467842
     3  C   -0.202702
     4  C   -0.838112
     5  C    1.340412
     6  C   -0.811348
     7  N   -0.484316
     8  C    0.192506
     9  C   -0.301280
    10  H    0.417999
    11  H    0.194219
    12  H    0.200307
    13  H    0.179341
    14  H    0.177595
    15  H    0.179803
    16  H    0.180129
 Sum of Mulliken charges =  -0.00000
 Mulliken charges with hydrogens summed into heavy atoms:
               1
     1  C    0.223092
     2  C   -0.288502
     3  C   -0.025107
     4  C   -0.838112
     5  C    1.340412
     6  C   -0.631219
     7  N   -0.066317
     8  C    0.386726
     9  C   -0.100973
 Electronic spatial extent (au):  <R**2>=           1008.7336
 Charge=             -0.0000 electrons
 Dipole moment (field-independent basis, Debye):
    X=              2.1596    Y=             -1.3620    Z=              0.0006  Tot=              2.5532
 Quadrupole moment (field-independent basis, Debye-Ang):
   XX=            -46.6700   YY=            -46.7983   ZZ=            -59.9253
   XY=             -2.9325   XZ=              0.0015   YZ=             -0.0030
 Traceless Quadrupole moment (field-independent basis, Debye-Ang):
   XX=              4.4612   YY=              4.3329   ZZ=             -8.7941
   XY=             -2.9325   XZ=              0.0015   YZ=             -0.0030
 Octapole moment (field-independent basis, Debye-Ang**2):
  XXX=             17.3801  YYY=             -9.2088  ZZZ=             -0.0063  XYY=             11.3879
  XXY=             -6.8459  XXZ=              0.0041  XZZ=              2.9644  YZZ=             -1.1986
  YYZ=              0.0014  XYZ=             -0.0042
 Hexadecapole moment (field-independent basis, Debye-Ang**3):
 XXXX=           -852.3989 YYYY=           -392.5980 ZZZZ=            -84.6582 XXXY=            -19.5271
 XXXZ=              0.0115 YYYX=            -18.9625 YYYZ=             -0.0120 ZZZX=             -0.0050
 ZZZY=              0.0012 XXYY=           -201.8534 XXZZ=           -200.2982 YYZZ=           -101.7887
 XXYZ=             -0.0199 YYXZ=              0.0053 ZZXY=             -3.3394
 N-N= 4.013276757835D+02 E-N=-1.645172614316D+03  KE= 3.606760263788D+02
 Calling FoFJK, ICntrl=  10005127 FMM=F ISym2X=0 I1Cent= 0 IOpClX= 0 NMat=1 NMatS=1 NMatT=0.
 ***** Axes restored to original set *****
 -------------------------------------------------------------------
 Center     Atomic                   Forces (Hartrees/Bohr)
 Number     Number              X              Y              Z
 -------------------------------------------------------------------
      1        6          -0.025605314    0.004251984    0.000005808
      2        6          -0.020161569   -0.011295293   -0.000007197
      3        6           0.005063339   -0.030197987    0.000004831
      4        6           0.012868912   -0.016500028    0.000006417
      5        6           0.016577629    0.026226793   -0.000036524
      6        6           0.016880311    0.032180577   -0.000006603
      7        7          -0.009447977   -0.007644479    0.000022196
      8        6          -0.022659901    0.013601226    0.000034769
      9        6           0.025263777   -0.008085057   -0.000037272
     10        1           0.001491927   -0.005278198    0.000004744
     11        1           0.000854179    0.003569239    0.000008178
     12        1           0.003467280   -0.000434224   -0.000002345
     13        1          -0.002692544   -0.001578971   -0.000000284
     14        1           0.000386474   -0.002826756   -0.000001015
     15        1          -0.002855809    0.001358220    0.000001992
     16        1           0.000569284    0.002652953    0.000002304
 -------------------------------------------------------------------
 Cartesian Forces:  Max     0.032180577 RMS     0.011643314

 GradGradGradGradGradGradGradGradGradGradGradGradGradGradGradGradGradGrad
 Berny optimization.
 FormGI is forming the generalized inverse of G from B-inverse, IUseBI=4.
 Internal  Forces:  Max     0.037188552 RMS     0.008580259
 Search for a local minimum.
 Step number   1 out of a maximum of   94
 All quantities printed in internal units (Hartrees-Bohrs-Radians)
 Mixed Optimization -- RFO/linear search
 Second derivative matrix not updated -- first step.
 ITU=  0
     Eigenvalues ---    0.01853   0.01931   0.01986   0.02012   0.02070
     Eigenvalues ---    0.02113   0.02148   0.02153   0.02172   0.02209
     Eigenvalues ---    0.02233   0.02248   0.02338   0.16000   0.16000
     Eigenvalues ---    0.16000   0.16000   0.16000   0.16000   0.16000
     Eigenvalues ---    0.22000   0.22188   0.22662   0.24011   0.24651
     Eigenvalues ---    0.35712   0.35717   0.35783   0.35790   0.36420
     Eigenvalues ---    0.36427   0.37009   0.38432   0.42633   0.43465
     Eigenvalues ---    0.45769   0.46692   0.47162   0.47468   0.47567
     Eigenvalues ---    0.48125   0.50955
 RFO step:  Lambda=-1.31893798D-02 EMin= 1.85287394D-02
 Linear search not attempted -- first point.
 Iteration  1 RMS(Cart)=  0.02731038 RMS(Int)=  0.00011246
 Iteration  2 RMS(Cart)=  0.00017373 RMS(Int)=  0.00001419
 Iteration  3 RMS(Cart)=  0.00000002 RMS(Int)=  0.00001419
 Variable       Old X    -DE/DX   Delta X   Delta X   Delta X     New X
                                 (Linear)    (Quad)   (Total)
    R1        2.65547   0.02919   0.00000   0.06415   0.06414   2.71961
    R2        2.61291   0.03719   0.00000   0.07494   0.07494   2.68785
    R3        2.04421   0.00316   0.00000   0.00851   0.00851   2.05273
    R4        2.61557   0.02741   0.00000   0.05551   0.05549   2.67106
    R5        2.04411   0.00312   0.00000   0.00841   0.00841   2.05252
    R6        2.63373   0.02308   0.00000   0.04761   0.04761   2.68134
    R7        2.04534   0.00283   0.00000   0.00765   0.00765   2.05299
    R8        2.68058   0.03457   0.00000   0.07665   0.07663   2.75721
    R9        2.60126   0.00365   0.00000   0.00708   0.00708   2.60834
   R10        2.64771   0.01563   0.00000   0.03310   0.03311   2.68082
   R11        2.70839  -0.00508   0.00000  -0.01269  -0.01271   2.69568
   R12        2.04526   0.00264   0.00000   0.00712   0.00712   2.05238
   R13        2.60573   0.01604   0.00000   0.03253   0.03257   2.63829
   R14        1.89542   0.00548   0.00000   0.01130   0.01130   1.90673
   R15        2.57870   0.02635   0.00000   0.05000   0.05002   2.62872
   R16        2.03419   0.00364   0.00000   0.00965   0.00965   2.04384
   R17        2.03430   0.00349   0.00000   0.00926   0.00926   2.04356
    A1        2.11420   0.00241   0.00000   0.01288   0.01286   2.12707
    A2        2.07986  -0.00136   0.00000  -0.00734  -0.00734   2.07252
    A3        2.08912  -0.00105   0.00000  -0.00554  -0.00553   2.08360
    A4        2.11523   0.00052   0.00000   0.00451   0.00448   2.11971
    A5        2.08365  -0.00026   0.00000  -0.00224  -0.00222   2.08143
    A6        2.08430  -0.00026   0.00000  -0.00227  -0.00226   2.08205
    A7        2.05144  -0.00432   0.00000  -0.01883  -0.01886   2.03258
    A8        2.11267   0.00252   0.00000   0.01146   0.01147   2.12414
    A9        2.11908   0.00181   0.00000   0.00737   0.00738   2.12646
   A10        2.13389   0.00405   0.00000   0.01429   0.01431   2.14819
   A11        2.27895  -0.00350   0.00000  -0.01095  -0.01094   2.26801
   A12        1.87035  -0.00055   0.00000  -0.00334  -0.00337   1.86698
   A13        2.07274   0.00250   0.00000   0.00896   0.00901   2.08175
   A14        1.86517  -0.00085   0.00000  -0.00531  -0.00536   1.85981
   A15        2.34527  -0.00164   0.00000  -0.00366  -0.00365   2.34162
   A16        2.07887  -0.00515   0.00000  -0.02181  -0.02180   2.05707
   A17        2.10306   0.00323   0.00000   0.01470   0.01470   2.11776
   A18        2.10125   0.00192   0.00000   0.00711   0.00711   2.10836
   A19        1.90743   0.00129   0.00000   0.00630   0.00634   1.91376
   A20        2.19023  -0.00087   0.00000  -0.00446  -0.00448   2.18575
   A21        2.18553  -0.00042   0.00000  -0.00184  -0.00186   2.18367
   A22        1.86968   0.00294   0.00000   0.01227   0.01227   1.88196
   A23        2.21717  -0.00191   0.00000  -0.00867  -0.00867   2.20850
   A24        2.19633  -0.00103   0.00000  -0.00360  -0.00360   2.19273
   A25        1.91215  -0.00283   0.00000  -0.00993  -0.00988   1.90227
   A26        2.10250   0.00134   0.00000   0.00457   0.00454   2.10704
   A27        2.26854   0.00148   0.00000   0.00536   0.00534   2.27388
    D1       -0.00001   0.00000   0.00000   0.00009   0.00009   0.00007
    D2       -3.14156   0.00000   0.00000   0.00001   0.00001  -3.14155
    D3        3.14152   0.00000   0.00000   0.00011   0.00011  -3.14156
    D4       -0.00002   0.00000   0.00000   0.00003   0.00003   0.00001
    D5       -0.00003  -0.00000   0.00000  -0.00000  -0.00000  -0.00003
    D6        3.14153   0.00000   0.00000   0.00006   0.00006  -3.14159
    D7       -3.14157  -0.00000   0.00000  -0.00002  -0.00002  -3.14159
    D8       -0.00001   0.00000   0.00000   0.00005   0.00005   0.00004
    D9        0.00003  -0.00000   0.00000  -0.00010  -0.00010  -0.00006
   D10       -3.14154  -0.00000   0.00000  -0.00003  -0.00003  -3.14156
   D11        3.14158  -0.00000   0.00000  -0.00002  -0.00002   3.14156
   D12        0.00001   0.00000   0.00000   0.00005   0.00005   0.00006
   D13       -0.00001   0.00000   0.00000   0.00003   0.00003   0.00002
   D14       -3.14144   0.00000   0.00000   0.00009   0.00009  -3.14135
   D15        3.14156  -0.00000   0.00000  -0.00004  -0.00004   3.14152
   D16        0.00013   0.00000   0.00000   0.00002   0.00002   0.00015
   D17       -0.00004   0.00000   0.00000   0.00006   0.00006   0.00002
   D18       -3.14151  -0.00000   0.00000  -0.00013  -0.00014   3.14154
   D19        3.14143   0.00000   0.00000   0.00000   0.00000   3.14143
   D20       -0.00005  -0.00001   0.00000  -0.00019  -0.00019  -0.00024
   D21       -3.14124  -0.00001   0.00000  -0.00027  -0.00027  -3.14151
   D22       -0.00113   0.00000   0.00000   0.00003   0.00003  -0.00111
   D23        0.00049  -0.00001   0.00000  -0.00021  -0.00021   0.00028
   D24        3.14060   0.00000   0.00000   0.00009   0.00008   3.14069
   D25        0.00005  -0.00000   0.00000  -0.00007  -0.00007  -0.00001
   D26       -3.14151  -0.00000   0.00000  -0.00013  -0.00013   3.14154
   D27        3.14150   0.00001   0.00000   0.00019   0.00019  -3.14150
   D28       -0.00007   0.00000   0.00000   0.00012   0.00012   0.00006
   D29       -0.00041   0.00002   0.00000   0.00052   0.00052   0.00011
   D30        3.14139   0.00001   0.00000   0.00020   0.00020   3.14159
   D31        3.14132   0.00001   0.00000   0.00029   0.00029  -3.14158
   D32       -0.00006  -0.00000   0.00000  -0.00004  -0.00004  -0.00010
   D33       -0.00077   0.00002   0.00000   0.00056   0.00056  -0.00021
   D34        3.14133   0.00001   0.00000   0.00016   0.00016   3.14148
   D35       -3.14089   0.00001   0.00000   0.00027   0.00027  -3.14062
   D36        0.00121  -0.00000   0.00000  -0.00014  -0.00014   0.00107
   D37        0.00072  -0.00002   0.00000  -0.00066  -0.00067   0.00006
   D38       -3.14144  -0.00001   0.00000  -0.00021  -0.00021   3.14153
   D39       -3.14107  -0.00001   0.00000  -0.00035  -0.00035  -3.14142
   D40       -0.00005   0.00000   0.00000   0.00010   0.00010   0.00005
         Item               Value     Threshold  Converged?
 Maximum Force            0.037189     0.000450     NO 
 RMS     Force            0.008580     0.000300     NO 
 Maximum Displacement     0.097751     0.001800     NO 
 RMS     Displacement     0.027293     0.001200     NO 
 Predicted change in Energy=-6.784882D-03
 GradGradGradGradGradGradGradGradGradGradGradGradGradGradGradGradGradGrad

                          Input orientation:                          
 ---------------------------------------------------------------------
 Center     Atomic      Atomic             Coordinates (Angstroms)
 Number     Number       Type             X           Y           Z
 ---------------------------------------------------------------------
      1          6           0       -2.174709    0.702669    0.000011
      2          6           0       -2.153540   -0.736333    0.000020
      3          6           0       -0.937005   -1.456005    0.000079
      4          6           0        0.253878   -0.684584    0.000047
      5          6           0        0.257654    0.774464   -0.000021
      6          6           0       -0.977984    1.471388   -0.000030
      7          7           0        1.573005   -1.090867   -0.000173
      8          6           0        1.626030    1.177488    0.000042
      9          6           0        2.408709    0.027507   -0.000007
     10          1           0        1.886744   -2.049846    0.000560
     11          1           0        1.998187    2.192998    0.000014
     12          1           0        3.484104   -0.086360   -0.000036
     13          1           0       -3.093223   -1.281048    0.000007
     14          1           0       -0.916210   -2.542199    0.000060
     15          1           0       -3.134670    1.211027   -0.000000
     16          1           0       -1.004067    2.557149   -0.000035
 ---------------------------------------------------------------------
                    Distance matrix (angstroms):
                    1          2          3          4          5
     1  C    0.000000
     2  C    1.439158   0.000000
     3  C    2.488330   1.413466   0.000000
     4  C    2.796875   2.407974   1.418906   0.000000
     5  C    2.433422   2.845410   2.530257   1.459053   0.000000
     6  C    1.422350   2.501192   2.927680   2.483083   1.418628
     7  N    4.154772   3.743372   2.536430   1.380276   2.282456
     8  C    3.830283   4.236491   3.674838   2.313031   1.426493
     9  C    4.632879   4.625750   3.659865   2.269442   2.277056
    10  H    4.906296   4.248436   2.885517   2.128424   3.260469
    11  H    4.431043   5.081123   4.683009   3.364980   2.245372
    12  H    5.713557   5.674988   4.628405   3.285153   3.339311
    13  H    2.186047   1.086149   2.163304   3.399832   3.931095
    14  H    3.480372   2.189095   1.086393   2.195414   3.518268
    15  H    1.086257   2.180557   3.455835   3.882732   3.420300
    16  H    2.193057   3.488310   4.013715   3.477249   2.184012
                    6          7          8          9         10
     6  C    0.000000
     7  N    3.615618   0.000000
     8  C    2.620547   2.268974   0.000000
     9  C    3.681642   1.396123   1.391058   0.000000
    10  H    4.539356   1.008996   3.237847   2.141924   0.000000
    11  H    3.062404   3.311275   1.081555   2.204060   4.244307
    12  H    4.726184   2.159012   2.247165   1.081407   2.531173
    13  H    3.471331   4.670102   5.321254   5.655402   5.038960
    14  H    4.014063   2.881417   4.505448   4.202199   2.845868
    15  H    2.172345   5.240317   4.760819   5.668313   5.987311
    16  H    1.086074   4.466466   2.969996   4.248074   5.438859
                   11         12         13         14         15
    11  H    0.000000
    12  H    2.720923   0.000000
    13  H    6.163721   6.684947   0.000000
    14  H    5.560198   5.039237   2.515926   0.000000
    15  H    5.225944   6.744731   2.492420   4.359848   0.000000
    16  H    3.024258   5.208821   4.369935   5.100105   2.520221
                   16
    16  H    0.000000
 Stoichiometry    C8H7N
 Framework group  C1[X(C8H7N)]
 Deg. of freedom    42
 Full point group                 C1      NOp   1
 Largest Abelian subgroup         C1      NOp   1
 Largest concise Abelian subgroup C1      NOp   1
                         Standard orientation:                         
 ---------------------------------------------------------------------
 Center     Atomic      Atomic             Coordinates (Angstroms)
 Number     Number       Type             X           Y           Z
 ---------------------------------------------------------------------
      1          6           0       -2.175028    0.703774    0.000008
      2          6           0       -2.154859   -0.735242    0.000017
      3          6           0       -0.938825   -1.455760    0.000076
      4          6           0        0.252594   -0.685167    0.000043
      5          6           0        0.257384    0.773878   -0.000024
      6          6           0       -0.977770    1.471661   -0.000033
      7          7           0        1.571438   -1.092366   -0.000176
      8          6           0        1.626040    1.175951    0.000039
      9          6           0        2.407919    0.025427   -0.000011
     10          1           0        1.884510   -2.051562    0.000556
     11          1           0        1.998902    2.191202    0.000011
     12          1           0        3.483235   -0.089188   -0.000039
     13          1           0       -3.094921   -1.279304    0.000004
     14          1           0       -0.918785   -2.541968    0.000057
     15          1           0       -3.134636    1.212799   -0.000004
     16          1           0       -1.003098    2.557440   -0.000038
 ---------------------------------------------------------------------
 Rotational constants (GHZ):           3.7350625           1.6134228           1.1267180
 Standard basis: 6-31+G(d) (6D, 7F)
 There are   185 symmetry adapted cartesian basis functions of A   symmetry.
 There are   185 symmetry adapted basis functions of A   symmetry.
   185 basis functions,   316 primitive gaussians,   185 cartesian basis functions
    31 alpha electrons       31 beta electrons
       nuclear repulsion energy       395.6867911264 Hartrees.
 NAtoms=   16 NActive=   16 NUniq=   16 SFac= 1.00D+00 NAtFMM=   60 NAOKFM=F Big=F
 Integral buffers will be    131072 words long.
 Regular integral format.
 Two-electron integral symmetry is turned on.
 Nuclear repulsion after empirical dispersion term =      395.6775484357 Hartrees.
 One-electron integrals computed using PRISM.
 NBasis=   185 RedAO= T EigKep=  1.51D-06  NBF=   185
 NBsUse=   185 1.00D-06 EigRej= -1.00D+00 NBFU=   185
 Initial guess from the checkpoint file:  "FuncsB3LYP-V-3rd.chk"
 B after Tr=     0.000000   -0.000000    0.000000
         Rot=    1.000000    0.000007    0.000003    0.000394 Ang=   0.05 deg.
 ExpMin= 4.38D-02 ExpMax= 4.17D+03 ExpMxC= 6.27D+02 IAcc=3 IRadAn=         5 AccDes= 0.00D+00
 Harris functional with IExCor=  402 and IRadAn=       5 diagonalized for initial guess.
 HarFok:  IExCor=  402 AccDes= 0.00D+00 IRadAn=         5 IDoV= 1 UseB2=F ITyADJ=14
 ICtDFT=  3500011 ScaDFX=  1.000000  1.000000  1.000000  1.000000
 FoFCou: FMM=F IPFlag=           0 FMFlag=      100000 FMFlg1=           0
         NFxFlg=           0 DoJE=T BraDBF=F KetDBF=T FulRan=T
         wScrn=  0.000000 ICntrl=       500 IOpCl=  0 I1Cent=   200000004 NGrid=           0
         NMat0=    1 NMatS0=      1 NMatT0=    0 NMatD0=    1 NMtDS0=    0 NMtDT0=    0
 Petite list used in FoFCou.
 Keep R1 ints in memory in canonical form, NReq=152071459.
 Requested convergence on RMS density matrix=1.00D-08 within 128 cycles.
 Requested convergence on MAX density matrix=1.00D-06.
 Requested convergence on             energy=1.00D-06.
 No special actions if energy rises.
 SCF Done:  E(RB3LYP) =  -363.837319280     A.U. after   12 cycles
            NFock= 12  Conv=0.10D-07     -V/T= 2.0110
 DoSCS=F DFT=T ScalE2(SS,OS)=  1.000000  1.000000
 ExpMin= 4.38D-02 ExpMax= 4.17D+03 ExpMxC= 6.27D+02 IAcc=3 IRadAn=         5 AccDes= 0.00D+00
 HarFok:  IExCor=  205 AccDes= 0.00D+00 IRadAn=         5 IDoV=-2 UseB2=F ITyADJ=14
 ICtDFT= 12500011 ScaDFX=  1.000000  1.000000  1.000000  1.000000
 Range of M.O.s used for correlation:    10   185
 NBasis=   185 NAE=    31 NBE=    31 NFC=     9 NFV=     0
 NROrb=    176 NOA=    22 NOB=    22 NVA=   154 NVB=   154

 **** Warning!!: The largest alpha MO coefficient is  0.16614066D+03

 Orbital symmetries:
       Occupied  (A) (A) (A) (A) (A) (A) (A) (A) (A) (A) (A) (A)
                 (A) (A) (A) (A) (A) (A) (A) (A) (A) (A) (A) (A)
                 (A) (A) (A) (A) (A) (A) (A)
       Virtual   (A) (A) (A) (A) (A) (A) (A) (A) (A) (A) (A) (A)
                 (A) (A) (A) (A) (A) (A) (A) (A) (A) (A) (A) (A)
                 (A) (A) (A) (A) (A) (A) (A) (A) (A) (A) (A) (A)
                 (A) (A) (A) (A) (A) (A) (A) (A) (A) (A) (A) (A)
                 (A) (A) (A) (A) (A) (A) (A) (A) (A) (A) (A) (A)
                 (A) (A) (A) (A) (A) (A) (A) (A) (A) (A) (A) (A)
                 (A) (A) (A) (A) (A) (A) (A) (A) (A) (A) (A) (A)
                 (A) (A) (A) (A) (A) (A) (A) (A) (A) (A) (A) (A)
                 (A) (A) (A) (A) (A) (A) (A) (A) (A) (A) (A) (A)
                 (A) (A) (A) (A) (A) (A) (A) (A) (A) (A) (A) (A)
                 (A) (A) (A) (A) (A) (A) (A) (A) (A) (A) (A) (A)
                 (A) (A) (A) (A) (A) (A) (A) (A) (A) (A) (A) (A)
                 (A) (A) (A) (A) (A) (A) (A) (A) (A) (A)
 Generating guess from densities on rwf.
 Convergence on wavefunction:    0.000001000000000
 Iteration     1 Dimension    12 NMult     0 NNew     12
 CISAX will form    12 AO SS matrices at one time.
 New state      2 was old state      3
 New state      3 was old state      2
 Iteration     2 Dimension    24 NMult    12 NNew     12
 Iteration     3 Dimension    36 NMult    24 NNew     12
 Iteration     4 Dimension    48 NMult    36 NNew     12
 Iteration     5 Dimension    60 NMult    48 NNew     12
 Iteration     6 Dimension    72 NMult    60 NNew     12
 Iteration     7 Dimension    84 NMult    72 NNew     12
 Iteration     8 Dimension    96 NMult    84 NNew     12
 Iteration     9 Dimension   108 NMult    96 NNew     12
 Iteration    10 Dimension   114 NMult   108 NNew      6
 Iteration    11 Dimension   116 NMult   114 NNew      2
 ***********************************************************************
 Excited states from <AA,BB:AA,BB> singles matrix:
 ***********************************************************************
 
 Ground to excited state transition densities written to RWF  633
 Ground to excited state transition electric dipole moments (Au):
       state          X           Y           Z        Dip. S.      Osc.
         1        -0.5838      0.6331     -0.0001      0.7417      0.0835
         2         0.0004     -0.0003     -0.1446      0.0209      0.0025
         3        -0.5737     -0.1444     -0.0000      0.3500      0.0399
         4        -0.0001      0.0000     -0.1183      0.0140      0.0018
         5         0.0001      0.0000      0.0008      0.0000      0.0000
         6         0.0003      0.0001      0.1099      0.0121      0.0016
 Ground to excited state transition velocity dipole moments (Au):
       state          X           Y           Z        Dip. S.      Osc.
         1         0.0894     -0.1148      0.0000      0.0212      0.0835
         2        -0.0001      0.0001      0.0160      0.0003      0.0010
         3         0.0928      0.0256      0.0000      0.0093      0.0362
         4         0.0000      0.0000      0.0249      0.0006      0.0022
         5        -0.0000     -0.0000      0.0013      0.0000      0.0000
         6        -0.0001     -0.0000     -0.0213      0.0005      0.0015
 Ground to excited state transition magnetic dipole moments (Au):
       state          X           Y           Z
         1         0.0001      0.0000      0.1765
         2         0.1233     -0.0799      0.0001
         3        -0.0001     -0.0001     -0.0467
         4         0.0244     -0.2190     -0.0001
         5         0.2929     -0.1824      0.0001
         6         0.1234      0.3460      0.0002
 Ground to excited state transition velocity quadrupole moments (Au):
       state          XX          YY          ZZ          XY          XZ          YZ
         1         0.2043     -0.1208      0.0127      0.0472      0.0000     -0.0000
         2        -0.0001      0.0001      0.0001      0.0000      0.0645      0.0413
         3         0.0635     -0.1025      0.0222     -0.0053      0.0000     -0.0000
         4         0.0001     -0.0000     -0.0000     -0.0001      0.1344     -0.0294
         5         0.0000     -0.0000     -0.0000      0.0000      0.2084      0.2464
         6         0.0000      0.0001      0.0000      0.0002     -0.3003      0.0228
 <0|del|b> * <b|rxdel|0> + <0|del|b> * <b|delr+rdel|0>
 Rotatory Strengths (R) in cgs (10**-40 erg-esu-cm/Gauss)
       state          XX          YY          ZZ    R(velocity)    E-M Angle
         1        -0.0003      0.0226      0.0049      0.0091       90.00
         2        -0.0138     -0.0213     -0.0127     -0.0159       90.00
         3        -0.0063     -0.0118     -0.0106     -0.0096       90.00
         4        -0.0083      0.0002      0.0025     -0.0019       90.00
         5         0.0031     -0.0260     -0.0024     -0.0085       90.00
         6        -0.0316     -0.0179     -0.0121     -0.0205       90.00
 1/2[<0|r|b>*<b|rxdel|0> + (<0|rxdel|b>*<b|r|0>)*]
 Rotatory Strengths (R) in cgs (10**-40 erg-esu-cm/Gauss)
       state          XX          YY          ZZ     R(length)
         1         0.0442     -0.0206      0.0131      0.0122
         2        -0.0379     -0.0178      0.0058     -0.0166
         3        -0.0208     -0.0075     -0.0014     -0.0099
         4         0.0026      0.0013     -0.0055     -0.0005
         5        -0.0306      0.0025     -0.0001     -0.0094
         6        -0.0282     -0.0209     -0.0168     -0.0220
  1/2[<0|del|b>*<b|r|0> + (<0|r|b>*<b|del|0>)*] (Au)
       state          X           Y           Z        Dip. S.   Osc.(frdel)
         1        -0.0522     -0.0727     -0.0000      0.1248      0.0832
         2        -0.0000     -0.0000     -0.0023      0.0023      0.0015
         3        -0.0532     -0.0037     -0.0000      0.0569      0.0380
         4        -0.0000      0.0000     -0.0029      0.0029      0.0020
         5        -0.0000     -0.0000      0.0000     -0.0000     -0.0000
         6        -0.0000     -0.0000     -0.0023      0.0023      0.0016

 Excitation energies and oscillator strengths:
 
 Excited State   1:      Singlet-A      4.5939 eV  269.89 nm  f=0.0835  <S**2>=0.000
      30 -> 32        -0.14207
      30 -> 34         0.16243
      31 -> 32         0.65858
 
 Excited State   2:      Singlet-A      4.7980 eV  258.41 nm  f=0.0025  <S**2>=0.000
      31 -> 33         0.70430
 
 Excited State   3:      Singlet-A      4.6511 eV  266.57 nm  f=0.0399  <S**2>=0.000
      30 -> 32         0.57121
      31 -> 32         0.11553
      31 -> 34        -0.39015
 This state for optimization and/or second-order correction.
 Total Energy, E(TD-HF/TD-DFT) =  -363.666396004    
 Copying the excited state density for this state as the 1-particle RhoCI density.
 
 Excited State   4:      Singlet-A      5.1831 eV  239.21 nm  f=0.0018  <S**2>=0.000
      30 -> 33         0.70061
 
 Excited State   5:      Singlet-A      5.3928 eV  229.91 nm  f=0.0000  <S**2>=0.000
      31 -> 35         0.69852
 
 Excited State   6:      Singlet-A      5.4998 eV  225.43 nm  f=0.0016  <S**2>=0.000
      31 -> 36         0.69792
 SavETr:  write IOETrn=   770 NScale= 10 NData=  16 NLR=1 NState=    6 LETran=     118.
          IDoAtm=1111111111111111
          Differentiating once with respect to electric field.
                with respect to dipole field.
          Differentiating once with respect to nuclear coordinates.
 Keep R1 ints in memory in canonical form, NReq=152083851.
          There are     1 degrees of freedom in the 1st order CPHF.  IDoFFX=0 NUNeed=     1.
 LinEq1:  Iter=  0 NonCon=     1 RMS=5.52D-03 Max=1.69D-01 NDo=     1
 AX will form     1 AO Fock derivatives at one time.
 LinEq1:  Iter=  1 NonCon=     1 RMS=2.38D-03 Max=6.89D-02 NDo=     1
 LinEq1:  Iter=  2 NonCon=     1 RMS=2.29D-03 Max=8.61D-02 NDo=     1
 LinEq1:  Iter=  3 NonCon=     1 RMS=8.92D-04 Max=1.73D-02 NDo=     1
 LinEq1:  Iter=  4 NonCon=     1 RMS=4.61D-04 Max=1.57D-02 NDo=     1
 LinEq1:  Iter=  5 NonCon=     1 RMS=2.72D-04 Max=6.08D-03 NDo=     1
 LinEq1:  Iter=  6 NonCon=     1 RMS=1.74D-04 Max=3.69D-03 NDo=     1
 LinEq1:  Iter=  7 NonCon=     1 RMS=7.21D-05 Max=1.30D-03 NDo=     1
 LinEq1:  Iter=  8 NonCon=     1 RMS=5.48D-05 Max=1.54D-03 NDo=     1
 LinEq1:  Iter=  9 NonCon=     1 RMS=2.12D-05 Max=5.25D-04 NDo=     1
 LinEq1:  Iter= 10 NonCon=     1 RMS=1.58D-05 Max=3.19D-04 NDo=     1
 LinEq1:  Iter= 11 NonCon=     1 RMS=4.61D-06 Max=1.03D-04 NDo=     1
 LinEq1:  Iter= 12 NonCon=     1 RMS=2.92D-06 Max=6.87D-05 NDo=     1
 LinEq1:  Iter= 13 NonCon=     1 RMS=1.14D-06 Max=1.25D-05 NDo=     1
 LinEq1:  Iter= 14 NonCon=     1 RMS=3.68D-07 Max=7.49D-06 NDo=     1
 LinEq1:  Iter= 15 NonCon=     1 RMS=2.39D-07 Max=3.98D-06 NDo=     1
 LinEq1:  Iter= 16 NonCon=     1 RMS=4.54D-08 Max=9.07D-07 NDo=     1
 LinEq1:  Iter= 17 NonCon=     1 RMS=9.54D-09 Max=1.80D-07 NDo=     1
 LinEq1:  Iter= 18 NonCon=     1 RMS=3.62D-09 Max=5.74D-08 NDo=     1
 LinEq1:  Iter= 19 NonCon=     1 RMS=1.72D-09 Max=2.12D-08 NDo=     1
 LinEq1:  Iter= 20 NonCon=     1 RMS=2.94D-10 Max=3.66D-09 NDo=     1
 LinEq1:  Iter= 21 NonCon=     0 RMS=8.04D-11 Max=8.63D-10 NDo=     1
 Linear equations converged to 1.000D-10 1.000D-09 after    21 iterations.
 End of Minotr F.D. properties file   721 does not exist.
 End of Minotr F.D. properties file   722 does not exist.
 End of Minotr F.D. properties file   788 does not exist.
 Calling FoFJK, ICntrl=  10005127 FMM=F ISym2X=0 I1Cent= 0 IOpClX= 0 NMat=1 NMatS=1 NMatT=0.
 ***** Axes restored to original set *****
 -------------------------------------------------------------------
 Center     Atomic                   Forces (Hartrees/Bohr)
 Number     Number              X              Y              Z
 -------------------------------------------------------------------
      1        6          -0.000714947   -0.002705684   -0.000002673
      2        6           0.000568053    0.001102790    0.000003936
      3        6           0.000260934   -0.001490717    0.000000563
      4        6           0.001442313   -0.004582775   -0.000012372
      5        6           0.003567694    0.004240463    0.000008617
      6        6           0.003009786    0.001591787    0.000001118
      7        7          -0.007418890    0.002533088    0.000008055
      8        6          -0.005977171   -0.002980638   -0.000008318
      9        6           0.005741868    0.002242529    0.000004479
     10        1          -0.000047117   -0.000062584   -0.000002610
     11        1           0.000422036   -0.000045268    0.000000134
     12        1          -0.000591327   -0.000151374   -0.000000024
     13        1           0.000070151    0.000800203   -0.000000280
     14        1           0.000016526    0.000826908   -0.000000454
     15        1           0.000154477   -0.000373843    0.000000252
     16        1          -0.000504387   -0.000944882   -0.000000425
 -------------------------------------------------------------------
 Cartesian Forces:  Max     0.007418890 RMS     0.002161743

 GradGradGradGradGradGradGradGradGradGradGradGradGradGradGradGradGradGrad
 Berny optimization.
 Using GEDIIS/GDIIS optimizer.
 FormGI is forming the generalized inverse of G from B-inverse, IUseBI=4.
 Internal  Forces:  Max     0.004756782 RMS     0.001030103
 Search for a local minimum.
 Step number   2 out of a maximum of   94
 All quantities printed in internal units (Hartrees-Bohrs-Radians)
 Mixed Optimization -- RFO/linear search
 Update second derivatives using D2CorX and points    1    2
 DE= -6.53D-03 DEPred=-6.78D-03 R= 9.63D-01
 TightC=F SS=  1.41D+00  RLast= 1.70D-01 DXNew= 5.0454D-01 5.0957D-01
 Trust test= 9.63D-01 RLast= 1.70D-01 DXMaxT set to 5.05D-01
 ITU=  1  0
 Use linear search instead of GDIIS.
     Eigenvalues ---    0.01853   0.01932   0.01986   0.02011   0.02071
     Eigenvalues ---    0.02113   0.02148   0.02153   0.02171   0.02209
     Eigenvalues ---    0.02234   0.02248   0.02339   0.15990   0.16000
     Eigenvalues ---    0.16000   0.16000   0.16000   0.16000   0.16014
     Eigenvalues ---    0.21529   0.22006   0.22722   0.24004   0.24635
     Eigenvalues ---    0.35714   0.35726   0.35786   0.35831   0.36412
     Eigenvalues ---    0.36452   0.37177   0.37757   0.42847   0.43636
     Eigenvalues ---    0.45102   0.46402   0.47166   0.47299   0.47599
     Eigenvalues ---    0.49077   0.53937
 RFO step:  Lambda=-2.68404702D-04 EMin= 1.85275286D-02
 Quartic linear search produced a step of  0.02032.
 Iteration  1 RMS(Cart)=  0.00377311 RMS(Int)=  0.00000985
 Iteration  2 RMS(Cart)=  0.00001249 RMS(Int)=  0.00000419
 Iteration  3 RMS(Cart)=  0.00000000 RMS(Int)=  0.00000419
 Variable       Old X    -DE/DX   Delta X   Delta X   Delta X     New X
                                 (Linear)    (Quad)   (Total)
    R1        2.71961  -0.00175   0.00130  -0.00408  -0.00277   2.71684
    R2        2.68785   0.00140   0.00152   0.00294   0.00447   2.69232
    R3        2.05273  -0.00031   0.00017  -0.00088  -0.00071   2.05202
    R4        2.67106  -0.00069   0.00113  -0.00149  -0.00037   2.67070
    R5        2.05252  -0.00046   0.00017  -0.00131  -0.00114   2.05139
    R6        2.68134  -0.00070   0.00097  -0.00145  -0.00048   2.68086
    R7        2.05299  -0.00083   0.00016  -0.00235  -0.00220   2.05079
    R8        2.75721   0.00211   0.00156   0.00489   0.00644   2.76365
    R9        2.60834  -0.00476   0.00014  -0.00986  -0.00972   2.59862
   R10        2.68082  -0.00181   0.00067  -0.00395  -0.00328   2.67754
   R11        2.69568  -0.00407  -0.00026  -0.01032  -0.01058   2.68510
   R12        2.05238  -0.00093   0.00014  -0.00265  -0.00251   2.04987
   R13        2.63829   0.00246   0.00066   0.00532   0.00599   2.64428
   R14        1.90673   0.00005   0.00023   0.00011   0.00034   1.90706
   R15        2.62872  -0.00032   0.00102  -0.00035   0.00068   2.62940
   R16        2.04384   0.00010   0.00020   0.00030   0.00049   2.04434
   R17        2.04356  -0.00057   0.00019  -0.00159  -0.00140   2.04216
    A1        2.12707   0.00104   0.00026   0.00439   0.00465   2.13171
    A2        2.07252  -0.00078  -0.00015  -0.00388  -0.00403   2.06850
    A3        2.08360  -0.00025  -0.00011  -0.00051  -0.00062   2.08298
    A4        2.11971   0.00035   0.00009   0.00113   0.00121   2.12092
    A5        2.08143  -0.00085  -0.00005  -0.00486  -0.00490   2.07653
    A6        2.08205   0.00050  -0.00005   0.00373   0.00369   2.08573
    A7        2.03258  -0.00112  -0.00038  -0.00536  -0.00575   2.02684
    A8        2.12414   0.00059   0.00023   0.00289   0.00313   2.12727
    A9        2.12646   0.00053   0.00015   0.00246   0.00262   2.12908
   A10        2.14819   0.00125   0.00029   0.00578   0.00607   2.15426
   A11        2.26801   0.00004  -0.00022   0.00043   0.00021   2.26822
   A12        1.86698  -0.00129  -0.00007  -0.00621  -0.00628   1.86070
   A13        2.08175  -0.00080   0.00018  -0.00258  -0.00239   2.07936
   A14        1.85981   0.00063  -0.00011   0.00172   0.00159   1.86140
   A15        2.34162   0.00017  -0.00007   0.00086   0.00080   2.34242
   A16        2.05707  -0.00071  -0.00044  -0.00335  -0.00380   2.05327
   A17        2.11776  -0.00018   0.00030  -0.00175  -0.00145   2.11630
   A18        2.10836   0.00090   0.00014   0.00511   0.00525   2.11361
   A19        1.91376   0.00197   0.00013   0.00925   0.00939   1.92315
   A20        2.18575  -0.00104  -0.00009  -0.00502  -0.00512   2.18064
   A21        2.18367  -0.00092  -0.00004  -0.00423  -0.00427   2.17940
   A22        1.88196   0.00117   0.00025   0.00581   0.00606   1.88801
   A23        2.20850  -0.00016  -0.00018  -0.00023  -0.00041   2.20809
   A24        2.19273  -0.00100  -0.00007  -0.00558  -0.00565   2.18708
   A25        1.90227  -0.00248  -0.00020  -0.01057  -0.01075   1.89151
   A26        2.10704   0.00102   0.00009   0.00389   0.00398   2.11102
   A27        2.27388   0.00146   0.00011   0.00667   0.00677   2.28065
    D1        0.00007  -0.00000   0.00000  -0.00005  -0.00005   0.00003
    D2       -3.14155  -0.00000   0.00000  -0.00001  -0.00001  -3.14156
    D3       -3.14156  -0.00000   0.00000  -0.00003  -0.00002  -3.14158
    D4        0.00001   0.00000   0.00000   0.00001   0.00001   0.00002
    D5       -0.00003   0.00000  -0.00000   0.00001   0.00001  -0.00002
    D6       -3.14159  -0.00000   0.00000  -0.00000  -0.00000   3.14159
    D7       -3.14159  -0.00000  -0.00000  -0.00001  -0.00001   3.14159
    D8        0.00004  -0.00000   0.00000  -0.00003  -0.00003   0.00001
    D9       -0.00006   0.00000  -0.00000   0.00004   0.00004  -0.00003
   D10       -3.14156   0.00000  -0.00000   0.00001   0.00001  -3.14156
   D11        3.14156   0.00000  -0.00000   0.00000   0.00000   3.14156
   D12        0.00006  -0.00000   0.00000  -0.00003  -0.00003   0.00003
   D13        0.00002   0.00000   0.00000   0.00000   0.00000   0.00002
   D14       -3.14135  -0.00000   0.00000  -0.00012  -0.00012  -3.14147
   D15        3.14152   0.00000  -0.00000   0.00003   0.00003   3.14155
   D16        0.00015  -0.00000   0.00000  -0.00009  -0.00009   0.00006
   D17        0.00002  -0.00000   0.00000  -0.00004  -0.00004  -0.00002
   D18        3.14154   0.00000  -0.00000   0.00003   0.00003   3.14156
   D19        3.14143   0.00000   0.00000   0.00006   0.00006   3.14149
   D20       -0.00024   0.00000  -0.00000   0.00013   0.00013  -0.00011
   D21       -3.14151   0.00000  -0.00001   0.00003   0.00003  -3.14149
   D22       -0.00111   0.00000   0.00000   0.00012   0.00012  -0.00099
   D23        0.00028  -0.00000  -0.00000  -0.00008  -0.00008   0.00020
   D24        3.14069  -0.00000   0.00000   0.00000   0.00001   3.14069
   D25       -0.00001   0.00000  -0.00000   0.00003   0.00003   0.00001
   D26        3.14154   0.00000  -0.00000   0.00005   0.00004   3.14159
   D27       -3.14150  -0.00000   0.00000  -0.00006  -0.00006  -3.14156
   D28        0.00006  -0.00000   0.00000  -0.00005  -0.00004   0.00001
   D29        0.00011  -0.00000   0.00001  -0.00014  -0.00013  -0.00001
   D30        3.14159  -0.00000   0.00000  -0.00005  -0.00005   3.14154
   D31       -3.14158  -0.00000   0.00001  -0.00005  -0.00005   3.14156
   D32       -0.00010   0.00000  -0.00000   0.00003   0.00003  -0.00007
   D33       -0.00021  -0.00000   0.00001  -0.00001   0.00000  -0.00021
   D34        3.14148   0.00000   0.00000   0.00004   0.00004   3.14153
   D35       -3.14062  -0.00000   0.00001  -0.00009  -0.00008  -3.14071
   D36        0.00107  -0.00000  -0.00000  -0.00004  -0.00004   0.00103
   D37        0.00006   0.00000  -0.00001   0.00009   0.00008   0.00013
   D38        3.14153   0.00000  -0.00000   0.00004   0.00003   3.14156
   D39       -3.14142   0.00000  -0.00001   0.00001   0.00000  -3.14142
   D40        0.00005  -0.00000   0.00000  -0.00004  -0.00004   0.00001
         Item               Value     Threshold  Converged?
 Maximum Force            0.004757     0.000450     NO 
 RMS     Force            0.001030     0.000300     NO 
 Maximum Displacement     0.014681     0.001800     NO 
 RMS     Displacement     0.003776     0.001200     NO 
 Predicted change in Energy=-1.357965D-04
 GradGradGradGradGradGradGradGradGradGradGradGradGradGradGradGradGradGrad

                          Input orientation:                          
 ---------------------------------------------------------------------
 Center     Atomic      Atomic             Coordinates (Angstroms)
 Number     Number       Type             X           Y           Z
 ---------------------------------------------------------------------
      1          6           0       -2.170203    0.699949    0.000023
      2          6           0       -2.151245   -0.737615    0.000030
      3          6           0       -0.936851   -1.460515    0.000037
      4          6           0        0.251492   -0.685654    0.000002
      5          6           0        0.259757    0.776782   -0.000012
      6          6           0       -0.973901    1.473685   -0.000010
      7          7           0        1.567000   -1.086187   -0.000134
      8          6           0        1.623352    1.176217   -0.000007
      9          6           0        2.411499    0.029541    0.000027
     10          1           0        1.878975   -2.045928    0.000585
     11          1           0        1.996683    2.191575   -0.000062
     12          1           0        3.485904   -0.086599    0.000016
     13          1           0       -3.093887   -1.275983    0.000023
     14          1           0       -0.915653   -2.545539    0.000008
     15          1           0       -3.131105    1.205728    0.000029
[...]
 ! D9    D(1,2,3,4)             -0.0002         -DE/DX =    0.0                 !
 ! D10   D(1,2,3,14)          -179.9964         -DE/DX =    0.0                 !
 ! D11   D(13,2,3,4)           179.9983         -DE/DX =    0.0                 !
 ! D12   D(13,2,3,14)            0.002          -DE/DX =    0.0                 !
 ! D13   D(2,3,4,5)              0.0017         -DE/DX =    0.0                 !
 ! D14   D(2,3,4,7)           -179.9958         -DE/DX =    0.0                 !
 ! D15   D(14,3,4,5)           179.9979         -DE/DX =    0.0                 !
 ! D16   D(14,3,4,7)             0.0004         -DE/DX =    0.0                 !
 ! D17   D(3,4,5,6)             -0.0022         -DE/DX =    0.0                 !
 ! D18   D(3,4,5,8)            179.9971         -DE/DX =    0.0                 !
 ! D19   D(7,4,5,6)            179.9958         -DE/DX =    0.0                 !
 ! D20   D(7,4,5,8)             -0.0049         -DE/DX =    0.0                 !
 ! D21   D(3,4,7,9)           -179.9918         -DE/DX =    0.0                 !
 ! D22   D(3,4,7,10)            -0.0498         -DE/DX =    0.0                 !
 ! D23   D(5,4,7,9)              0.0104         -DE/DX =    0.0                 !
 ! D24   D(5,4,7,10)           179.9524         -DE/DX =    0.0                 !
 ! D25   D(4,5,6,1)              0.001          -DE/DX =    0.0                 !
 ! D26   D(4,5,6,16)          -179.9989         -DE/DX =    0.0                 !
 ! D27   D(8,5,6,1)           -179.998          -DE/DX =    0.0                 !
 ! D28   D(8,5,6,16)             0.002          -DE/DX =    0.0                 !
 ! D29   D(4,5,8,9)             -0.0024         -DE/DX =    0.0                 !
 ! D30   D(4,5,8,11)           179.9968         -DE/DX =    0.0                 !
 ! D31   D(6,5,8,9)            179.9968         -DE/DX =    0.0                 !
 ! D32   D(6,5,8,11)            -0.004          -DE/DX =    0.0                 !
 ! D33   D(4,7,9,8)             -0.0121         -DE/DX =    0.0                 !
 ! D34   D(4,7,9,12)           179.9973         -DE/DX =    0.0                 !
 ! D35   D(10,7,9,8)          -179.9542         -DE/DX =    0.0                 !
 ! D36   D(10,7,9,12)            0.0552         -DE/DX =    0.0                 !
 ! D37   D(5,8,9,7)              0.0087         -DE/DX =    0.0                 !
 ! D38   D(5,8,9,12)           179.9981         -DE/DX =    0.0                 !
 ! D39   D(11,8,9,7)          -179.9905         -DE/DX =    0.0                 !
 ! D40   D(11,8,9,12)           -0.0011         -DE/DX =    0.0                 !
 --------------------------------------------------------------------------------
 GradGradGradGradGradGradGradGradGradGradGradGradGradGradGradGradGradGrad

                          Input orientation:                          
 ---------------------------------------------------------------------
 Center     Atomic      Atomic             Coordinates (Angstroms)
 Number     Number       Type             X           Y           Z
 ---------------------------------------------------------------------
      1          6           0       -2.168413    0.699862    0.000019
      2          6           0       -2.147409   -0.735853    0.000050
      3          6           0       -0.935255   -1.461010    0.000033
      4          6           0        0.252603   -0.685572   -0.000019
      5          6           0        0.259553    0.778353   -0.000019
      6          6           0       -0.974970    1.475738   -0.000012
      7          7           0        1.566612   -1.087155   -0.000123
      8          6           0        1.620459    1.175973   -0.000011
      9          6           0        2.410756    0.028209    0.000049
     10          1           0        1.878659   -2.046992    0.000540
     11          1           0        1.995612    2.190849   -0.000058
     12          1           0        3.484575   -0.089725    0.000045
     13          1           0       -3.091279   -1.272449    0.000060
     14          1           0       -0.914395   -2.545750   -0.000001
     15          1           0       -3.130628    1.203245    0.000014
     16          1           0       -1.009579    2.559723   -0.000030
 ---------------------------------------------------------------------
                    Distance matrix (angstroms):
                    1          2          3          4          5
     1  C    0.000000
     2  C    1.435869   0.000000
     3  C    2.487981   1.412505   0.000000
     4  C    2.789399   2.400539   1.418560   0.000000
     5  C    2.429234   2.843640   2.538171   1.463941   0.000000
     6  C    1.423478   2.503148   2.937017   2.485597   1.417883
     7  N    4.140512   3.730598   2.529645   1.374004   2.277833
     8  C    3.818669   4.225152   3.672241   2.310060   1.417804
     9  C    4.628164   4.621759   3.662453   2.273127   2.278243
    10  H    4.891217   4.234184   2.874280   2.120737   3.256391
    11  H    4.422912   5.072496   4.682527   3.363313   2.238090
    12  H    5.707865   5.668926   4.627669   3.286438   3.339809
    13  H    2.177542   1.085737   2.164254   3.394992   3.928595
    14  H    3.479449   2.189989   1.084941   2.195939   3.525311
    15  H    1.085934   2.174126   3.452234   3.874775   3.416703
    16  H    2.191342   3.486471   4.021420   3.482103   2.187230
                    6          7          8          9         10
     6  C    0.000000
     7  N    3.609440   0.000000
     8  C    2.612682   2.263769   0.000000
     9  C    3.682184   1.398791   1.393532   0.000000
    10  H    4.533523   1.009287   3.233292   2.142332   0.000000
    11  H    3.055445   3.305957   1.081995   2.202126   4.239455
    12  H    4.726332   2.161816   2.253202   1.080276   2.531770
    13  H    3.468616   4.661574   5.309919   5.653680   5.029930
    14  H    4.021945   2.878001   4.502967   4.204984   2.837236
    15  H    2.172812   5.225896   4.751165   5.664595   5.971348
    16  H    1.084537   4.465029   2.971845   4.255262   5.437255
                   11         12         13         14         15
    11  H    0.000000
    12  H    2.723606   0.000000
    13  H    6.153933   6.681368   0.000000
    14  H    5.559093   5.038154   2.521928   0.000000
    15  H    5.220507   6.740377   2.476007   4.355073   0.000000
    16  H    3.027746   5.216991   4.361079   5.106361   2.517713
                   16
    16  H    0.000000
 Stoichiometry    C8H7N
 Framework group  C1[X(C8H7N)]
 Deg. of freedom    42
 Full point group                 C1      NOp   1
 Largest Abelian subgroup         C1      NOp   1
 Largest concise Abelian subgroup C1      NOp   1
                         Standard orientation:                         
 ---------------------------------------------------------------------
 Center     Atomic      Atomic             Coordinates (Angstroms)
 Number     Number       Type             X           Y           Z
 ---------------------------------------------------------------------
      1          6           0       -2.168603    0.702733    0.000015
      2          6           0       -2.149958   -0.733015    0.000046
      3          6           0       -0.938997   -1.460163    0.000029
      4          6           0        0.250133   -0.686677   -0.000023
      5          6           0        0.259489    0.777234   -0.000023
      6          6           0       -0.973886    1.476647   -0.000016
      7          7           0        1.563480   -1.090420   -0.000127
      8          6           0        1.621046    1.172617   -0.000015
      9          6           0        2.409456    0.023556    0.000045
     10          1           0        1.873950   -2.050768    0.000536
     11          1           0        1.997867    2.186875   -0.000062
     12          1           0        3.483080   -0.096142    0.000041
     13          1           0       -3.094708   -1.268059    0.000056
     14          1           0       -0.919919   -2.544936   -0.000005
     15          1           0       -3.129989    1.207696    0.000010
     16          1           0       -1.006715    2.560687   -0.000034
 ---------------------------------------------------------------------
 Rotational constants (GHZ):           3.7302090           1.6196210           1.1292929

 **********************************************************************

            Population analysis using the CI Density.

 **********************************************************************

 Orbital symmetries:
       Occupied  (A) (A) (A) (A) (A) (A) (A) (A) (A) (A) (A) (A)
                 (A) (A) (A) (A) (A) (A) (A) (A) (A) (A) (A) (A)
                 (A) (A) (A) (A) (A) (A) (A)
       Virtual   (A) (A) (A) (A) (A) (A) (A) (A) (A) (A) (A) (A)
                 (A) (A) (A) (A) (A) (A) (A) (A) (A) (A) (A) (A)
                 (A) (A) (A) (A) (A) (A) (A) (A) (A) (A) (A) (A)
                 (A) (A) (A) (A) (A) (A) (A) (A) (A) (A) (A) (A)
                 (A) (A) (A) (A) (A) (A) (A) (A) (A) (A) (A) (A)
                 (A) (A) (A) (A) (A) (A) (A) (A) (A) (A) (A) (A)
                 (A) (A) (A) (A) (A) (A) (A) (A) (A) (A) (A) (A)
                 (A) (A) (A) (A) (A) (A) (A) (A) (A) (A) (A) (A)
                 (A) (A) (A) (A) (A) (A) (A) (A) (A) (A) (A) (A)
                 (A) (A) (A) (A) (A) (A) (A) (A) (A) (A) (A) (A)
                 (A) (A) (A) (A) (A) (A) (A) (A) (A) (A) (A) (A)
                 (A) (A) (A) (A) (A) (A) (A) (A) (A) (A) (A) (A)
                 (A) (A) (A) (A) (A) (A) (A) (A) (A) (A)
 The electronic state is 1-A.
 Alpha  occ. eigenvalues --  -14.39100 -10.23037 -10.23004 -10.19977 -10.19517
 Alpha  occ. eigenvalues --  -10.19456 -10.19416 -10.19031 -10.18465  -0.98199
 Alpha  occ. eigenvalues --   -0.83119  -0.78540  -0.73239  -0.71699  -0.62678
 Alpha  occ. eigenvalues --   -0.60065  -0.58128  -0.54033  -0.49142  -0.47212
 Alpha  occ. eigenvalues --   -0.43871  -0.43617  -0.42105  -0.41085  -0.39741
 Alpha  occ. eigenvalues --   -0.35922  -0.34267  -0.33041  -0.28403  -0.22244
 Alpha  occ. eigenvalues --   -0.20922
 Alpha virt. eigenvalues --   -0.02548  -0.00435   0.01127   0.01539   0.02068
 Alpha virt. eigenvalues --    0.03538   0.03699   0.04127   0.05769   0.06005
 Alpha virt. eigenvalues --    0.06412   0.06472   0.08335   0.08758   0.10526
 Alpha virt. eigenvalues --    0.10562   0.11027   0.12423   0.13291   0.13510
 Alpha virt. eigenvalues --    0.15165   0.15626   0.16208   0.16266   0.16950
 Alpha virt. eigenvalues --    0.18169   0.18421   0.18490   0.19366   0.19553
 Alpha virt. eigenvalues --    0.19691   0.19962   0.21456   0.22113   0.22769
 Alpha virt. eigenvalues --    0.23210   0.23514   0.24051   0.25273   0.25939
 Alpha virt. eigenvalues --    0.26822   0.27102   0.27628   0.29019   0.29222
 Alpha virt. eigenvalues --    0.30139   0.31209   0.32551   0.33754   0.35963
 Alpha virt. eigenvalues --    0.36804   0.38943   0.42095   0.44285   0.50142
 Alpha virt. eigenvalues --    0.55491   0.58742   0.67154   0.67456   0.69513
 Alpha virt. eigenvalues --    0.70450   0.71730   0.72503   0.72994   0.73336
 Alpha virt. eigenvalues --    0.74599   0.74896   0.77093   0.78272   0.78633
 Alpha virt. eigenvalues --    0.80644   0.84592   0.88413   0.89018   0.90149
 Alpha virt. eigenvalues --    0.93284   0.93817   0.94707   0.95437   0.97950
 Alpha virt. eigenvalues --    0.98740   1.02507   1.04388   1.05474   1.08826
 Alpha virt. eigenvalues --    1.10861   1.10892   1.16439   1.17369   1.19779
 Alpha virt. eigenvalues --    1.21843   1.23757   1.24181   1.30807   1.32595
 Alpha virt. eigenvalues --    1.34722   1.35700   1.39540   1.41150   1.42774
 Alpha virt. eigenvalues --    1.46071   1.47699   1.49594   1.49845   1.53009
 Alpha virt. eigenvalues --    1.57796   1.63750   1.77744   1.81623   1.88428
 Alpha virt. eigenvalues --    1.88770   1.89003   1.91495   1.97930   1.98813
 Alpha virt. eigenvalues --    2.00759   2.02803   2.04563   2.11568   2.12539
 Alpha virt. eigenvalues --    2.14991   2.17697   2.22131   2.23615   2.25271
 Alpha virt. eigenvalues --    2.25511   2.29113   2.36028   2.40171   2.44036
 Alpha virt. eigenvalues --    2.52207   2.53925   2.61850   2.61963   2.64395
 Alpha virt. eigenvalues --    2.66765   2.70535   2.78011   2.81682   2.82682
 Alpha virt. eigenvalues --    2.95062   2.95916   3.07805   3.21144   3.36606
 Alpha virt. eigenvalues --    4.13329   4.22542   4.28408   4.30631   4.34454
 Alpha virt. eigenvalues --    4.38931   4.46473   4.50709   4.75611
          Condensed to atoms (all electrons):
               1          2          3          4          5          6
     1  C    5.681628   0.384509   0.069362  -0.287777  -0.270938   0.043347
     2  C    0.384509   5.761526   0.021625   0.130137  -0.477271   0.484343
     3  C    0.069362   0.021625  12.761256  -2.548268  -3.199080  -2.468805
     4  C   -0.287777   0.130137  -2.548268  12.648633  -2.564488  -0.849605
     5  C   -0.270938  -0.477271  -3.199080  -2.564488  14.178241  -0.441656
     6  C    0.043347   0.484343  -2.468805  -0.849605  -0.441656  12.066112
     7  N   -0.030686   0.013779  -0.430086  -0.343540   0.718625   0.124896
     8  C    0.172975  -0.253066   3.043495   0.903844  -5.236073  -3.334672
     9  C   -0.068165   0.023741  -1.058001  -0.433534   1.901687   0.862180
    10  H   -0.003618  -0.008718  -0.139459  -0.072685   0.174131   0.028719
    11  H   -0.000613   0.000764   0.004723   0.068791  -0.061481  -0.030673
    12  H    0.000743   0.000369   0.025300   0.080603  -0.058043  -0.021142
    13  H   -0.012299   0.301086  -0.029007   0.025858  -0.004392   0.018608
    14  H    0.018746   0.010598   0.271203  -0.003378   0.017568  -0.020445
    15  H    0.312551  -0.014897   0.022946  -0.017838   0.030746  -0.037844
    16  H   -0.008857   0.021370  -0.036456   0.023996   0.032309   0.303951
               7          8          9         10         11         12
     1  C   -0.030686   0.172975  -0.068165  -0.003618  -0.000613   0.000743
     2  C    0.013779  -0.253066   0.023741  -0.008718   0.000764   0.000369
     3  C   -0.430086   3.043495  -1.058001  -0.139459   0.004723   0.025300
     4  C   -0.343540   0.903844  -0.433534  -0.072685   0.068791   0.080603
     5  C    0.718625  -5.236073   1.901687   0.174131  -0.061481  -0.058043
     6  C    0.124896  -3.334672   0.862180   0.028719  -0.030673  -0.021142
     7  N    7.332878  -0.618589   0.487205   0.272355   0.007368  -0.057620
     8  C   -0.618589  13.171196  -2.293743   0.004091   0.358048  -0.015334
     9  C    0.487205  -2.293743   6.585696  -0.026820  -0.053459   0.350721
    10  H    0.272355   0.004091  -0.026820   0.353297  -0.000089  -0.002442
    11  H    0.007368   0.358048  -0.053459  -0.000089   0.511374  -0.000931
    12  H   -0.057620  -0.015334   0.350721  -0.002442  -0.000931   0.495211
    13  H   -0.000448  -0.001972   0.001512  -0.000002   0.000000  -0.000000
    14  H   -0.007690  -0.005628   0.005964   0.002103   0.000002   0.000002
    15  H    0.000219   0.003507  -0.000076  -0.000000  -0.000001  -0.000000
    16  H   -0.000775  -0.050956   0.003547   0.000004   0.001525  -0.000001
              13         14         15         16
     1  C   -0.012299   0.018746   0.312551  -0.008857
     2  C    0.301086   0.010598  -0.014897   0.021370
     3  C   -0.029007   0.271203   0.022946  -0.036456
     4  C    0.025858  -0.003378  -0.017838   0.023996
     5  C   -0.004392   0.017568   0.030746   0.032309
     6  C    0.018608  -0.020445  -0.037844   0.303951
     7  N   -0.000448  -0.007690   0.000219  -0.000775
     8  C   -0.001972  -0.005628   0.003507  -0.050956
     9  C    0.001512   0.005964  -0.000076   0.003547
    10  H   -0.000002   0.002103  -0.000000   0.000004
    11  H    0.000000   0.000002  -0.000001   0.001525
    12  H   -0.000000   0.000002  -0.000000  -0.000001
    13  H    0.528661  -0.003834  -0.004429  -0.000121
    14  H   -0.003834   0.533631  -0.000127   0.000013
    15  H   -0.004429  -0.000127   0.528409  -0.003656
    16  H   -0.000121   0.000013  -0.003656   0.530020
 Mulliken charges:
               1
     1  C   -0.000909
     2  C   -0.399895
     3  C   -0.310748
     4  C   -0.760751
     5  C    1.260115
     6  C   -0.727315
     7  N   -0.467890
     8  C    0.152878
     9  C   -0.288457
    10  H    0.419132
    11  H    0.194651
    12  H    0.202564
    13  H    0.180778
    14  H    0.181270
    15  H    0.180490
    16  H    0.184087
 Sum of Mulliken charges =   0.00000
 Mulliken charges with hydrogens summed into heavy atoms:
               1
     1  C    0.179582
     2  C   -0.219117
     3  C   -0.129479
     4  C   -0.760751
     5  C    1.260115
     6  C   -0.543227
     7  N   -0.048758
     8  C    0.347529
     9  C   -0.085893
 Electronic spatial extent (au):  <R**2>=           1029.9800
 Charge=              0.0000 electrons
 Dipole moment (field-independent basis, Debye):
    X=              2.0621    Y=             -1.3878    Z=              0.0002  Tot=              2.4856
 Quadrupole moment (field-independent basis, Debye-Ang):
   XX=            -46.5042   YY=            -46.5085   ZZ=            -60.4136
   XY=             -2.9760   XZ=              0.0008   YZ=             -0.0012
 Traceless Quadrupole moment (field-independent basis, Debye-Ang):
   XX=              4.6379   YY=              4.6336   ZZ=             -9.2715
   XY=             -2.9760   XZ=              0.0008   YZ=             -0.0012
 Octapole moment (field-independent basis, Debye-Ang**2):
  XXX=             16.5649  YYY=             -9.5499  ZZZ=             -0.0040  XYY=             11.1349
  XXY=             -7.0913  XXZ=             -0.0007  XZZ=              2.9457  YZZ=             -1.2922
  YYZ=              0.0002  XYZ=             -0.0037
 Hexadecapole moment (field-independent basis, Debye-Ang**3):
 XXXX=           -859.0276 YYYY=           -404.9973 ZZZZ=            -85.5296 XXXY=            -19.9708
 XXXZ=             -0.0084 YYYX=            -19.4243 YYYZ=              0.0020 ZZZX=             -0.0033
 ZZZY=              0.0080 XXYY=           -206.2149 XXZZ=           -203.8465 YYZZ=           -105.3833
 XXYZ=             -0.0016 YYXZ=              0.0077 ZZXY=             -3.3219
 N-N= 3.959935662394D+02 E-N=-1.634059121284D+03  KE= 3.601042220207D+02
 Unable to Open any file for archive entry.
 1\1\GINC-EXP-1-49\FOpt\RB3LYP TD-FC\6-31+G(d)\C8H7N1\CWALDT\24-Jun-202
 1\0\\# td= (nstates=6, root=3) B3LYP/6-31+G* Opt density=current Empir
 icalDispersion=GD3\\FuncsB3LYP-V-3rd\\0,1\C,-2.1684128863,0.6998621217
 ,0.0000186847\C,-2.1474091393,-0.7358531699,0.0000496036\C,-0.93525473
 59,-1.4610101267,0.0000333146\C,0.2526030614,-0.685571581,-0.000018820
 5\C,0.2595529774,0.7783529396,-0.0000191829\C,-0.9749696028,1.47573815
 59,-0.000011847\N,1.566611737,-1.0871553411,-0.0001228167\C,1.62045901
 7,1.1759733614,-0.0000112851\C,2.4107559212,0.0282087657,0.0000486596\
 H,1.8786590129,-2.0469924403,0.0005395739\H,1.9956124192,2.1908490691,
 -0.0000577821\H,3.4845748559,-0.0897251851,0.0000445529\H,-3.091278554
 6,-1.2724485299,0.0000603865\H,-0.9143945482,-2.5457503839,-0.00000103
 51\H,-3.1306275141,1.2032454376,0.0000138466\H,-1.0095790209,2.5597229
 068,-0.0000298531\\Version=AS64L-G16RevC.01\State=1-A\HF=-363.8368026\
 RMSD=3.360e-09\RMSF=1.084e-04\Dipole=0.8112847,-0.5459844,0.0000942\Qu
 adrupole=3.4481322,3.4449914,-6.8931236,-2.2125604,0.000568,-0.0009127
 \PG=C01 [X(C8H7N1)]\\@
 The archive entry for this job was punched.


 I DON'T PRETEND TO UNDERSTAND THE UNIVERSE --
 IT'S A GREAT DEAL BIGGER THAN I AM.
       -- ATTR. TO WILLIAM ALLINGHAM (1828-89)
 Job cpu time:       0 days  1 hours 48 minutes  7.5 seconds.
 Elapsed time:       0 days  0 hours 39 minutes  8.9 seconds.
 File lengths (MBytes):  RWF=    238 Int=      0 D2E=      0 Chk=     11 Scr=      1
 Normal termination of Gaussian 16 at Thu Jun 24 14:25:33 2021.
