 Entering Gaussian System, Link 0=/cm/shared/apps/spack/cpu/opt/spack/linux-centos8-zen/gcc-8.3.1/gaussian-16.C.01-po5bqktfeugvmjyga3v7eigbecnokxng/g16/g16
 Initial command:
 /cm/shared/apps/spack/cpu/opt/spack/linux-centos8-zen/gcc-8.3.1/gaussian-16.C.01-po5bqktfeugvmjyga3v7eigbecnokxng/g16/l1.exe "/scratch/scaparas/job_3445844/Gau-1535.inp" -scrdir="/scratch/scaparas/job_3445844/"
 Entering Link 1 = /cm/shared/apps/spack/cpu/opt/spack/linux-centos8-zen/gcc-8.3.1/gaussian-16.C.01-po5bqktfeugvmjyga3v7eigbecnokxng/g16/l1.exe PID=      1536.
  
 Copyright (c) 1988-2019, Gaussian, Inc.  All Rights Reserved.
  
 This is part of the Gaussian(R) 16 program.  It is based on
 the Gaussian(R) 09 system (copyright 2009, Gaussian, Inc.),
 the Gaussian(R) 03 system (copyright 2003, Gaussian, Inc.),
 the Gaussian(R) 98 system (copyright 1998, Gaussian, Inc.),
 the Gaussian(R) 94 system (copyright 1995, Gaussian, Inc.),
 the Gaussian 92(TM) system (copyright 1992, Gaussian, Inc.),
 the Gaussian 90(TM) system (copyright 1990, Gaussian, Inc.),
 the Gaussian 88(TM) system (copyright 1988, Gaussian, Inc.),
 the Gaussian 86(TM) system (copyright 1986, Carnegie Mellon
 University), and the Gaussian 82(TM) system (copyright 1983,
 Carnegie Mellon University). Gaussian is a federally registered
 trademark of Gaussian, Inc.
  
 This software contains proprietary and confidential information,
 including trade secrets, belonging to Gaussian, Inc.
  
 This software is provided under written license and may be
 used, copied, transmitted, or stored only in accord with that
 written license.
  
 The following legend is applicable only to US Government
 contracts under FAR:
  
                    RESTRICTED RIGHTS LEGEND
  
 Use, reproduction and disclosure by the US Government is
 subject to restrictions as set forth in subparagraphs (a)
 and (c) of the Commercial Computer Software - Restricted
 Rights clause in FAR 52.227-19.
  
 Gaussian, Inc.
 340 Quinnipiac St., Bldg. 40, Wallingford CT 06492
  
  
 ---------------------------------------------------------------
 Warning -- This program may not be used in any manner that
 competes with the business of Gaussian, Inc. or will provide
 assistance to any competitor of Gaussian, Inc.  The licensee
 of this program is prohibited from giving any competitor of
 Gaussian, Inc. access to this program.  By using this program,
 the user acknowledges that Gaussian, Inc. is engaged in the
 business of creating and licensing software in the field of
 computational chemistry and represents and warrants to the
 licensee that it is not a competitor of Gaussian, Inc. and that
 it will not use this program in any manner prohibited above.
 ---------------------------------------------------------------
  

 Cite this work as:
 Gaussian 16, Revision C.01,
 M. J. Frisch, G. W. Trucks, H. B. Schlegel, G. E. Scuseria, 
 M. A. Robb, J. R. Cheeseman, G. Scalmani, V. Barone, 
 G. A. Petersson, H. Nakatsuji, X. Li, M. Caricato, A. V. Marenich, 
 J. Bloino, B. G. Janesko, R. Gomperts, B. Mennucci, H. P. Hratchian, 
 J. V. Ortiz, A. F. Izmaylov, J. L. Sonnenberg, D. Williams-Young, 
 F. Ding, F. Lipparini, F. Egidi, J. Goings, B. Peng, A. Petrone, 
 T. Henderson, D. Ranasinghe, V. G. Zakrzewski, J. Gao, N. Rega, 
 G. Zheng, W. Liang, M. Hada, M. Ehara, K. Toyota, R. Fukuda, 
 J. Hasegawa, M. Ishida, T. Nakajima, Y. Honda, O. Kitao, H. Nakai, 
 T. Vreven, K. Throssell, J. A. Montgomery, Jr., J. E. Peralta, 
 F. Ogliaro, M. J. Bearpark, J. J. Heyd, E. N. Brothers, K. N. Kudin, 
 V. N. Staroverov, T. A. Keith, R. Kobayashi, J. Normand, 
 K. Raghavachari, A. P. Rendell, J. C. Burant, S. S. Iyengar, 
 J. Tomasi, M. Cossi, J. M. Millam, M. Klene, C. Adamo, R. Cammi, 
 J. W. Ochterski, R. L. Martin, K. Morokuma, O. Farkas, 
 J. B. Foresman, and D. J. Fox, Gaussian, Inc., Wallingford CT, 2019.
 
 ******************************************
 Gaussian 16:  AS64L-G16RevC.01  3-Jul-2019
                16-Jun-2021 
 ******************************************
 %nprocshared=4
 Will use up to    4 processors via shared memory.
 %chk=FuncsM062X-V-3rd.chk
 %Mem=3GB
 -----------------------------------------------------------
 # td= (nstates=6, root=3) M062X/6-31+G* Opt density=current
 -----------------------------------------------------------
 1/18=20,19=15,26=3,38=1/1,3;
 2/9=110,12=2,17=6,18=5,40=1/2;
 3/5=1,6=6,7=11,11=9,25=1,30=1,71=1,74=-55/1,2,3,8;
 4//1;
 5/5=2,38=5/2;
 8/6=1,10=2,107=3,108=6/1;
 9/8=3,15=2,41=6,42=1,70=2/14;
 10/5=4,28=3/2;
 6/7=2,8=2,9=2,10=2,22=-1/1;
 7/12=6,13=5,14=3/1,2,3,16;
 1/18=20,19=15,26=3/3(2);
 2/9=110/2;
 99//99;
 2/9=110/2;
 3/5=1,6=6,7=11,11=9,25=1,30=1,71=1,74=-55/1,2,3,8;
 4/5=5,16=3,69=1/1;
 5/5=2,38=5/2;
 8/6=1,10=2,107=3,108=6/1;
 9/8=3,15=2,41=6,42=1,49=4,70=2/14;
 10/5=4,28=3/2;
 7/12=6,13=5,14=3/1,2,3,16;
 1/18=20,19=15,26=3/3(-8);
 2/9=110/2;
 6/7=2,8=2,9=2,10=2,22=-1/1;
 99/9=10/99;
 ----------------
 FuncsM062X-V-3rd
 ----------------
 Symbolic Z-matrix:
 Charge =  0 Multiplicity = 1
 C                    -2.15106   0.68921   0.00009 
 C                    -2.12793  -0.71582   0.00008 
 C                    -0.9323   -1.4131   -0.00001 
 C                     0.24691  -0.6702   -0.00004 
 C                     0.24819   0.7483    0. 
 C                    -0.97947   1.42353   0.00003 
 N                     1.56177  -1.07759  -0.00029 
 C                     1.62013   1.1629   -0.00016 
 C                     2.38201   0.03081   0.00025 
 H                     1.87632  -2.03001   0.00044 
 H                     1.99217   2.17301  -0.00035 
 H                     3.45255  -0.08243   0.00041 
 H                    -3.06159  -1.26202   0.00009 
 H                    -0.91725  -2.49534  -0.00007 
 H                    -3.1042    1.20079   0.00009 
 H                    -1.00935   2.50542  -0.00002 
 

 GradGradGradGradGradGradGradGradGradGradGradGradGradGradGradGradGradGrad
 Berny optimization.
 Initialization pass.
                           ----------------------------
                           !    Initial Parameters    !
                           ! (Angstroms and Degrees)  !
 --------------------------                            --------------------------
 ! Name  Definition              Value          Derivative Info.                !
 --------------------------------------------------------------------------------
 ! R1    R(1,2)                  1.4052         estimate D2E/DX2                !
 ! R2    R(1,6)                  1.3827         estimate D2E/DX2                !
 ! R3    R(1,15)                 1.0818         estimate D2E/DX2                !
 ! R4    R(2,3)                  1.3841         estimate D2E/DX2                !
 ! R5    R(2,13)                 1.0817         estimate D2E/DX2                !
 ! R6    R(3,4)                  1.3937         estimate D2E/DX2                !
 ! R7    R(3,14)                 1.0823         estimate D2E/DX2                !
 ! R8    R(4,5)                  1.4185         estimate D2E/DX2                !
 ! R9    R(4,7)                  1.3765         estimate D2E/DX2                !
 ! R10   R(5,6)                  1.4011         estimate D2E/DX2                !
 ! R11   R(5,8)                  1.4332         estimate D2E/DX2                !
 ! R12   R(6,16)                 1.0823         estimate D2E/DX2                !
 ! R13   R(7,9)                  1.3789         estimate D2E/DX2                !
 ! R14   R(7,10)                 1.003          estimate D2E/DX2                !
 ! R15   R(8,9)                  1.3646         estimate D2E/DX2                !
 ! R16   R(8,11)                 1.0764         estimate D2E/DX2                !
 ! R17   R(9,12)                 1.0765         estimate D2E/DX2                !
 ! A1    A(2,1,6)              121.1349         estimate D2E/DX2                !
 ! A2    A(2,1,15)             119.1671         estimate D2E/DX2                !
 ! A3    A(6,1,15)             119.698          estimate D2E/DX2                !
 ! A4    A(1,2,3)              121.1938         estimate D2E/DX2                !
 ! A5    A(1,2,13)             119.3846         estimate D2E/DX2                !
 ! A6    A(3,2,13)             119.4217         estimate D2E/DX2                !
 ! A7    A(2,3,4)              117.5387         estimate D2E/DX2                !
 ! A8    A(2,3,14)             121.0469         estimate D2E/DX2                !
 ! A9    A(4,3,14)             121.4144         estimate D2E/DX2                !
 ! A10   A(3,4,5)              122.2626         estimate D2E/DX2                !
 ! A11   A(3,4,7)              130.5743         estimate D2E/DX2                !
 ! A12   A(5,4,7)              107.163          estimate D2E/DX2                !
 ! A13   A(4,5,6)              118.7594         estimate D2E/DX2                !
 ! A14   A(4,5,8)              106.8666         estimate D2E/DX2                !
 ! A15   A(6,5,8)              134.374          estimate D2E/DX2                !
 ! A16   A(1,6,5)              119.1105         estimate D2E/DX2                !
 ! A17   A(1,6,16)             120.4966         estimate D2E/DX2                !
 ! A18   A(5,6,16)             120.3928         estimate D2E/DX2                !
 ! A19   A(4,7,9)              109.2874         estimate D2E/DX2                !
 ! A20   A(4,7,10)             125.4909         estimate D2E/DX2                !
 ! A21   A(9,7,10)             125.2217         estimate D2E/DX2                !
 ! A22   A(5,8,9)              107.125          estimate D2E/DX2                !
 ! A23   A(5,8,11)             127.0344         estimate D2E/DX2                !
 ! A24   A(9,8,11)             125.8405         estimate D2E/DX2                !
 ! A25   A(7,9,8)              109.5578         estimate D2E/DX2                !
 ! A26   A(7,9,12)             120.4645         estimate D2E/DX2                !
 ! A27   A(8,9,12)             129.9776         estimate D2E/DX2                !
 ! D1    D(6,1,2,3)             -0.0008         estimate D2E/DX2                !
 ! D2    D(6,1,2,13)          -179.9981         estimate D2E/DX2                !
 ! D3    D(15,1,2,3)           179.996          estimate D2E/DX2                !
 ! D4    D(15,1,2,13)           -0.0013         estimate D2E/DX2                !
 ! D5    D(2,1,6,5)             -0.0018         estimate D2E/DX2                !
 ! D6    D(2,1,6,16)           179.9965         estimate D2E/DX2                !
 ! D7    D(15,1,6,5)          -179.9986         estimate D2E/DX2                !
 ! D8    D(15,1,6,16)           -0.0003         estimate D2E/DX2                !
 ! D9    D(1,2,3,4)              0.002          estimate D2E/DX2                !
 ! D10   D(1,2,3,14)          -179.9968         estimate D2E/DX2                !
 ! D11   D(13,2,3,4)           179.9992         estimate D2E/DX2                !
 ! D12   D(13,2,3,14)            0.0005         estimate D2E/DX2                !
 ! D13   D(2,3,4,5)             -0.0005         estimate D2E/DX2                !
 ! D14   D(2,3,4,7)           -179.9911         estimate D2E/DX2                !
 ! D15   D(14,3,4,5)           179.9982         estimate D2E/DX2                !
 ! D16   D(14,3,4,7)             0.0076         estimate D2E/DX2                !
 ! D17   D(3,4,5,6)             -0.002          estimate D2E/DX2                !
 ! D18   D(3,4,5,8)           -179.9955         estimate D2E/DX2                !
 ! D19   D(7,4,5,6)            179.9905         estimate D2E/DX2                !
 ! D20   D(7,4,5,8)             -0.003          estimate D2E/DX2                !
 ! D21   D(3,4,7,9)           -179.98           estimate D2E/DX2                !
 ! D22   D(3,4,7,10)            -0.0649         estimate D2E/DX2                !
 ! D23   D(5,4,7,9)              0.0284         estimate D2E/DX2                !
 ! D24   D(5,4,7,10)           179.9434         estimate D2E/DX2                !
 ! D25   D(4,5,6,1)              0.0031         estimate D2E/DX2                !
 ! D26   D(4,5,6,16)          -179.9951         estimate D2E/DX2                !
 ! D27   D(8,5,6,1)            179.9944         estimate D2E/DX2                !
 ! D28   D(8,5,6,16)            -0.0038         estimate D2E/DX2                !
 ! D29   D(4,5,8,9)             -0.0234         estimate D2E/DX2                !
 ! D30   D(4,5,8,11)           179.9883         estimate D2E/DX2                !
 ! D31   D(6,5,8,9)            179.9846         estimate D2E/DX2                !
 ! D32   D(6,5,8,11)            -0.0037         estimate D2E/DX2                !
 ! D33   D(4,7,9,8)             -0.0444         estimate D2E/DX2                !
 ! D34   D(4,7,9,12)           179.9847         estimate D2E/DX2                !
 ! D35   D(10,7,9,8)          -179.9597         estimate D2E/DX2                !
 ! D36   D(10,7,9,12)            0.0693         estimate D2E/DX2                !
 ! D37   D(5,8,9,7)              0.0414         estimate D2E/DX2                !
 ! D38   D(5,8,9,12)          -179.9913         estimate D2E/DX2                !
 ! D39   D(11,8,9,7)          -179.9702         estimate D2E/DX2                !
 ! D40   D(11,8,9,12)           -0.0029         estimate D2E/DX2                !
 --------------------------------------------------------------------------------
 Trust Radius=3.00D-01 FncErr=1.00D-07 GrdErr=1.00D-06 EigMax=2.50D+02 EigMin=1.00D-04
 Number of steps in this run=     94 maximum allowed number of steps=    100.
 GradGradGradGradGradGradGradGradGradGradGradGradGradGradGradGradGradGrad

                          Input orientation:                          
 ---------------------------------------------------------------------
 Center     Atomic      Atomic             Coordinates (Angstroms)
 Number     Number       Type             X           Y           Z
 ---------------------------------------------------------------------
      1          6           0       -2.151063    0.689208    0.000088
      2          6           0       -2.127927   -0.715818    0.000075
      3          6           0       -0.932297   -1.413100   -0.000011
      4          6           0        0.246911   -0.670201   -0.000042
      5          6           0        0.248193    0.748299    0.000000
      6          6           0       -0.979474    1.423526    0.000032
      7          7           0        1.561774   -1.077592   -0.000285
      8          6           0        1.620133    1.162900   -0.000157
      9          6           0        2.382013    0.030806    0.000248
     10          1           0        1.876315   -2.030011    0.000438
     11          1           0        1.992173    2.173010   -0.000348
     12          1           0        3.452549   -0.082425    0.000408
     13          1           0       -3.061594   -1.262020    0.000088
     14          1           0       -0.917252   -2.495342   -0.000073
     15          1           0       -3.104203    1.200785    0.000090
     16          1           0       -1.009348    2.505421   -0.000015
 ---------------------------------------------------------------------
                    Distance matrix (angstroms):
                    1          2          3          4          5
     1  C    0.000000
     2  C    1.405216   0.000000
     3  C    2.430039   1.384100   0.000000
     4  C    2.756496   2.375276   1.393711   0.000000
     5  C    2.399984   2.790983   2.462763   1.418501   0.000000
     6  C    1.382694   2.428114   2.837018   2.426461   1.401106
     7  N    4.111781   3.707395   2.516536   1.376529   2.249305
     8  C    3.800829   4.192557   3.626386   2.290414   1.433218
     9  C    4.580641   4.571324   3.615178   2.247236   2.251218
    10  H    4.859416   4.214387   2.875566   2.122273   3.220216
    11  H    4.400917   5.031953   4.627387   3.336134   2.251948
    12  H    5.656491   5.616307   4.582311   3.259079   3.310287
    13  H    2.153220   1.081698   2.134650   3.361020   3.872476
    14  H    3.415208   2.152310   1.082347   2.164813   3.446661
    15  H    1.081752   2.150926   3.398466   3.838040   3.382795
    16  H    2.145261   3.409927   3.919278   3.415079   2.160761
                    6          7          8          9         10
     6  C    0.000000
     7  N    3.565604   0.000000
     8  C    2.612639   2.241252   0.000000
     9  C    3.638580   1.378890   1.364587   0.000000
    10  H    4.481345   1.003015   3.203172   2.121956   0.000000
    11  H    3.064704   3.278972   1.076446   2.177387   4.204618
    12  H    4.680888   2.136677   2.215532   1.076508   2.505515
    13  H    3.398144   4.627045   5.272457   5.595021   4.997275
    14  H    3.919362   2.855798   4.452085   4.155307   2.832058
    15  H    2.136372   5.192528   4.724488   5.609583   5.936632
    16  H    1.082307   4.410062   2.952378   4.198220   5.375611
                   11         12         13         14         15
    11  H    0.000000
    12  H    2.686947   0.000000
    13  H    6.110646   6.620083   0.000000
    14  H    5.500751   4.991726   2.473719   0.000000
    15  H    5.188282   6.681139   2.463174   4.294661   0.000000
    16  H    3.019872   5.158049   4.290143   5.001611   2.467892
                   16
    16  H    0.000000
 Stoichiometry    C8H7N
 Framework group  C1[X(C8H7N)]
 Deg. of freedom    42
 Full point group                 C1      NOp   1
 Largest Abelian subgroup         C1      NOp   1
 Largest concise Abelian subgroup C1      NOp   1
                         Standard orientation:                         
 ---------------------------------------------------------------------
 Center     Atomic      Atomic             Coordinates (Angstroms)
 Number     Number       Type             X           Y           Z
 ---------------------------------------------------------------------
      1          6           0       -2.151063    0.689208    0.000088
      2          6           0       -2.127927   -0.715818    0.000075
      3          6           0       -0.932297   -1.413100   -0.000011
      4          6           0        0.246911   -0.670201   -0.000042
      5          6           0        0.248193    0.748299    0.000000
      6          6           0       -0.979474    1.423526    0.000032
      7          7           0        1.561774   -1.077592   -0.000285
      8          6           0        1.620133    1.162900   -0.000157
      9          6           0        2.382013    0.030806    0.000248
     10          1           0        1.876315   -2.030011    0.000438
     11          1           0        1.992173    2.173010   -0.000348
     12          1           0        3.452549   -0.082425    0.000408
     13          1           0       -3.061594   -1.262020    0.000088
     14          1           0       -0.917252   -2.495342   -0.000073
     15          1           0       -3.104203    1.200785    0.000090
     16          1           0       -1.009348    2.505421   -0.000015
 ---------------------------------------------------------------------
 Rotational constants (GHZ):           3.9080822           1.6429452           1.1566805
 Standard basis: 6-31+G(d) (6D, 7F)
 There are   185 symmetry adapted cartesian basis functions of A   symmetry.
 There are   185 symmetry adapted basis functions of A   symmetry.
   185 basis functions,   316 primitive gaussians,   185 cartesian basis functions
    31 alpha electrons       31 beta electrons
       nuclear repulsion energy       401.3368668897 Hartrees.
 NAtoms=   16 NActive=   16 NUniq=   16 SFac= 1.00D+00 NAtFMM=   60 NAOKFM=F Big=F
 Integral buffers will be    131072 words long.
 Regular integral format.
 Two-electron integral symmetry is turned on.
 One-electron integrals computed using PRISM.
 NBasis=   185 RedAO= T EigKep=  1.26D-06  NBF=   185
 NBsUse=   185 1.00D-06 EigRej= -1.00D+00 NBFU=   185
 ExpMin= 4.38D-02 ExpMax= 4.17D+03 ExpMxC= 6.27D+02 IAcc=3 IRadAn=         5 AccDes= 0.00D+00
 Harris functional with IExCor= 1009 and IRadAn=       5 diagonalized for initial guess.
 HarFok:  IExCor= 1009 AccDes= 0.00D+00 IRadAn=         5 IDoV= 1 UseB2=F ITyADJ=14
 ICtDFT=  3500011 ScaDFX=  1.000000  1.000000  1.000000  1.000000
 FoFCou: FMM=F IPFlag=           0 FMFlag=      100000 FMFlg1=           0
         NFxFlg=           0 DoJE=T BraDBF=F KetDBF=T FulRan=T
         wScrn=  0.000000 ICntrl=       500 IOpCl=  0 I1Cent=   200000004 NGrid=           0
         NMat0=    1 NMatS0=      1 NMatT0=    0 NMatD0=    1 NMtDS0=    0 NMtDT0=    0
 Petite list used in FoFCou.
 Keep R1 ints in memory in canonical form, NReq=152074523.
 Requested convergence on RMS density matrix=1.00D-08 within 128 cycles.
 Requested convergence on MAX density matrix=1.00D-06.
 Requested convergence on             energy=1.00D-06.
 No special actions if energy rises.
 SCF Done:  E(RM062X) =  -363.671654518     A.U. after   15 cycles
            NFock= 15  Conv=0.48D-08     -V/T= 2.0085
 DoSCS=F DFT=T ScalE2(SS,OS)=  1.000000  1.000000
 ExpMin= 4.38D-02 ExpMax= 4.17D+03 ExpMxC= 6.27D+02 IAcc=3 IRadAn=         5 AccDes= 0.00D+00
 HarFok:  IExCor=  205 AccDes= 0.00D+00 IRadAn=         5 IDoV=-2 UseB2=F ITyADJ=14
 ICtDFT= 12500011 ScaDFX=  1.000000  1.000000  1.000000  1.000000
 Range of M.O.s used for correlation:    10   185
 NBasis=   185 NAE=    31 NBE=    31 NFC=     9 NFV=     0
 NROrb=    176 NOA=    22 NOB=    22 NVA=   154 NVB=   154

 **** Warning!!: The largest alpha MO coefficient is  0.19273222D+03

 Orbital symmetries:
       Occupied  (A) (A) (A) (A) (A) (A) (A) (A) (A) (A) (A) (A)
                 (A) (A) (A) (A) (A) (A) (A) (A) (A) (A) (A) (A)
                 (A) (A) (A) (A) (A) (A) (A)
       Virtual   (A) (A) (A) (A) (A) (A) (A) (A) (A) (A) (A) (A)
                 (A) (A) (A) (A) (A) (A) (A) (A) (A) (A) (A) (A)
                 (A) (A) (A) (A) (A) (A) (A) (A) (A) (A) (A) (A)
                 (A) (A) (A) (A) (A) (A) (A) (A) (A) (A) (A) (A)
                 (A) (A) (A) (A) (A) (A) (A) (A) (A) (A) (A) (A)
                 (A) (A) (A) (A) (A) (A) (A) (A) (A) (A) (A) (A)
                 (A) (A) (A) (A) (A) (A) (A) (A) (A) (A) (A) (A)
                 (A) (A) (A) (A) (A) (A) (A) (A) (A) (A) (A) (A)
                 (A) (A) (A) (A) (A) (A) (A) (A) (A) (A) (A) (A)
                 (A) (A) (A) (A) (A) (A) (A) (A) (A) (A) (A) (A)
                 (A) (A) (A) (A) (A) (A) (A) (A) (A) (A) (A) (A)
                 (A) (A) (A) (A) (A) (A) (A) (A) (A) (A) (A) (A)
                 (A) (A) (A) (A) (A) (A) (A) (A) (A) (A)
    24 initial guesses have been made.
 Convergence on wavefunction:    0.000001000000000
 Iteration     1 Dimension    24 NMult     0 NNew     24
 CISAX will form    24 AO SS matrices at one time.
 New state      2 was old state      6
 New state      3 was old state      2
 New state      4 was old state      3
 New state      5 was old state      4
 New state      6 was old state      5
 Iteration     2 Dimension    36 NMult    24 NNew     12
 New state      1 was old state      2
 New state      2 was old state      1
 Iteration     3 Dimension    48 NMult    36 NNew     12
 New state      2 was old state      3
 New state      3 was old state      2
 Iteration     4 Dimension    60 NMult    48 NNew     12
 Iteration     5 Dimension    72 NMult    60 NNew     12
 Iteration     6 Dimension    84 NMult    72 NNew     12
 Iteration     7 Dimension    96 NMult    84 NNew     12
 Iteration     8 Dimension   108 NMult    96 NNew     12
 Iteration     9 Dimension   120 NMult   108 NNew     12
 Iteration    10 Dimension   128 NMult   120 NNew      8
 Iteration    11 Dimension   130 NMult   128 NNew      2
 ***********************************************************************
 Excited states from <AA,BB:AA,BB> singles matrix:
 ***********************************************************************
 
 Ground to excited state transition densities written to RWF  633
 Ground to excited state transition electric dipole moments (Au):
       state          X           Y           Z        Dip. S.      Osc.
         1         0.0951     -0.6273      0.0003      0.4025      0.0504
         2        -0.8625      0.3254     -0.0036      0.8497      0.1077
         3         0.0253     -0.0110     -0.1196      0.0151      0.0019
         4        -0.0003      0.0000     -0.1384      0.0192      0.0027
         5         0.0003     -0.0000     -0.0297      0.0009      0.0001
         6         0.0007      0.0001      0.0991      0.0098      0.0014
 Ground to excited state transition velocity dipole moments (Au):
       state          X           Y           Z        Dip. S.      Osc.
         1        -0.0147      0.1306     -0.0000      0.0173      0.0613
         2         0.1587     -0.0698      0.0004      0.0301      0.1054
         3        -0.0046      0.0023      0.0140      0.0002      0.0008
         4         0.0001     -0.0000      0.0324      0.0010      0.0033
         5        -0.0001      0.0000      0.0069      0.0000      0.0001
         6        -0.0001     -0.0000     -0.0218      0.0005      0.0015
 Ground to excited state transition magnetic dipole moments (Au):
       state          X           Y           Z
         1        -0.0006      0.0000     -0.1936
         2         0.0042     -0.0022      0.0738
         3         0.1435     -0.0690     -0.0025
         4         0.0756     -0.3073     -0.0001
         5         0.2414     -0.2663      0.0001
         6         0.2604      0.2854      0.0006
 Ground to excited state transition velocity quadrupole moments (Au):
       state          XX          YY          ZZ          XY          XZ          YZ
         1        -0.1428      0.0307      0.0050     -0.0396     -0.0001     -0.0002
         2         0.1963     -0.1798      0.0292      0.0225      0.0017      0.0020
         3        -0.0061      0.0053     -0.0007     -0.0008      0.0561      0.0680
         4        -0.0000      0.0000      0.0000     -0.0000      0.2180      0.0133
         5        -0.0003      0.0000      0.0000      0.0001      0.2893      0.2453
         6         0.0000     -0.0001      0.0001      0.0003     -0.2122      0.1451
 <0|del|b> * <b|rxdel|0> + <0|del|b> * <b|delr+rdel|0>
 Rotatory Strengths (R) in cgs (10**-40 erg-esu-cm/Gauss)
       state          XX          YY          ZZ    R(velocity)    E-M Angle
         1         0.0526      0.0305     -0.0093      0.0246       90.00
         2         0.5870      1.8654      0.7259      1.0594       86.18
         3        -0.6302     -1.8689     -0.7075     -1.0689      111.20
         4         0.0069      0.0100      0.0102      0.0090       90.00
         5        -0.0005     -0.0559      0.0005     -0.0186       90.00
         6        -0.0432     -0.1033     -0.0286     -0.0584       90.00
 1/2[<0|r|b>*<b|rxdel|0> + (<0|rxdel|b>*<b|r|0>)*]
 Rotatory Strengths (R) in cgs (10**-40 erg-esu-cm/Gauss)
       state          XX          YY          ZZ     R(length)
         1         0.0379      0.0190      0.0390      0.0319
         2         2.5762      0.5024      0.1863      1.0883
         3        -2.5636     -0.5351     -0.2100     -1.1029
         4         0.0185      0.0089     -0.0050      0.0075
         5        -0.0535     -0.0079      0.0014     -0.0200
         6        -0.1274     -0.0266     -0.0393     -0.0644
  1/2[<0|del|b>*<b|r|0> + (<0|r|b>*<b|del|0>)*] (Au)
       state          X           Y           Z        Dip. S.   Osc.(frdel)
         1        -0.0014     -0.0819     -0.0000      0.0833      0.0556
         2        -0.1369     -0.0227     -0.0000      0.1596      0.1064
         3        -0.0001     -0.0000     -0.0017      0.0018      0.0012
         4        -0.0000     -0.0000     -0.0045      0.0045      0.0030
         5        -0.0000     -0.0000     -0.0002      0.0002      0.0001
         6        -0.0000     -0.0000     -0.0022      0.0022      0.0014

 Excitation energies and oscillator strengths:
 
 Excited State   1:      Singlet-A      5.1141 eV  242.44 nm  f=0.0504  <S**2>=0.000
      30 -> 33         0.45701
      30 -> 38        -0.11021
      31 -> 33        -0.45033
      31 -> 38        -0.23510
 
 Excited State   2:      Singlet-A      5.1712 eV  239.76 nm  f=0.1077  <S**2>=0.000
      30 -> 33         0.37232
      30 -> 38         0.12088
      31 -> 33         0.50669
      31 -> 38        -0.27376
 
 Excited State   3:      Singlet-A      5.1779 eV  239.45 nm  f=0.0019  <S**2>=0.000
      31 -> 32         0.69070
 This state for optimization and/or second-order correction.
 Total Energy, E(TD-HF/TD-DFT) =  -363.481369506    
 Copying the excited state density for this state as the 1-particle RhoCI density.
 
 Excited State   4:      Singlet-A      5.6910 eV  217.86 nm  f=0.0027  <S**2>=0.000
      30 -> 32         0.65287
      31 -> 34         0.19873
 
 Excited State   5:      Singlet-A      5.8447 eV  212.13 nm  f=0.0001  <S**2>=0.000
      30 -> 32        -0.20426
      31 -> 34         0.63871
      31 -> 35        -0.15447
 
 Excited State   6:      Singlet-A      5.8941 eV  210.35 nm  f=0.0014  <S**2>=0.000
      31 -> 34         0.15771
      31 -> 35         0.65899
      31 -> 36         0.10343
 SavETr:  write IOETrn=   770 NScale= 10 NData=  16 NLR=1 NState=    6 LETran=     118.
          IDoAtm=1111111111111111
          Differentiating once with respect to electric field.
                with respect to dipole field.
          Differentiating once with respect to nuclear coordinates.
 Keep R1 ints in memory in canonical form, NReq=152086915.
          There are     1 degrees of freedom in the 1st order CPHF.  IDoFFX=0 NUNeed=     1.
 LinEq1:  Iter=  0 NonCon=     1 RMS=1.04D-02 Max=1.43D-01 NDo=     1
 AX will form     1 AO Fock derivatives at one time.
 LinEq1:  Iter=  1 NonCon=     1 RMS=4.41D-03 Max=1.15D-01 NDo=     1
 LinEq1:  Iter=  2 NonCon=     1 RMS=2.61D-03 Max=7.54D-02 NDo=     1
 LinEq1:  Iter=  3 NonCon=     1 RMS=9.17D-04 Max=1.74D-02 NDo=     1
 LinEq1:  Iter=  4 NonCon=     1 RMS=5.13D-04 Max=1.11D-02 NDo=     1
 LinEq1:  Iter=  5 NonCon=     1 RMS=2.24D-04 Max=4.22D-03 NDo=     1
 LinEq1:  Iter=  6 NonCon=     1 RMS=1.25D-04 Max=3.41D-03 NDo=     1
 LinEq1:  Iter=  7 NonCon=     1 RMS=6.17D-05 Max=1.91D-03 NDo=     1
 LinEq1:  Iter=  8 NonCon=     1 RMS=1.49D-05 Max=3.44D-04 NDo=     1
 LinEq1:  Iter=  9 NonCon=     1 RMS=9.24D-06 Max=2.64D-04 NDo=     1
 LinEq1:  Iter= 10 NonCon=     1 RMS=3.39D-06 Max=4.77D-05 NDo=     1
 LinEq1:  Iter= 11 NonCon=     1 RMS=1.63D-06 Max=3.48D-05 NDo=     1
 LinEq1:  Iter= 12 NonCon=     1 RMS=6.32D-07 Max=7.49D-06 NDo=     1
 LinEq1:  Iter= 13 NonCon=     1 RMS=2.37D-07 Max=6.98D-06 NDo=     1
 LinEq1:  Iter= 14 NonCon=     1 RMS=1.29D-07 Max=2.59D-06 NDo=     1
 LinEq1:  Iter= 15 NonCon=     1 RMS=3.51D-08 Max=7.75D-07 NDo=     1
 LinEq1:  Iter= 16 NonCon=     1 RMS=9.10D-09 Max=2.06D-07 NDo=     1
 LinEq1:  Iter= 17 NonCon=     1 RMS=4.27D-09 Max=1.16D-07 NDo=     1
 LinEq1:  Iter= 18 NonCon=     1 RMS=1.38D-09 Max=1.90D-08 NDo=     1
 LinEq1:  Iter= 19 NonCon=     1 RMS=3.98D-10 Max=4.13D-09 NDo=     1
 LinEq1:  Iter= 20 NonCon=     1 RMS=1.16D-10 Max=1.12D-09 NDo=     1
 LinEq1:  Iter= 21 NonCon=     0 RMS=3.76D-11 Max=5.71D-10 NDo=     1
 Linear equations converged to 1.000D-10 1.000D-09 after    21 iterations.
 End of Minotr F.D. properties file   721 does not exist.
 End of Minotr F.D. properties file   722 does not exist.
 End of Minotr F.D. properties file   788 does not exist.

 **********************************************************************

            Population analysis using the CI Density.

 **********************************************************************

 Orbital symmetries:
       Occupied  (A) (A) (A) (A) (A) (A) (A) (A) (A) (A) (A) (A)
                 (A) (A) (A) (A) (A) (A) (A) (A) (A) (A) (A) (A)
                 (A) (A) (A) (A) (A) (A) (A)
       Virtual   (A) (A) (A) (A) (A) (A) (A) (A) (A) (A) (A) (A)
                 (A) (A) (A) (A) (A) (A) (A) (A) (A) (A) (A) (A)
                 (A) (A) (A) (A) (A) (A) (A) (A) (A) (A) (A) (A)
                 (A) (A) (A) (A) (A) (A) (A) (A) (A) (A) (A) (A)
                 (A) (A) (A) (A) (A) (A) (A) (A) (A) (A) (A) (A)
                 (A) (A) (A) (A) (A) (A) (A) (A) (A) (A) (A) (A)
                 (A) (A) (A) (A) (A) (A) (A) (A) (A) (A) (A) (A)
                 (A) (A) (A) (A) (A) (A) (A) (A) (A) (A) (A) (A)
                 (A) (A) (A) (A) (A) (A) (A) (A) (A) (A) (A) (A)
                 (A) (A) (A) (A) (A) (A) (A) (A) (A) (A) (A) (A)
                 (A) (A) (A) (A) (A) (A) (A) (A) (A) (A) (A) (A)
                 (A) (A) (A) (A) (A) (A) (A) (A) (A) (A) (A) (A)
                 (A) (A) (A) (A) (A) (A) (A) (A) (A) (A)
 The electronic state is 1-A.
 Alpha  occ. eigenvalues --  -14.81043 -10.58588 -10.58293 -10.55216 -10.54724
 Alpha  occ. eigenvalues --  -10.54666 -10.54645 -10.54102 -10.53807  -1.09587
 Alpha  occ. eigenvalues --   -0.94525  -0.88334  -0.83265  -0.81325  -0.71042
 Alpha  occ. eigenvalues --   -0.67880  -0.66432  -0.61901  -0.55640  -0.54433
 Alpha  occ. eigenvalues --   -0.50520  -0.49963  -0.49875  -0.47754  -0.45664
 Alpha  occ. eigenvalues --   -0.41649  -0.40310  -0.39465  -0.33969  -0.27444
 Alpha  occ. eigenvalues --   -0.25664
 Alpha virt. eigenvalues --    0.00716   0.01304   0.02615   0.03046   0.04333
 Alpha virt. eigenvalues --    0.04583   0.05170   0.06622   0.06661   0.07040
 Alpha virt. eigenvalues --    0.07441   0.07619   0.09757   0.10432   0.10905
 Alpha virt. eigenvalues --    0.10991   0.12537   0.13697   0.14788   0.15226
 Alpha virt. eigenvalues --    0.16242   0.16393   0.17459   0.17904   0.18646
 Alpha virt. eigenvalues --    0.19609   0.19826   0.20281   0.21156   0.21618
 Alpha virt. eigenvalues --    0.22277   0.23082   0.23264   0.24170   0.24836
 Alpha virt. eigenvalues --    0.25218   0.25849   0.26179   0.26909   0.27630
 Alpha virt. eigenvalues --    0.28892   0.29084   0.30814   0.31737   0.33294
 Alpha virt. eigenvalues --    0.34339   0.34592   0.35869   0.37944   0.40334
 Alpha virt. eigenvalues --    0.41202   0.43912   0.48451   0.49192   0.55853
 Alpha virt. eigenvalues --    0.63025   0.67665   0.71604   0.71821   0.74551
 Alpha virt. eigenvalues --    0.75980   0.76706   0.77755   0.78322   0.78992
 Alpha virt. eigenvalues --    0.80019   0.80536   0.82415   0.83990   0.84652
 Alpha virt. eigenvalues --    0.86103   0.90096   0.94008   0.95786   0.96625
 Alpha virt. eigenvalues --    0.98859   0.99948   1.00475   1.01776   1.03313
 Alpha virt. eigenvalues --    1.05103   1.07784   1.09539   1.11747   1.13324
 Alpha virt. eigenvalues --    1.15458   1.15792   1.20924   1.21732   1.24166
 Alpha virt. eigenvalues --    1.26060   1.29001   1.29366   1.35605   1.37730
 Alpha virt. eigenvalues --    1.39773   1.40140   1.45090   1.47296   1.48769
 Alpha virt. eigenvalues --    1.51820   1.52384   1.55578   1.56314   1.57422
 Alpha virt. eigenvalues --    1.62490   1.68672   1.82750   1.88906   1.93187
 Alpha virt. eigenvalues --    1.94083   1.96140   1.99135   2.04589   2.05253
 Alpha virt. eigenvalues --    2.05364   2.11254   2.14305   2.18524   2.21551
 Alpha virt. eigenvalues --    2.21703   2.24194   2.29343   2.30115   2.30609
 Alpha virt. eigenvalues --    2.32596   2.35063   2.41927   2.44970   2.48397
 Alpha virt. eigenvalues --    2.58576   2.59563   2.66669   2.68560   2.69951
 Alpha virt. eigenvalues --    2.73035   2.76252   2.83908   2.87610   2.88298
 Alpha virt. eigenvalues --    2.97585   3.00125   3.14092   3.25783   3.45959
 Alpha virt. eigenvalues --    4.18343   4.28670   4.31861   4.35246   4.39001
 Alpha virt. eigenvalues --    4.42562   4.50718   4.54608   4.81432
          Condensed to atoms (all electrons):
               1          2          3          4          5          6
     1  C   28.243845   8.725114  -2.109103 -20.745161  -8.500909 -19.991472
     2  C    8.725114  30.181066   7.264238 -31.285142  14.718455 -36.671642
     3  C   -2.109103   7.264238  19.328653 -12.526673   7.243164 -13.754499
     4  C  -20.745161 -31.285142 -12.526673  94.148640 -23.775621  50.621848
     5  C   -8.500909  14.718455   7.243164 -23.775621  89.573054 -37.779689
     6  C  -19.991472 -36.671642 -13.754499  50.621848 -37.779689  78.677726
     7  N   -0.672853  -1.025879   1.601639   4.541363  -4.779453   2.472385
     8  C   34.038679  24.499741  -5.861678-100.659739 -57.836750 -24.884505
     9  C  -13.121673  -9.807549   4.673052  46.112006  25.471898   7.122752
    10  H    0.009142  -0.021960  -0.243365   0.268915   0.346796  -0.062247
    11  H   -0.015519  -0.000737  -0.009332  -0.006652   0.155196   0.029752
    12  H    0.002868  -0.003640   0.050452   0.096881  -0.177902  -0.026581
    13  H    0.058744   0.148856  -0.056755   0.137876  -0.084122   0.118607
    14  H    0.067911   0.019104   0.409277   0.112391  -0.317479  -0.010697
    15  H    0.299339   0.099920  -0.006306  -0.063494   0.031299  -0.058287
    16  H   -0.118291  -0.078907  -0.013973   0.200447   0.271138   0.176058
               7          8          9         10         11         12
     1  C   -0.672853  34.038679 -13.121673   0.009142  -0.015519   0.002868
     2  C   -1.025879  24.499741  -9.807549  -0.021960  -0.000737  -0.003640
     3  C    1.601639  -5.861678   4.673052  -0.243365  -0.009332   0.050452
     4  C    4.541363-100.659739  46.112006   0.268915  -0.006652   0.096881
     5  C   -4.779453 -57.836750  25.471898   0.346796   0.155196  -0.177902
     6  C    2.472385 -24.884505   7.122752  -0.062247   0.029752  -0.026581
     7  N   14.807375 -28.354283  18.068404  -0.602932   0.006297  -0.031466
     8  C  -28.354283 348.046519-179.099118   1.747372  -0.015547   0.135935
     9  C   18.068404-179.099118 104.013373  -1.227168   0.162093   0.274861
    10  H   -0.602932   1.747372  -1.227168   0.394590  -0.000113  -0.001844
    11  H    0.006297  -0.015547   0.162093  -0.000113   0.426896  -0.000446
    12  H   -0.031466   0.135935   0.274861  -0.001844  -0.000446   0.383260
    13  H    0.003442  -0.029363   0.013754  -0.000015   0.000000  -0.000000
    14  H    0.031018  -0.052753   0.037634   0.000353   0.000001   0.000003
    15  H   -0.000482   0.017735  -0.003076   0.000000  -0.000001  -0.000000
    16  H    0.002554  -0.197131   0.055229   0.000000   0.001107  -0.000001
              13         14         15         16
     1  C    0.058744   0.067911   0.299339  -0.118291
     2  C    0.148856   0.019104   0.099920  -0.078907
     3  C   -0.056755   0.409277  -0.006306  -0.013973
     4  C    0.137876   0.112391  -0.063494   0.200447
     5  C   -0.084122  -0.317479   0.031299   0.271138
     6  C    0.118607  -0.010697  -0.058287   0.176058
     7  N    0.003442   0.031018  -0.000482   0.002554
     8  C   -0.029363  -0.052753   0.017735  -0.197131
     9  C    0.013754   0.037634  -0.003076   0.055229
    10  H   -0.000015   0.000353   0.000000   0.000000
    11  H    0.000000   0.000001  -0.000001   0.001107
    12  H   -0.000000   0.000003  -0.000000  -0.000001
    13  H    0.452695  -0.002147  -0.003436  -0.000103
    14  H   -0.002147   0.430844  -0.000118   0.000014
    15  H   -0.003436  -0.000118   0.461454  -0.003200
    16  H   -0.000103   0.000014  -0.003200   0.461758
 Mulliken charges:
               1
     1  C   -0.170662
     2  C   -0.761037
     3  C    0.011210
     4  C   -1.177883
     5  C    1.440925
     6  C    0.020492
     7  N    0.932872
     8  C   -5.495114
     9  C    3.253531
    10  H    0.392477
    11  H    0.267005
    12  H    0.297621
    13  H    0.241966
    14  H    0.274646
    15  H    0.228654
    16  H    0.243299
 Sum of Mulliken charges =   0.00000
 Mulliken charges with hydrogens summed into heavy atoms:
               1
     1  C    0.057991
     2  C   -0.519071
     3  C    0.285856
     4  C   -1.177883
     5  C    1.440925
     6  C    0.263791
     7  N    1.325349
     8  C   -5.228109
     9  C    3.551151
 Electronic spatial extent (au):  <R**2>=           1040.4064
 Charge=             -0.0000 electrons
 Dipole moment (field-independent basis, Debye):
    X=             -5.8873    Y=              6.7013    Z=              0.0659  Tot=              8.9204
 Quadrupole moment (field-independent basis, Debye-Ang):
   XX=            -63.2823   YY=            -65.7455   ZZ=            -66.9668
   XY=             16.5071   XZ=              0.1342   YZ=             -0.1091
 Traceless Quadrupole moment (field-independent basis, Debye-Ang):
   XX=              2.0492   YY=             -0.4140   ZZ=             -1.6352
   XY=             16.5071   XZ=              0.1342   YZ=             -0.1091
 Octapole moment (field-independent basis, Debye-Ang**2):
  XXX=           -114.0797  YYY=             84.4278  ZZZ=              0.4180  XYY=            -48.5815
  XXY=             53.8653  XXZ=              0.4580  XZZ=            -20.5990  YZZ=             21.6831
  YYZ=              0.4175  XYZ=             -0.1402
 Hexadecapole moment (field-independent basis, Debye-Ang**3):
 XXXX=          -1334.5471 YYYY=           -731.5553 ZZZZ=           -150.3787 XXXY=            220.9339
 XXXZ=              2.0529 YYYX=            152.6975 YYYZ=             -0.9703 ZZZX=              0.7516
 ZZZY=             -0.6063 XXYY=           -357.8579 XXZZ=           -254.3885 YYZZ=           -160.0200
 XXYZ=             -0.5846 YYXZ=              0.2937 ZZXY=             42.3734
 N-N= 4.013368668897D+02 E-N=-1.641283139019D+03  KE= 3.605373988547D+02
 Calling FoFJK, ICntrl=  10005127 FMM=F ISym2X=0 I1Cent= 0 IOpClX= 0 NMat=1 NMatS=1 NMatT=0.
 ***** Axes restored to original set *****
 -------------------------------------------------------------------
 Center     Atomic                   Forces (Hartrees/Bohr)
 Number     Number              X              Y              Z
 -------------------------------------------------------------------
      1        6          -0.013018881   -0.014602960    0.000125941
      2        6          -0.015879878    0.025528668   -0.000074487
      3        6           0.030682974   -0.009839708   -0.000219103
      4        6          -0.013482140    0.002313796    0.000342461
      5        6           0.002158149   -0.003520903   -0.000147157
      6        6           0.009477768    0.008813642   -0.000288839
      7        7           0.026459155    0.058843840    0.000295252
      8        6          -0.037106944    0.024596267    0.000216047
      9        6          -0.003561591   -0.071980659   -0.000306510
     10        1           0.011491060   -0.024088803   -0.000153098
     11        1           0.001747940    0.004122190    0.000016827
     12        1           0.003523385   -0.002943633    0.000003324
     13        1          -0.001934802   -0.001111399   -0.000003230
     14        1           0.001439419    0.000158408    0.000090772
     15        1          -0.001762228    0.001146119    0.000040421
     16        1          -0.000233387    0.002565136    0.000061376
 -------------------------------------------------------------------
 Cartesian Forces:  Max     0.071980659 RMS     0.017563684

 GradGradGradGradGradGradGradGradGradGradGradGradGradGradGradGradGradGrad
 Berny optimization.
 FormGI is forming the generalized inverse of G from B-inverse, IUseBI=4.
 Internal  Forces:  Max     0.047895273 RMS     0.008848286
 Search for a local minimum.
 Step number   1 out of a maximum of   94
 All quantities printed in internal units (Hartrees-Bohrs-Radians)
 Mixed Optimization -- RFO/linear search
 Second derivative matrix not updated -- first step.
 ITU=  0
     Eigenvalues ---    0.01853   0.01931   0.01986   0.02012   0.02070
     Eigenvalues ---    0.02113   0.02148   0.02153   0.02172   0.02209
     Eigenvalues ---    0.02233   0.02248   0.02338   0.16000   0.16000
     Eigenvalues ---    0.16000   0.16000   0.16000   0.16000   0.16000
     Eigenvalues ---    0.22000   0.22188   0.22662   0.24011   0.24651
     Eigenvalues ---    0.35712   0.35717   0.35783   0.35790   0.36420
     Eigenvalues ---    0.36427   0.37009   0.38432   0.42633   0.43465
     Eigenvalues ---    0.45769   0.46692   0.47162   0.47468   0.47567
     Eigenvalues ---    0.48125   0.50955
 RFO step:  Lambda=-1.35793691D-02 EMin= 1.85287394D-02
 Linear search not attempted -- first point.
 Iteration  1 RMS(Cart)=  0.02565425 RMS(Int)=  0.00012285
 Iteration  2 RMS(Cart)=  0.00015089 RMS(Int)=  0.00003740
 Iteration  3 RMS(Cart)=  0.00000002 RMS(Int)=  0.00003740
 Variable       Old X    -DE/DX   Delta X   Delta X   Delta X     New X
                                 (Linear)    (Quad)   (Total)
    R1        2.65547  -0.00840   0.00000  -0.01688  -0.01689   2.63858
    R2        2.61291   0.01152   0.00000   0.02406   0.02405   2.63697
    R3        2.04421   0.00209   0.00000   0.00564   0.00564   2.04985
    R4        2.61557   0.02714   0.00000   0.05486   0.05486   2.67043
    R5        2.04411   0.00223   0.00000   0.00601   0.00601   2.05012
    R6        2.63373  -0.01179   0.00000  -0.02560  -0.02559   2.60814
    R7        2.04534  -0.00014   0.00000  -0.00037  -0.00037   2.04497
    R8        2.68058  -0.00251   0.00000  -0.00733  -0.00725   2.67333
    R9        2.60126   0.01384   0.00000   0.02403   0.02411   2.62538
   R10        2.64771   0.00415   0.00000   0.00862   0.00863   2.65634
   R11        2.70839  -0.01118   0.00000  -0.02309  -0.02314   2.68525
   R12        2.04526   0.00257   0.00000   0.00693   0.00693   2.05219
   R13        2.60573  -0.04790   0.00000  -0.09626  -0.09627   2.50946
   R14        1.89542   0.02648   0.00000   0.05457   0.05457   1.94999
   R15        2.57870   0.04241   0.00000   0.08127   0.08118   2.65987
   R16        2.03419   0.00447   0.00000   0.01184   0.01184   2.04603
   R17        2.03430   0.00381   0.00000   0.01009   0.01009   2.04440
    A1        2.11420  -0.00499   0.00000  -0.01647  -0.01648   2.09772
    A2        2.07986   0.00267   0.00000   0.00924   0.00925   2.08911
    A3        2.08912   0.00232   0.00000   0.00723   0.00723   2.09636
    A4        2.11523   0.00278   0.00000   0.01512   0.01511   2.13034
    A5        2.08365  -0.00140   0.00000  -0.00763  -0.00763   2.07602
    A6        2.08430  -0.00137   0.00000  -0.00749  -0.00748   2.07682
    A7        2.05144  -0.00081   0.00000  -0.00501  -0.00500   2.04644
    A8        2.11267   0.00188   0.00000   0.01102   0.01101   2.12368
    A9        2.11908  -0.00108   0.00000  -0.00601  -0.00602   2.11306
   A10        2.13389  -0.00268   0.00000  -0.01094  -0.01098   2.12291
   A11        2.27895  -0.00306   0.00000  -0.00616  -0.00625   2.27270
   A12        1.87035   0.00573   0.00000   0.01710   0.01723   1.88758
   A13        2.07274   0.00837   0.00000   0.02695   0.02698   2.09972
   A14        1.86517  -0.00767   0.00000  -0.02360  -0.02359   1.84158
   A15        2.34527  -0.00070   0.00000  -0.00336  -0.00339   2.34188
   A16        2.07887  -0.00267   0.00000  -0.00965  -0.00964   2.06924
   A17        2.10306   0.00117   0.00000   0.00384   0.00383   2.10690
   A18        2.10125   0.00151   0.00000   0.00581   0.00580   2.10705
   A19        1.90743   0.00441   0.00000   0.00847   0.00855   1.91597
   A20        2.19023   0.00098   0.00000   0.01412   0.01408   2.20431
   A21        2.18553  -0.00539   0.00000  -0.02259  -0.02263   2.16290
   A22        1.86968  -0.00048   0.00000   0.00692   0.00679   1.87648
   A23        2.21717   0.00046   0.00000  -0.00222  -0.00216   2.21501
   A24        2.19633   0.00003   0.00000  -0.00470  -0.00463   2.19170
   A25        1.91215  -0.00199   0.00000  -0.00890  -0.00898   1.90316
   A26        2.10250  -0.00160   0.00000  -0.01050  -0.01046   2.09205
   A27        2.26854   0.00359   0.00000   0.01940   0.01944   2.28798
    D1       -0.00001   0.00005   0.00000   0.00135   0.00135   0.00133
    D2       -3.14156   0.00002   0.00000   0.00061   0.00061  -3.14095
    D3        3.14152   0.00004   0.00000   0.00098   0.00099  -3.14067
    D4       -0.00002   0.00001   0.00000   0.00025   0.00025   0.00023
    D5       -0.00003  -0.00007   0.00000  -0.00190  -0.00189  -0.00193
    D6        3.14153   0.00001   0.00000   0.00034   0.00036  -3.14130
    D7       -3.14157  -0.00005   0.00000  -0.00154  -0.00153   3.14008
    D8       -0.00001   0.00002   0.00000   0.00071   0.00072   0.00071
    D9        0.00003   0.00001   0.00000   0.00032   0.00032   0.00036
   D10       -3.14154  -0.00004   0.00000  -0.00115  -0.00116   3.14049
   D11        3.14158   0.00004   0.00000   0.00106   0.00106  -3.14055
   D12        0.00001  -0.00002   0.00000  -0.00042  -0.00042  -0.00041
   D13       -0.00001  -0.00005   0.00000  -0.00141  -0.00140  -0.00141
   D14       -3.14144   0.00004   0.00000   0.00133   0.00133  -3.14011
   D15        3.14156   0.00000   0.00000   0.00007   0.00007  -3.14156
   D16        0.00013   0.00009   0.00000   0.00281   0.00280   0.00293
   D17       -0.00004   0.00003   0.00000   0.00086   0.00085   0.00081
   D18       -3.14151   0.00001   0.00000   0.00024   0.00024  -3.14127
   D19        3.14143  -0.00004   0.00000  -0.00132  -0.00135   3.14008
   D20       -0.00005  -0.00006   0.00000  -0.00194  -0.00196  -0.00201
   D21       -3.14124  -0.00008   0.00000  -0.00260  -0.00265   3.13929
   D22       -0.00113   0.00003   0.00000   0.00091   0.00091  -0.00022
   D23        0.00049  -0.00000   0.00000  -0.00018  -0.00020   0.00030
   D24        3.14060   0.00011   0.00000   0.00334   0.00336  -3.13922
   D25        0.00005   0.00003   0.00000   0.00082   0.00084   0.00089
   D26       -3.14151  -0.00005   0.00000  -0.00142  -0.00141   3.14027
   D27        3.14150   0.00006   0.00000   0.00164   0.00165  -3.14004
   D28       -0.00007  -0.00002   0.00000  -0.00061  -0.00060  -0.00067
   D29       -0.00041   0.00012   0.00000   0.00338   0.00333   0.00292
   D30        3.14139   0.00003   0.00000   0.00072   0.00068  -3.14112
   D31        3.14132   0.00009   0.00000   0.00262   0.00260  -3.13926
   D32       -0.00006  -0.00000   0.00000  -0.00003  -0.00005  -0.00011
   D33       -0.00077   0.00009   0.00000   0.00240   0.00237   0.00159
   D34        3.14133   0.00004   0.00000   0.00092   0.00090  -3.14096
   D35       -3.14089  -0.00004   0.00000  -0.00114  -0.00113   3.14117
   D36        0.00121  -0.00009   0.00000  -0.00262  -0.00260  -0.00139
   D37        0.00072  -0.00012   0.00000  -0.00354  -0.00357  -0.00285
   D38       -3.14144  -0.00007   0.00000  -0.00190  -0.00189   3.13985
   D39       -3.14107  -0.00003   0.00000  -0.00093  -0.00097   3.14114
   D40       -0.00005   0.00003   0.00000   0.00072   0.00071   0.00066
         Item               Value     Threshold  Converged?
 Maximum Force            0.047895     0.000450     NO 
 RMS     Force            0.008848     0.000300     NO 
 Maximum Displacement     0.110906     0.001800     NO 
 RMS     Displacement     0.025676     0.001200     NO 
 Predicted change in Energy=-6.990151D-03
 GradGradGradGradGradGradGradGradGradGradGradGradGradGradGradGradGradGrad

                          Input orientation:                          
 ---------------------------------------------------------------------
 Center     Atomic      Atomic             Coordinates (Angstroms)
 Number     Number       Type             X           Y           Z
 ---------------------------------------------------------------------
      1          6           0       -2.176103    0.698846   -0.000306
      2          6           0       -2.128358   -0.696615   -0.000385
      3          6           0       -0.905790   -1.405318    0.000247
      4          6           0        0.256319   -0.660763    0.001392
      5          6           0        0.231289    0.753682    0.000215
      6          6           0       -0.994660    1.441406   -0.001195
      7          7           0        1.583932   -1.070116    0.000641
      8          6           0        1.593542    1.157945    0.001497
      9          6           0        2.381509   -0.008367   -0.000547
     10          1           0        1.922622   -2.044838   -0.000789
     11          1           0        1.970623    2.172871    0.001532
     12          1           0        3.455182   -0.141114   -0.001856
     13          1           0       -3.059186   -1.253858   -0.000296
     14          1           0       -0.875994   -2.487058    0.001195
     15          1           0       -3.136192    1.203703    0.000059
     16          1           0       -1.021833    2.527041   -0.000866
 ---------------------------------------------------------------------
                    Distance matrix (angstroms):
                    1          2          3          4          5
     1  C    0.000000
     2  C    1.396277   0.000000
     3  C    2.457885   1.413129   0.000000
     4  C    2.786614   2.384948   1.380167   0.000000
     5  C    2.408017   2.769710   2.440129   1.414666   0.000000
     6  C    1.395423   2.420002   2.848111   2.446236   1.405673
     7  N    4.155369   3.731032   2.512185   1.389290   2.270656
     8  C    3.797500   4.158358   3.580081   2.257402   1.420973
     9  C    4.612156   4.562082   3.571808   2.223074   2.281264
    10  H    4.932276   4.269444   2.899811   2.166157   3.269911
    11  H    4.400919   5.003559   4.590990   3.311845   2.244857
    12  H    5.693585   5.611106   4.540517   3.240798   3.345766
    13  H    2.143102   1.084877   2.158715   3.368135   3.854535
    14  H    3.440969   2.184973   1.082151   2.148834   3.424686
    15  H    1.084735   2.151032   3.432445   3.871093   3.397417
    16  H    2.162091   3.408277   3.934071   3.434497   2.171433
                    6          7          8          9         10
     6  C    0.000000
     7  N    3.599567   0.000000
     8  C    2.603680   2.228082   0.000000
     9  C    3.674284   1.327947   1.407543   0.000000
    10  H    4.545815   1.031889   3.219645   2.087533   0.000000
    11  H    3.054169   3.265961   1.082712   2.219602   4.217983
    12  H    4.722866   2.089170   2.270081   1.081849   2.443953
    13  H    3.395102   4.646752   5.240675   5.581435   5.044211
    14  H    3.930257   2.838831   4.402801   4.093317   2.833340
    15  H    2.154684   5.239257   4.729956   5.649260   6.012039
    16  H    1.085974   4.441796   2.952053   4.243941   5.438004
                   11         12         13         14         15
    11  H    0.000000
    12  H    2.749265   0.000000
    13  H    6.086169   6.608721   0.000000
    14  H    5.460602   4.925703   2.507411   0.000000
    15  H    5.197965   6.727165   2.458767   4.327842   0.000000
    16  H    3.013343   5.211787   4.294880   5.016220   2.494340
                   16
    16  H    0.000000
 Stoichiometry    C8H7N
 Framework group  C1[X(C8H7N)]
 Deg. of freedom    42
 Full point group                 C1      NOp   1
 Largest Abelian subgroup         C1      NOp   1
 Largest concise Abelian subgroup C1      NOp   1
                         Standard orientation:                         
 ---------------------------------------------------------------------
 Center     Atomic      Atomic             Coordinates (Angstroms)
 Number     Number       Type             X           Y           Z
 ---------------------------------------------------------------------
      1          6           0       -2.191759    0.639051   -0.000034
      2          6           0       -2.107576   -0.754686   -0.000305
      3          6           0       -0.866910   -1.431209    0.000051
      4          6           0        0.275351   -0.656549    0.001121
      5          6           0        0.213379    0.756759    0.000135
      6          6           0       -1.030118    1.412222   -0.001001
      7          7           0        1.613205   -1.031080    0.000117
      8          6           0        1.564606    1.196472    0.001267
      9          6           0        2.382773    0.051143   -0.001049
     10          1           0        1.977243   -1.996621   -0.001492
     11          1           0        1.915044    2.220903    0.001380
     12          1           0        3.459547   -0.053510   -0.002536
     13          1           0       -3.023528   -1.336056   -0.000150
     14          1           0       -0.808865   -2.511802    0.000851
     15          1           0       -3.164709    1.118654    0.000541
     16          1           0       -1.085643    2.496776   -0.000524
 ---------------------------------------------------------------------
 Rotational constants (GHZ):           3.9151525           1.6357753           1.1537372
 Standard basis: 6-31+G(d) (6D, 7F)
 There are   185 symmetry adapted cartesian basis functions of A   symmetry.
 There are   185 symmetry adapted basis functions of A   symmetry.
   185 basis functions,   316 primitive gaussians,   185 cartesian basis functions
    31 alpha electrons       31 beta electrons
       nuclear repulsion energy       400.8841160056 Hartrees.
 NAtoms=   16 NActive=   16 NUniq=   16 SFac= 1.00D+00 NAtFMM=   60 NAOKFM=F Big=F
 Integral buffers will be    131072 words long.
 Regular integral format.
 Two-electron integral symmetry is turned on.
 One-electron integrals computed using PRISM.
 NBasis=   185 RedAO= T EigKep=  1.19D-06  NBF=   185
 NBsUse=   185 1.00D-06 EigRej= -1.00D+00 NBFU=   185
 Initial guess from the checkpoint file:  "FuncsM062X-V-3rd.chk"
 B after Tr=     0.000000   -0.000000    0.000000
         Rot=    0.999917    0.000002    0.000007   -0.012909 Ang=   1.48 deg.
 ExpMin= 4.38D-02 ExpMax= 4.17D+03 ExpMxC= 6.27D+02 IAcc=3 IRadAn=         5 AccDes= 0.00D+00
 Harris functional with IExCor= 1009 and IRadAn=       5 diagonalized for initial guess.
 HarFok:  IExCor= 1009 AccDes= 0.00D+00 IRadAn=         5 IDoV= 1 UseB2=F ITyADJ=14
 ICtDFT=  3500011 ScaDFX=  1.000000  1.000000  1.000000  1.000000
 FoFCou: FMM=F IPFlag=           0 FMFlag=      100000 FMFlg1=           0
         NFxFlg=           0 DoJE=T BraDBF=F KetDBF=T FulRan=T
         wScrn=  0.000000 ICntrl=       500 IOpCl=  0 I1Cent=   200000004 NGrid=           0
         NMat0=    1 NMatS0=      1 NMatT0=    0 NMatD0=    1 NMtDS0=    0 NMtDT0=    0
 Petite list used in FoFCou.
 Keep R1 ints in memory in canonical form, NReq=152074523.
 Requested convergence on RMS density matrix=1.00D-08 within 128 cycles.
 Requested convergence on MAX density matrix=1.00D-06.
 Requested convergence on             energy=1.00D-06.
 No special actions if energy rises.
 SCF Done:  E(RM062X) =  -363.665936731     A.U. after   14 cycles
            NFock= 14  Conv=0.61D-08     -V/T= 2.0088
 DoSCS=F DFT=T ScalE2(SS,OS)=  1.000000  1.000000
 ExpMin= 4.38D-02 ExpMax= 4.17D+03 ExpMxC= 6.27D+02 IAcc=3 IRadAn=         5 AccDes= 0.00D+00
 HarFok:  IExCor=  205 AccDes= 0.00D+00 IRadAn=         5 IDoV=-2 UseB2=F ITyADJ=14
 ICtDFT= 12500011 ScaDFX=  1.000000  1.000000  1.000000  1.000000
 Range of M.O.s used for correlation:    10   185
 NBasis=   185 NAE=    31 NBE=    31 NFC=     9 NFV=     0
 NROrb=    176 NOA=    22 NOB=    22 NVA=   154 NVB=   154

 **** Warning!!: The largest alpha MO coefficient is  0.19353350D+03

 Orbital symmetries:
       Occupied  (A) (A) (A) (A) (A) (A) (A) (A) (A) (A) (A) (A)
                 (A) (A) (A) (A) (A) (A) (A) (A) (A) (A) (A) (A)
                 (A) (A) (A) (A) (A) (A) (A)
       Virtual   (A) (A) (A) (A) (A) (A) (A) (A) (A) (A) (A) (A)
                 (A) (A) (A) (A) (A) (A) (A) (A) (A) (A) (A) (A)
                 (A) (A) (A) (A) (A) (A) (A) (A) (A) (A) (A) (A)
                 (A) (A) (A) (A) (A) (A) (A) (A) (A) (A) (A) (A)
                 (A) (A) (A) (A) (A) (A) (A) (A) (A) (A) (A) (A)
                 (A) (A) (A) (A) (A) (A) (A) (A) (A) (A) (A) (A)
                 (A) (A) (A) (A) (A) (A) (A) (A) (A) (A) (A) (A)
                 (A) (A) (A) (A) (A) (A) (A) (A) (A) (A) (A) (A)
                 (A) (A) (A) (A) (A) (A) (A) (A) (A) (A) (A) (A)
                 (A) (A) (A) (A) (A) (A) (A) (A) (A) (A) (A) (A)
                 (A) (A) (A) (A) (A) (A) (A) (A) (A) (A) (A) (A)
                 (A) (A) (A) (A) (A) (A) (A) (A) (A) (A) (A) (A)
                 (A) (A) (A) (A) (A) (A) (A) (A) (A) (A)
 Generating guess from densities on rwf.
 Convergence on wavefunction:    0.000001000000000
 Iteration     1 Dimension    12 NMult     0 NNew     12
 CISAX will form    12 AO SS matrices at one time.
 New state      1 was old state      2
 New state      2 was old state      1
 New state      4 was old state      6
 New state      6 was old state      4
 Iteration     2 Dimension    24 NMult    12 NNew     12
 New state      2 was old state      3
 New state      3 was old state      2
 New state      4 was old state      5
 New state      5 was old state      4
 Iteration     3 Dimension    36 NMult    24 NNew     12
 Iteration     4 Dimension    48 NMult    36 NNew     12
 Iteration     5 Dimension    60 NMult    48 NNew     12
 Iteration     6 Dimension    72 NMult    60 NNew     12
 Iteration     7 Dimension    84 NMult    72 NNew     12
 Iteration     8 Dimension    96 NMult    84 NNew     12
 Iteration     9 Dimension   108 NMult    96 NNew     12
 Iteration    10 Dimension   120 NMult   108 NNew     12
 Iteration    11 Dimension   128 NMult   120 NNew      8
 Iteration    12 Dimension   132 NMult   128 NNew      4
 ***********************************************************************
 Excited states from <AA,BB:AA,BB> singles matrix:
 ***********************************************************************
 
 Ground to excited state transition densities written to RWF  633
 Ground to excited state transition electric dipole moments (Au):
       state          X           Y           Z        Dip. S.      Osc.
         1        -0.8538      0.6137      0.0417      1.1075      0.1302
         2        -0.0577     -0.2161     -0.0000      0.0500      0.0063
         3        -0.3065      0.2192     -0.1158      0.1554      0.0183
         4         0.0008      0.0009     -0.0733      0.0054      0.0007
         5         0.0003     -0.0001      0.1538      0.0237      0.0033
         6         0.0046      0.0001     -0.0914      0.0084      0.0012
 Ground to excited state transition velocity dipole moments (Au):
       state          X           Y           Z        Dip. S.      Osc.
         1         0.1447     -0.1225     -0.0048      0.0360      0.1360
         2         0.0099      0.0448     -0.0000      0.0021      0.0074
         3         0.0520     -0.0438      0.0133      0.0048      0.0181
         4        -0.0002     -0.0002      0.0172      0.0003      0.0010
         5        -0.0001     -0.0001     -0.0302      0.0009      0.0030
         6        -0.0010     -0.0000      0.0242      0.0006      0.0018
 Ground to excited state transition magnetic dipole moments (Au):
       state          X           Y           Z
         1        -0.0580      0.0326      0.1677
         2         0.0005      0.0001      0.0790
         3         0.1610     -0.0886      0.0585
         4         0.2458     -0.3210      0.0002
         5         0.1854      0.2953     -0.0013
         6        -0.0324     -0.1541      0.0006
 Ground to excited state transition velocity quadrupole moments (Au):
       state          XX          YY          ZZ          XY          XZ          YZ
         1         0.2024     -0.1551      0.0190      0.0555     -0.0219     -0.0246
         2        -0.0473     -0.0497      0.0204      0.0259      0.0003      0.0004
         3         0.0730     -0.0558      0.0067      0.0198      0.0600      0.0696
         4         0.0009      0.0003     -0.0002     -0.0002      0.3187      0.2122
         5        -0.0000      0.0006     -0.0003     -0.0005     -0.2241      0.0714
         6         0.0006      0.0006     -0.0004     -0.0002      0.0717     -0.0820
 <0|del|b> * <b|rxdel|0> + <0|del|b> * <b|delr+rdel|0>
 Rotatory Strengths (R) in cgs (10**-40 erg-esu-cm/Gauss)
       state          XX          YY          ZZ    R(velocity)    E-M Angle
         1       -15.5286    -25.0543    -12.2937    -17.6255      112.67
         2        -0.0187      0.0136      0.0309      0.0086       90.00
         3        15.1429     25.0554     12.0300     17.4094       12.76
         4         0.2214     -0.1603     -0.0117      0.0165       90.00
         5         0.0378     -0.0000     -0.0248      0.0043       90.00
         6         0.0158      0.2307     -0.0850      0.0539       90.00
 1/2[<0|r|b>*<b|rxdel|0> + (<0|rxdel|b>*<b|r|0>)*]
 Rotatory Strengths (R) in cgs (10**-40 erg-esu-cm/Gauss)
       state          XX          YY          ZZ     R(length)
         1       -35.0114    -14.1503     -4.9402    -18.0340
         2         0.0193      0.0145      0.0005      0.0114
         3        34.9088     13.7433      4.7876     17.8132
         4        -0.1462      0.2048      0.0095      0.0227
         5        -0.0388      0.0166      0.1385      0.0388
         6         0.1064      0.0103      0.0402      0.0523
  1/2[<0|del|b>*<b|r|0> + (<0|r|b>*<b|del|0>)*] (Au)
       state          X           Y           Z        Dip. S.   Osc.(frdel)
         1        -0.1236     -0.0752     -0.0002      0.1989      0.1326
         2        -0.0006     -0.0097      0.0000      0.0103      0.0068
         3        -0.0159     -0.0096     -0.0015      0.0271      0.0181
         4        -0.0000     -0.0000     -0.0013      0.0013      0.0008
         5        -0.0000      0.0000     -0.0047      0.0047      0.0031
         6        -0.0000     -0.0000     -0.0022      0.0022      0.0015

 Excitation energies and oscillator strengths:
 
 Excited State   1:      Singlet-A      4.7988 eV  258.36 nm  f=0.1302  <S**2>=0.000
      30 -> 38         0.11512
      31 -> 32        -0.23668
      31 -> 33         0.64393
 
 Excited State   2:      Singlet-A      5.1319 eV  241.60 nm  f=0.0063  <S**2>=0.000
      30 -> 33         0.53225
      31 -> 38        -0.43099
 
 Excited State   3:      Singlet-A      4.8023 eV  258.18 nm  f=0.0183  <S**2>=0.000
      31 -> 32         0.65262
      31 -> 33         0.23372
 This state for optimization and/or second-order correction.
 Total Energy, E(TD-HF/TD-DFT) =  -363.489455127    
 Copying the excited state density for this state as the 1-particle RhoCI density.
 
 Excited State   4:      Singlet-A      5.5472 eV  223.51 nm  f=0.0007  <S**2>=0.000
      31 -> 34         0.66974
      31 -> 35        -0.14323
 
 Excited State   5:      Singlet-A      5.6133 eV  220.88 nm  f=0.0033  <S**2>=0.000
      31 -> 34         0.13352
      31 -> 35         0.65674
      31 -> 36         0.15553
 
 Excited State   6:      Singlet-A      5.8414 eV  212.25 nm  f=0.0012  <S**2>=0.000
      30 -> 32         0.67667
 SavETr:  write IOETrn=   770 NScale= 10 NData=  16 NLR=1 NState=    6 LETran=     118.
          IDoAtm=1111111111111111
          Differentiating once with respect to electric field.
                with respect to dipole field.
          Differentiating once with respect to nuclear coordinates.
 Keep R1 ints in memory in canonical form, NReq=152086915.
          There are     1 degrees of freedom in the 1st order CPHF.  IDoFFX=0 NUNeed=     1.
 LinEq1:  Iter=  0 NonCon=     1 RMS=1.04D-02 Max=1.65D-01 NDo=     1
 AX will form     1 AO Fock derivatives at one time.
 LinEq1:  Iter=  1 NonCon=     1 RMS=4.64D-03 Max=1.10D-01 NDo=     1
 LinEq1:  Iter=  2 NonCon=     1 RMS=2.69D-03 Max=7.27D-02 NDo=     1
 LinEq1:  Iter=  3 NonCon=     1 RMS=1.02D-03 Max=2.01D-02 NDo=     1
 LinEq1:  Iter=  4 NonCon=     1 RMS=5.93D-04 Max=1.48D-02 NDo=     1
 LinEq1:  Iter=  5 NonCon=     1 RMS=2.33D-04 Max=4.70D-03 NDo=     1
 LinEq1:  Iter=  6 NonCon=     1 RMS=1.52D-04 Max=4.23D-03 NDo=     1
 LinEq1:  Iter=  7 NonCon=     1 RMS=5.52D-05 Max=1.44D-03 NDo=     1
 LinEq1:  Iter=  8 NonCon=     1 RMS=1.67D-05 Max=3.42D-04 NDo=     1
 LinEq1:  Iter=  9 NonCon=     1 RMS=1.10D-05 Max=2.41D-04 NDo=     1
 LinEq1:  Iter= 10 NonCon=     1 RMS=3.34D-06 Max=5.55D-05 NDo=     1
 LinEq1:  Iter= 11 NonCon=     1 RMS=1.94D-06 Max=5.29D-05 NDo=     1
 LinEq1:  Iter= 12 NonCon=     1 RMS=7.44D-07 Max=1.73D-05 NDo=     1
 LinEq1:  Iter= 13 NonCon=     1 RMS=3.88D-07 Max=1.07D-05 NDo=     1
 LinEq1:  Iter= 14 NonCon=     1 RMS=1.95D-07 Max=3.88D-06 NDo=     1
 LinEq1:  Iter= 15 NonCon=     1 RMS=6.40D-08 Max=8.90D-07 NDo=     1
 LinEq1:  Iter= 16 NonCon=     1 RMS=2.24D-08 Max=4.60D-07 NDo=     1
 LinEq1:  Iter= 17 NonCon=     1 RMS=8.29D-09 Max=2.15D-07 NDo=     1
 LinEq1:  Iter= 18 NonCon=     1 RMS=3.47D-09 Max=3.76D-08 NDo=     1
 LinEq1:  Iter= 19 NonCon=     1 RMS=8.31D-10 Max=9.25D-09 NDo=     1
 LinEq1:  Iter= 20 NonCon=     1 RMS=1.57D-10 Max=1.73D-09 NDo=     1
 LinEq1:  Iter= 21 NonCon=     0 RMS=5.97D-11 Max=8.93D-10 NDo=     1
 Linear equations converged to 1.000D-10 1.000D-09 after    21 iterations.
 End of Minotr F.D. properties file   721 does not exist.
 End of Minotr F.D. properties file   722 does not exist.
 End of Minotr F.D. properties file   788 does not exist.
 Calling FoFJK, ICntrl=  10005127 FMM=F ISym2X=0 I1Cent= 0 IOpClX= 0 NMat=1 NMatS=1 NMatT=0.
 ***** Axes restored to original set *****
 -------------------------------------------------------------------
 Center     Atomic                   Forces (Hartrees/Bohr)
 Number     Number              X              Y              Z
 -------------------------------------------------------------------
      1        6           0.001210725   -0.001937432   -0.000595943
      2        6          -0.002339524    0.003327861    0.000130446
      3        6           0.005565114   -0.004076754    0.002883386
      4        6          -0.013276536   -0.004254426   -0.002457509
      5        6           0.013140774   -0.000336642    0.000990768
      6        6          -0.002811847    0.005133151    0.002646853
      7        7           0.007609653    0.012806295   -0.003399081
      8        6          -0.013727377    0.014922836   -0.001976567
      9        6           0.000772455   -0.020582575    0.002387699
     10        1           0.001570357   -0.003948554    0.001701708
     11        1           0.000933871   -0.000440100   -0.000125092
     12        1           0.001374340    0.000998146    0.000346608
     13        1           0.000341130   -0.001005919   -0.000088581
     14        1          -0.001220613   -0.000265796   -0.001303180
     15        1           0.000355618    0.000099046   -0.000302978
     16        1           0.000501859   -0.000439136   -0.000838538
 -------------------------------------------------------------------
 Cartesian Forces:  Max     0.020582575 RMS     0.005778440

 GradGradGradGradGradGradGradGradGradGradGradGradGradGradGradGradGradGrad
 Berny optimization.
 Using GEDIIS/GDIIS optimizer.
 FormGI is forming the generalized inverse of G from B-inverse, IUseBI=4.
 Internal  Forces:  Max     0.013107413 RMS     0.002367161
 Search for a local minimum.
 Step number   2 out of a maximum of   94
 All quantities printed in internal units (Hartrees-Bohrs-Radians)
 Mixed Optimization -- RFO/linear search
 Update second derivatives using D2CorX and points    1    2
 DE= -8.09D-03 DEPred=-6.99D-03 R= 1.16D+00
 TightC=F SS=  1.41D+00  RLast= 1.71D-01 DXNew= 5.0454D-01 5.1371D-01
 Trust test= 1.16D+00 RLast= 1.71D-01 DXMaxT set to 5.05D-01
 ITU=  1  0
 Use linear search instead of GDIIS.
     Eigenvalues ---    0.01855   0.01932   0.01988   0.02011   0.02072
     Eigenvalues ---    0.02113   0.02148   0.02158   0.02172   0.02210
     Eigenvalues ---    0.02234   0.02248   0.02343   0.15883   0.16000
     Eigenvalues ---    0.16000   0.16000   0.16000   0.16000   0.16228
     Eigenvalues ---    0.21767   0.22078   0.22506   0.24377   0.24926
     Eigenvalues ---    0.35648   0.35718   0.35759   0.35808   0.35942
     Eigenvalues ---    0.36458   0.36876   0.37172   0.41096   0.42933
     Eigenvalues ---    0.44205   0.45908   0.46955   0.47381   0.47685
     Eigenvalues ---    0.48071   0.50613
 RFO step:  Lambda=-1.88095980D-03 EMin= 1.85505983D-02
 Quartic linear search produced a step of  0.17832.
 Iteration  1 RMS(Cart)=  0.01862153 RMS(Int)=  0.00046463
 Iteration  2 RMS(Cart)=  0.00047044 RMS(Int)=  0.00025084
 Iteration  3 RMS(Cart)=  0.00000019 RMS(Int)=  0.00025084
 Variable       Old X    -DE/DX   Delta X   Delta X   Delta X     New X
                                 (Linear)    (Quad)   (Total)
    R1        2.63858   0.00051  -0.00301   0.00200  -0.00103   2.63755
    R2        2.63697   0.00069   0.00429   0.00024   0.00450   2.64147
    R3        2.04985  -0.00027   0.00101  -0.00124  -0.00024   2.04962
    R4        2.67043   0.00241   0.00978   0.00248   0.01226   2.68269
    R5        2.05012   0.00022   0.00107   0.00035   0.00142   2.05154
    R6        2.60814  -0.00192  -0.00456  -0.00329  -0.00782   2.60032
    R7        2.04497   0.00023  -0.00007   0.00079   0.00072   2.04569
    R8        2.67333   0.00439  -0.00129   0.01281   0.01163   2.68496
    R9        2.62538   0.00503   0.00430   0.00987   0.01440   2.63978
   R10        2.65634   0.00254   0.00154   0.00634   0.00787   2.66420
   R11        2.68525  -0.00611  -0.00413  -0.01552  -0.01980   2.66545
   R12        2.05219  -0.00045   0.00124  -0.00193  -0.00069   2.05150
   R13        2.50946  -0.00819  -0.01717  -0.01447  -0.03158   2.47788
   R14        1.94999   0.00424   0.00973   0.00744   0.01717   1.96715
   R15        2.65987   0.01311   0.01448   0.02547   0.03973   2.69960
   R16        2.04603  -0.00009   0.00211  -0.00103   0.00109   2.04712
   R17        2.04440   0.00124   0.00180   0.00335   0.00515   2.04955
    A1        2.09772   0.00190  -0.00294   0.01084   0.00790   2.10562
    A2        2.08911  -0.00069   0.00165  -0.00366  -0.00201   2.08709
    A3        2.09636  -0.00120   0.00129  -0.00718  -0.00589   2.09047
    A4        2.13034   0.00087   0.00270   0.00243   0.00514   2.13548
    A5        2.07602   0.00063  -0.00136   0.00657   0.00518   2.08121
    A6        2.07682  -0.00151  -0.00133  -0.00900  -0.01036   2.06646
    A7        2.04644  -0.00265  -0.00089  -0.01384  -0.01488   2.03156
    A8        2.12368   0.00007   0.00196  -0.00300  -0.00131   2.12237
    A9        2.11306   0.00258  -0.00107   0.01690   0.01553   2.12859
   A10        2.12291   0.00309  -0.00196   0.01674   0.01465   2.13756
   A11        2.27270   0.00052  -0.00112   0.00299   0.00157   2.27427
   A12        1.88758  -0.00362   0.00307  -0.01965  -0.01661   1.87097
   A13        2.09972  -0.00141   0.00481  -0.00803  -0.00307   2.09665
   A14        1.84158   0.00384  -0.00421   0.02047   0.01604   1.85762
   A15        2.34188  -0.00243  -0.00060  -0.01244  -0.01299   2.32889
   A16        2.06924  -0.00180  -0.00172  -0.00809  -0.01005   2.05919
   A17        2.10690   0.00140   0.00068   0.00782   0.00825   2.11515
   A18        2.10705   0.00040   0.00103   0.00035   0.00115   2.10820
   A19        1.91597   0.00240   0.00152   0.01029   0.01117   1.92714
   A20        2.20431  -0.00101   0.00251  -0.00553  -0.00381   2.20049
   A21        2.16290  -0.00138  -0.00403  -0.00463  -0.00948   2.15343
   A22        1.87648  -0.00304   0.00121  -0.01422  -0.01381   1.86266
   A23        2.21501   0.00257  -0.00039   0.01468   0.01413   2.22914
   A24        2.19170   0.00047  -0.00083  -0.00035  -0.00129   2.19041
   A25        1.90316   0.00042  -0.00160   0.00330   0.00137   1.90453
   A26        2.09205   0.00098  -0.00186   0.00848   0.00668   2.09873
   A27        2.28798  -0.00140   0.00347  -0.01176  -0.00823   2.27975
    D1        0.00133  -0.00017   0.00024  -0.00889  -0.00862  -0.00729
    D2       -3.14095   0.00004   0.00011   0.00123   0.00131  -3.13964
    D3       -3.14067  -0.00025   0.00018  -0.01252  -0.01234   3.13017
    D4        0.00023  -0.00004   0.00004  -0.00240  -0.00241  -0.00218
    D5       -0.00193   0.00044  -0.00034   0.02325   0.02298   0.02106
    D6       -3.14130  -0.00035   0.00006  -0.01755  -0.01762   3.12426
    D7        3.14008   0.00052  -0.00027   0.02690   0.02671  -3.11639
    D8        0.00071  -0.00027   0.00013  -0.01390  -0.01390  -0.01319
    D9        0.00036  -0.00028   0.00006  -0.01431  -0.01427  -0.01392
   D10        3.14049   0.00055  -0.00021   0.02606   0.02548  -3.11721
   D11       -3.14055  -0.00049   0.00019  -0.02444  -0.02413   3.11851
   D12       -0.00041   0.00034  -0.00007   0.01592   0.01563   0.01522
   D13       -0.00141   0.00045  -0.00025   0.02290   0.02260   0.02119
   D14       -3.14011  -0.00020   0.00024  -0.01411  -0.01425   3.12882
   D15       -3.14156  -0.00037   0.00001  -0.01719  -0.01729   3.12433
   D16        0.00293  -0.00103   0.00050  -0.05420  -0.05415  -0.05122
   D17        0.00081  -0.00018   0.00015  -0.00878  -0.00853  -0.00772
   D18       -3.14127  -0.00005   0.00004  -0.00254  -0.00230   3.13961
   D19        3.14008   0.00035  -0.00024   0.02098   0.02090  -3.12221
   D20       -0.00201   0.00048  -0.00035   0.02722   0.02713   0.02512
   D21        3.13929   0.00083  -0.00047   0.04433   0.04413  -3.09976
   D22       -0.00022  -0.00049   0.00016  -0.02647  -0.02633  -0.02655
   D23        0.00030   0.00023  -0.00004   0.01112   0.01155   0.01185
   D24       -3.13922  -0.00109   0.00060  -0.05968  -0.05891   3.08506
   D25        0.00089  -0.00028   0.00015  -0.01483  -0.01486  -0.01396
   D26        3.14027   0.00052  -0.00025   0.02598   0.02559  -3.11733
   D27       -3.14004  -0.00046   0.00029  -0.02323  -0.02310   3.12005
   D28       -0.00067   0.00034  -0.00011   0.01759   0.01735   0.01668
   D29        0.00292  -0.00100   0.00059  -0.05372  -0.05278  -0.04986
   D30       -3.14112  -0.00009   0.00012  -0.00507  -0.00462   3.13745
   D31       -3.13926  -0.00084   0.00046  -0.04620  -0.04535   3.09857
   D32       -0.00011   0.00007  -0.00001   0.00245   0.00281   0.00270
   D33        0.00159  -0.00088   0.00042  -0.04587  -0.04555  -0.04396
   D34       -3.14096  -0.00055   0.00016  -0.02672  -0.02648   3.11574
   D35        3.14117   0.00040  -0.00020   0.02289   0.02265  -3.11937
   D36       -0.00139   0.00073  -0.00046   0.04204   0.04172   0.04033
   D37       -0.00285   0.00118  -0.00064   0.06266   0.06180   0.05895
   D38        3.13985   0.00080  -0.00034   0.04060   0.04008  -3.10326
   D39        3.14114   0.00029  -0.00017   0.01480   0.01498  -3.12707
   D40        0.00066  -0.00010   0.00013  -0.00725  -0.00674  -0.00608
         Item               Value     Threshold  Converged?
 Maximum Force            0.013107     0.000450     NO 
 RMS     Force            0.002367     0.000300     NO 
 Maximum Displacement     0.081455     0.001800     NO 
 RMS     Displacement     0.018675     0.001200     NO 
 Predicted change in Energy=-1.203459D-03
 GradGradGradGradGradGradGradGradGradGradGradGradGradGradGradGradGradGrad

                          Input orientation:                          
 ---------------------------------------------------------------------
 Center     Atomic      Atomic             Coordinates (Angstroms)
 Number     Number       Type             X           Y           Z
 ---------------------------------------------------------------------
      1          6           0       -2.171681    0.699668    0.012610
      2          6           0       -2.127204   -0.695343    0.007331
      3          6           0       -0.904383   -1.416432   -0.000172
      4          6           0        0.248573   -0.665572   -0.019166
      5          6           0        0.234022    0.755109   -0.005443
      6          6           0       -0.992386    1.450052    0.019425
      7          7           0        1.587166   -1.064972   -0.017025
      8          6           0        1.582447    1.168230   -0.029360
      9          6           0        2.376723   -0.018483    0.011240
[...]
 ! D10   D(1,2,3,14)           180.0338         -DE/DX =    0.0                 !
 ! D11   D(13,2,3,4)           179.9084         -DE/DX =    0.0                 !
 ! D12   D(13,2,3,14)            0.0469         -DE/DX =    0.0                 !
 ! D13   D(2,3,4,5)              0.1182         -DE/DX =    0.0                 !
 ! D14   D(2,3,4,7)            179.9711         -DE/DX =    0.0                 !
 ! D15   D(14,3,4,5)          -180.0224         -DE/DX =    0.0                 !
 ! D16   D(14,3,4,7)            -0.1694         -DE/DX =    0.0                 !
 ! D17   D(3,4,5,6)             -0.0423         -DE/DX =    0.0                 !
 ! D18   D(3,4,5,8)            179.8644         -DE/DX =    0.0                 !
 ! D19   D(7,4,5,6)           -179.9228         -DE/DX =    0.0                 !
 ! D20   D(7,4,5,8)             -0.0161         -DE/DX =    0.0                 !
 ! D21   D(3,4,7,9)           -179.8458         -DE/DX =    0.0                 !
 ! D22   D(3,4,7,10)             0.1788         -DE/DX =    0.0                 !
 ! D23   D(5,4,7,9)              0.0276         -DE/DX =    0.0                 !
 ! D24   D(5,4,7,10)          -179.9478         -DE/DX =    0.0                 !
 ! D25   D(4,5,6,1)             -0.0531         -DE/DX =    0.0                 !
 ! D26   D(4,5,6,16)          -180.0214         -DE/DX =    0.0                 !
 ! D27   D(8,5,6,1)           -179.9308         -DE/DX =    0.0                 !
 ! D28   D(8,5,6,16)             0.1009         -DE/DX =    0.0                 !
 ! D29   D(4,5,8,9)              0.0005         -DE/DX =    0.0                 !
 ! D30   D(4,5,8,11)          -179.9529         -DE/DX =    0.0                 !
 ! D31   D(6,5,8,9)            179.8898         -DE/DX =    0.0                 !
 ! D32   D(6,5,8,11)            -0.0636         -DE/DX =    0.0                 !
 ! D33   D(4,7,9,8)             -0.0269         -DE/DX =    0.0                 !
 ! D34   D(4,7,9,12)          -179.8962         -DE/DX =    0.0                 !
 ! D35   D(10,7,9,8)           179.9482         -DE/DX =    0.0                 !
 ! D36   D(10,7,9,12)            0.0789         -DE/DX =    0.0                 !
 ! D37   D(5,8,9,7)              0.016          -DE/DX =    0.0                 !
 ! D38   D(5,8,9,12)           179.8704         -DE/DX =    0.0                 !
 ! D39   D(11,8,9,7)           179.9711         -DE/DX =    0.0                 !
 ! D40   D(11,8,9,12)           -0.1745         -DE/DX =    0.0                 !
 --------------------------------------------------------------------------------
 GradGradGradGradGradGradGradGradGradGradGradGradGradGradGradGradGradGrad

                          Input orientation:                          
 ---------------------------------------------------------------------
 Center     Atomic      Atomic             Coordinates (Angstroms)
 Number     Number       Type             X           Y           Z
 ---------------------------------------------------------------------
      1          6           0       -2.180570    0.685230   -0.000129
      2          6           0       -2.150698   -0.694757    0.000367
      3          6           0       -0.905814   -1.440987    0.001234
      4          6           0        0.243488   -0.656401   -0.000787
      5          6           0        0.246040    0.752194   -0.001089
      6          6           0       -0.991721    1.467695   -0.000158
      7          7           0        1.589739   -1.062579   -0.000064
      8          6           0        1.597305    1.160901   -0.000160
      9          6           0        2.421668   -0.012626    0.000701
     10          1           0        1.885172   -2.030860   -0.000483
     11          1           0        1.976341    2.174332    0.000614
     12          1           0        3.495538   -0.121486   -0.000317
     13          1           0       -3.083472   -1.250383    0.000323
     14          1           0       -0.886533   -2.524121    0.001079
     15          1           0       -3.141803    1.190446   -0.000573
     16          1           0       -1.017776    2.550847   -0.000020
 ---------------------------------------------------------------------
                    Distance matrix (angstroms):
                    1          2          3          4          5
     1  C    0.000000
     2  C    1.380311   0.000000
     3  C    2.479073   1.451411   0.000000
     4  C    2.770565   2.394493   1.391573   0.000000
     5  C    2.427534   2.799647   2.477260   1.408598   0.000000
     6  C    1.423241   2.453452   2.909951   2.457138   1.429684
     7  N    4.155727   3.758479   2.524080   1.406191   2.258081
     8  C    3.807704   4.182224   3.610461   2.266144   1.411722
     9  C    4.654847   4.622968   3.621098   2.271325   2.306146
    10  H    4.889520   4.251284   2.852640   2.141089   3.229883
    11  H    4.415579   5.026343   4.623564   3.319010   2.239736
    12  H    5.733149   5.675264   4.594887   3.295750   3.364901
    13  H    2.135844   1.085719   2.185983   3.379567   3.885352
    14  H    3.460414   2.223665   1.083306   2.182964   3.466550
    15  H    1.085915   2.129855   3.453127   3.856299   3.416072
    16  H    2.198321   3.437653   3.993403   3.446335   2.198268
                    6          7          8          9         10
     6  C    0.000000
     7  N    3.614723   0.000000
     8  C    2.607141   2.223492   0.000000
     9  C    3.720562   1.339592   1.434134   0.000000
    10  H    4.529504   1.012348   3.204716   2.088324   0.000000
    11  H    3.051021   3.259916   1.081994   2.231838   4.206180
    12  H    4.760357   2.125495   2.290808   1.079374   2.497797
    13  H    3.429777   4.676983   5.265355   5.642570   5.029569
    14  H    3.993202   2.875419   4.443967   4.153529   2.815255
    15  H    2.167884   5.240574   4.739201   5.692064   5.970535
    16  H    1.083465   4.456005   2.961520   4.289658   5.423941
                   11         12         13         14         15
    11  H    0.000000
    12  H    2.752951   0.000000
    13  H    6.109859   6.675161   0.000000
    14  H    5.501955   4.997520   2.539478   0.000000
    15  H    5.211855   6.765757   2.441526   4.345602   0.000000
    16  H    3.017698   5.245128   4.326251   5.076665   2.522337
                   16
    16  H    0.000000
 Stoichiometry    C8H7N
 Framework group  C1[X(C8H7N)]
 Deg. of freedom    42
 Full point group                 C1      NOp   1
 Largest Abelian subgroup         C1      NOp   1
 Largest concise Abelian subgroup C1      NOp   1
                         Standard orientation:                         
 ---------------------------------------------------------------------
 Center     Atomic      Atomic             Coordinates (Angstroms)
 Number     Number       Type             X           Y           Z
 ---------------------------------------------------------------------
      1          6           0       -2.193365    0.642920   -0.000032
      2          6           0       -2.138009   -0.736280    0.000142
      3          6           0       -0.879554   -1.459389    0.000870
      4          6           0        0.255060   -0.653708   -0.000934
      5          6           0        0.231594    0.754694   -0.000907
      6          6           0       -1.019172    1.447211    0.000156
      7          7           0        1.608584   -1.034950   -0.000269
      8          6           0        1.575080    1.188290    0.000155
      9          6           0        2.420978    0.030189    0.000765
     10          1           0        1.921852   -1.997609   -0.000906
     11          1           0        1.935332    2.208549    0.001177
     12          1           0        3.496676   -0.058816   -0.000248
     13          1           0       -3.060360   -1.309040   -0.000058
     14          1           0       -0.840270   -2.541982    0.000463
     15          1           0       -3.163766    1.130295   -0.000385
     16          1           0       -1.065229    2.529696    0.000546
 ---------------------------------------------------------------------
 Rotational constants (GHZ):           3.8581330           1.6131364           1.1375232

 **********************************************************************

            Population analysis using the CI Density.

 **********************************************************************

 Orbital symmetries:
       Occupied  (A) (A) (A) (A) (A) (A) (A) (A) (A) (A) (A) (A)
                 (A) (A) (A) (A) (A) (A) (A) (A) (A) (A) (A) (A)
                 (A) (A) (A) (A) (A) (A) (A)
       Virtual   (A) (A) (A) (A) (A) (A) (A) (A) (A) (A) (A) (A)
                 (A) (A) (A) (A) (A) (A) (A) (A) (A) (A) (A) (A)
                 (A) (A) (A) (A) (A) (A) (A) (A) (A) (A) (A) (A)
                 (A) (A) (A) (A) (A) (A) (A) (A) (A) (A) (A) (A)
                 (A) (A) (A) (A) (A) (A) (A) (A) (A) (A) (A) (A)
                 (A) (A) (A) (A) (A) (A) (A) (A) (A) (A) (A) (A)
                 (A) (A) (A) (A) (A) (A) (A) (A) (A) (A) (A) (A)
                 (A) (A) (A) (A) (A) (A) (A) (A) (A) (A) (A) (A)
                 (A) (A) (A) (A) (A) (A) (A) (A) (A) (A) (A) (A)
                 (A) (A) (A) (A) (A) (A) (A) (A) (A) (A) (A) (A)
                 (A) (A) (A) (A) (A) (A) (A) (A) (A) (A) (A) (A)
                 (A) (A) (A) (A) (A) (A) (A) (A) (A) (A) (A) (A)
                 (A) (A) (A) (A) (A) (A) (A) (A) (A) (A)
 The electronic state is 1-A.
 Alpha  occ. eigenvalues --  -14.81473 -10.59301 -10.58634 -10.56212 -10.55544
 Alpha  occ. eigenvalues --  -10.55215 -10.55029 -10.54708 -10.53915  -1.09841
 Alpha  occ. eigenvalues --   -0.94060  -0.87487  -0.83721  -0.80012  -0.71375
 Alpha  occ. eigenvalues --   -0.67927  -0.65802  -0.61799  -0.55678  -0.54461
 Alpha  occ. eigenvalues --   -0.50589  -0.49975  -0.49939  -0.46842  -0.45545
 Alpha  occ. eigenvalues --   -0.40864  -0.40521  -0.40133  -0.33246  -0.28470
 Alpha  occ. eigenvalues --   -0.24141
 Alpha virt. eigenvalues --    0.00099   0.00593   0.02567   0.03096   0.04271
 Alpha virt. eigenvalues --    0.04564   0.05146   0.06594   0.06663   0.06960
 Alpha virt. eigenvalues --    0.07322   0.07597   0.09834   0.10222   0.10841
 Alpha virt. eigenvalues --    0.10929   0.12510   0.13854   0.14605   0.15056
 Alpha virt. eigenvalues --    0.16040   0.16080   0.17315   0.17887   0.18718
 Alpha virt. eigenvalues --    0.19510   0.19700   0.20399   0.21034   0.21358
 Alpha virt. eigenvalues --    0.22427   0.22951   0.23051   0.23746   0.24778
 Alpha virt. eigenvalues --    0.25045   0.25082   0.25943   0.26651   0.27530
 Alpha virt. eigenvalues --    0.28624   0.29024   0.30501   0.31430   0.32507
 Alpha virt. eigenvalues --    0.33737   0.34300   0.35894   0.37657   0.38924
 Alpha virt. eigenvalues --    0.40643   0.42454   0.46761   0.49030   0.55395
 Alpha virt. eigenvalues --    0.62302   0.65420   0.70937   0.71795   0.74414
 Alpha virt. eigenvalues --    0.75763   0.76928   0.77154   0.77958   0.78185
 Alpha virt. eigenvalues --    0.80236   0.80840   0.82016   0.83291   0.83859
 Alpha virt. eigenvalues --    0.85341   0.89862   0.93260   0.94719   0.95865
 Alpha virt. eigenvalues --    0.99176   0.99840   1.00621   1.01483   1.03400
 Alpha virt. eigenvalues --    1.04443   1.07396   1.09427   1.11003   1.12642
 Alpha virt. eigenvalues --    1.14969   1.16418   1.20847   1.21089   1.24215
 Alpha virt. eigenvalues --    1.25717   1.28005   1.29433   1.35323   1.37300
 Alpha virt. eigenvalues --    1.39145   1.40173   1.43502   1.46027   1.47151
 Alpha virt. eigenvalues --    1.52461   1.52799   1.54749   1.55452   1.57409
 Alpha virt. eigenvalues --    1.61503   1.66491   1.82227   1.85780   1.92403
 Alpha virt. eigenvalues --    1.93575   1.94337   1.98585   2.03712   2.04595
 Alpha virt. eigenvalues --    2.04737   2.07556   2.10415   2.16164   2.19241
 Alpha virt. eigenvalues --    2.20086   2.23688   2.25275   2.27840   2.31151
 Alpha virt. eigenvalues --    2.31546   2.34087   2.39955   2.43475   2.48969
 Alpha virt. eigenvalues --    2.55339   2.58219   2.63495   2.66684   2.67768
 Alpha virt. eigenvalues --    2.69009   2.74883   2.81705   2.85235   2.86307
 Alpha virt. eigenvalues --    2.95886   2.99144   3.10357   3.24039   3.40643
 Alpha virt. eigenvalues --    4.17732   4.26694   4.30581   4.33835   4.38198
 Alpha virt. eigenvalues --    4.42630   4.49817   4.53970   4.79457
          Condensed to atoms (all electrons):
               1          2          3          4          5          6
     1  C    5.532443   0.485466   0.285897  -0.350199  -0.171587  -0.106534
     2  C    0.485466   5.804473  -0.389757   0.215164  -0.339658   0.560489
     3  C    0.285897  -0.389757  13.044258  -0.944381  -4.461716  -2.814141
     4  C   -0.350199   0.215164  -0.944381  12.252645  -3.911102  -1.740717
     5  C   -0.171587  -0.339658  -4.461716  -3.911102  15.128326   0.679201
     6  C   -0.106534   0.560489  -2.814141  -1.740717   0.679201  12.451608
     7  N   -0.023554   0.019302  -0.544482  -0.262902   0.871480   0.097251
     8  C    0.152797  -0.351450   3.055616   2.533536  -5.002672  -3.664664
     9  C   -0.089444   0.042957  -1.033375  -0.871968   1.744983   0.976684
    10  H   -0.003757  -0.002672  -0.133243  -0.067427   0.173531   0.022790
    11  H    0.002862   0.000573   0.005966   0.032742  -0.026509  -0.006192
    12  H    0.001043  -0.000135   0.023267   0.075692  -0.074288  -0.012945
    13  H    0.009484   0.291977  -0.028133   0.018145   0.005672   0.012367
    14  H    0.011310   0.042286   0.210075   0.040762   0.005746  -0.005755
    15  H    0.298300   0.002839   0.025390  -0.021340   0.041349  -0.042411
    16  H    0.015886   0.007220  -0.024700   0.036747   0.103977   0.201761
               7          8          9         10         11         12
     1  C   -0.023554   0.152797  -0.089444  -0.003757   0.002862   0.001043
     2  C    0.019302  -0.351450   0.042957  -0.002672   0.000573  -0.000135
     3  C   -0.544482   3.055616  -1.033375  -0.133243   0.005966   0.023267
     4  C   -0.262902   2.533536  -0.871968  -0.067427   0.032742   0.075692
     5  C    0.871480  -5.002672   1.744983   0.173531  -0.026509  -0.074288
     6  C    0.097251  -3.664664   0.976684   0.022790  -0.006192  -0.012945
     7  N    7.176672  -0.688564   0.557421   0.275525   0.007081  -0.047983
     8  C   -0.688564  11.326710  -1.756868  -0.022367   0.332783   0.030404
     9  C    0.557421  -1.756868   6.418153  -0.006889  -0.043486   0.325566
    10  H    0.275525  -0.022367  -0.006889   0.303821  -0.000062  -0.002167
    11  H    0.007081   0.332783  -0.043486  -0.000062   0.450877  -0.000428
    12  H   -0.047983   0.030404   0.325566  -0.002167  -0.000428   0.437688
    13  H   -0.000382  -0.000416   0.001268  -0.000002   0.000000  -0.000000
    14  H   -0.000933  -0.014254   0.013023   0.001680   0.000002   0.000002
    15  H    0.000257   0.006238  -0.000186  -0.000000  -0.000002  -0.000000
    16  H   -0.000779  -0.044156   0.004835   0.000003   0.001278  -0.000001
              13         14         15         16
     1  C    0.009484   0.011310   0.298300   0.015886
     2  C    0.291977   0.042286   0.002839   0.007220
     3  C   -0.028133   0.210075   0.025390  -0.024700
     4  C    0.018145   0.040762  -0.021340   0.036747
     5  C    0.005672   0.005746   0.041349   0.103977
     6  C    0.012367  -0.005755  -0.042411   0.201761
     7  N   -0.000382  -0.000933   0.000257  -0.000779
     8  C   -0.000416  -0.014254   0.006238  -0.044156
     9  C    0.001268   0.013023  -0.000186   0.004835
    10  H   -0.000002   0.001680  -0.000000   0.000003
    11  H    0.000000   0.000002  -0.000002   0.001278
    12  H   -0.000000   0.000002  -0.000000  -0.000001
    13  H    0.501346  -0.002930  -0.004260  -0.000125
    14  H   -0.002930   0.500532  -0.000117   0.000012
    15  H   -0.004260  -0.000117   0.502699  -0.002989
    16  H   -0.000125   0.000012  -0.002989   0.500149
 Mulliken charges:
               1
     1  C   -0.050413
     2  C   -0.389074
     3  C   -0.276541
     4  C   -1.035395
     5  C    1.233267
     6  C   -0.608792
     7  N   -0.435409
     8  C    0.107329
     9  C   -0.282674
    10  H    0.461235
    11  H    0.242515
    12  H    0.244287
    13  H    0.195991
    14  H    0.198559
    15  H    0.194233
    16  H    0.200883
 Sum of Mulliken charges =  -0.00000
 Mulliken charges with hydrogens summed into heavy atoms:
               1
     1  C    0.143820
     2  C   -0.193083
     3  C   -0.077982
     4  C   -1.035395
     5  C    1.233267
     6  C   -0.407909
     7  N    0.025826
     8  C    0.349844
     9  C   -0.038388
 Electronic spatial extent (au):  <R**2>=           1022.9186
 Charge=             -0.0000 electrons
 Dipole moment (field-independent basis, Debye):
    X=              4.4237    Y=             -1.4089    Z=             -0.0092  Tot=              4.6426
 Quadrupole moment (field-independent basis, Debye-Ang):
   XX=            -44.5112   YY=            -46.7496   ZZ=            -61.3045
   XY=             -2.3337   XZ=             -0.0127   YZ=              0.0121
 Traceless Quadrupole moment (field-independent basis, Debye-Ang):
   XX=              6.3439   YY=              4.1055   ZZ=            -10.4494
   XY=             -2.3337   XZ=             -0.0127   YZ=              0.0121
 Octapole moment (field-independent basis, Debye-Ang**2):
  XXX=             29.3153  YYY=             -9.7607  ZZZ=             -0.0614  XYY=             15.5779
  XXY=             -7.3302  XXZ=             -0.0425  XZZ=              5.1075  YZZ=             -1.5512
  YYZ=             -0.0338  XYZ=              0.0170
 Hexadecapole moment (field-independent basis, Debye-Ang**3):
 XXXX=           -843.7041 YYYY=           -401.3355 ZZZZ=            -89.6888 XXXY=            -18.2333
 XXXZ=             -0.1872 YYYX=            -14.9044 YYYZ=              0.0758 ZZZX=             -0.0771
 ZZZY=              0.0384 XXYY=           -198.8842 XXZZ=           -203.5114 YYZZ=           -107.1402
 XXYZ=              0.0357 YYXZ=             -0.0181 ZZXY=             -1.5819
 N-N= 3.981519379589D+02 E-N=-1.638090499220D+03  KE= 3.603445221154D+02
 Unable to Open any file for archive entry.
 1\1\GINC-EXP-1-26\FOpt\RM062X TD-FC\6-31+G(d)\C8H7N1\SCAPARAS\16-Jun-2
 021\0\\# td= (nstates=6, root=3) M062X/6-31+G* Opt density=current\\Fu
 ncsM062X-V-3rd\\0,1\C,-2.18057025,0.6852301696,-0.0001289386\C,-2.1506
 980119,-0.6947570822,0.0003666554\C,-0.9058141829,-1.4409867436,0.0012
 341576\C,0.2434879424,-0.6564009766,-0.0007865196\C,0.2460398205,0.752
 1943578,-0.0010888733\C,-0.9917213095,1.4676953307,-0.0001577218\N,1.5
 897390103,-1.062578596,-0.0000644209\C,1.5973053548,1.1609006828,-0.00
 01604961\C,2.4216677973,-0.0126263128,0.0007006579\H,1.8851720058,-2.0
 308597208,-0.0004833549\H,1.9763408707,2.1743318006,0.0006135131\H,3.4
 955383194,-0.1214857005,-0.0003172702\H,-3.0834716181,-1.2503827647,0.
 0003231875\H,-0.886533326,-2.5241210554,0.0010788662\H,-3.14180345,1.1
 904459719,-0.0005734932\H,-1.0177759729,2.5508466393,-0.0000199492\\Ve
 rsion=AS64L-G16RevC.01\State=1-A\HF=-363.6598366\RMSD=6.967e-09\RMSF=7
 .685e-05\Dipole=1.7404127,-0.5543005,-0.0036249\Quadrupole=4.7165056,3
 .0523379,-7.7688436,-1.7350313,-0.0094472,0.0089818\PG=C01 [X(C8H7N1)]
 \\@
 The archive entry for this job was punched.


 THOSE WHO TRY TO PASS CHEMISTRY OFF AS A NEW SCIENCE
 SHOW HOW LITTLE KNOWLEDGE THEY HAVE OF THE CHARACTER
 AND LITERATURE OF THE ANCIENTS.
   -- NICOLAS LEFEVRE
 "COURS DE CHYMIE" J.-N.LELOUP, PARIS, 1751
 Job cpu time:       0 days 10 hours 12 minutes  5.6 seconds.
 Elapsed time:       0 days  2 hours 44 minutes  5.8 seconds.
 File lengths (MBytes):  RWF=    238 Int=      0 D2E=      0 Chk=     11 Scr=      1
 Normal termination of Gaussian 16 at Wed Jun 16 09:52:05 2021.
