 Entering Gaussian System, Link 0=/opt/gaussian/16.C.01/g16/g16
 Initial command:
 /opt/gaussian/16.C.01/g16/l1.exe "/scratch/scaparas/38762239/Gau-30924.inp" -scrdir="/scratch/scaparas/38762239/"
 Entering Link 1 = /opt/gaussian/16.C.01/g16/l1.exe PID=     30926.
  
 Copyright (c) 1988-2019, Gaussian, Inc.  All Rights Reserved.
  
 This is part of the Gaussian(R) 16 program.  It is based on
 the Gaussian(R) 09 system (copyright 2009, Gaussian, Inc.),
 the Gaussian(R) 03 system (copyright 2003, Gaussian, Inc.),
 the Gaussian(R) 98 system (copyright 1998, Gaussian, Inc.),
 the Gaussian(R) 94 system (copyright 1995, Gaussian, Inc.),
 the Gaussian 92(TM) system (copyright 1992, Gaussian, Inc.),
 the Gaussian 90(TM) system (copyright 1990, Gaussian, Inc.),
 the Gaussian 88(TM) system (copyright 1988, Gaussian, Inc.),
 the Gaussian 86(TM) system (copyright 1986, Carnegie Mellon
 University), and the Gaussian 82(TM) system (copyright 1983,
 Carnegie Mellon University). Gaussian is a federally registered
 trademark of Gaussian, Inc.
  
 This software contains proprietary and confidential information,
 including trade secrets, belonging to Gaussian, Inc.
  
 This software is provided under written license and may be
 used, copied, transmitted, or stored only in accord with that
 written license.
  
 The following legend is applicable only to US Government
 contracts under FAR:
  
                    RESTRICTED RIGHTS LEGEND
  
 Use, reproduction and disclosure by the US Government is
 subject to restrictions as set forth in subparagraphs (a)
 and (c) of the Commercial Computer Software - Restricted
 Rights clause in FAR 52.227-19.
  
 Gaussian, Inc.
 340 Quinnipiac St., Bldg. 40, Wallingford CT 06492
  
  
 ---------------------------------------------------------------
 Warning -- This program may not be used in any manner that
 competes with the business of Gaussian, Inc. or will provide
 assistance to any competitor of Gaussian, Inc.  The licensee
 of this program is prohibited from giving any competitor of
 Gaussian, Inc. access to this program.  By using this program,
 the user acknowledges that Gaussian, Inc. is engaged in the
 business of creating and licensing software in the field of
 computational chemistry and represents and warrants to the
 licensee that it is not a competitor of Gaussian, Inc. and that
 it will not use this program in any manner prohibited above.
 ---------------------------------------------------------------
  

 Cite this work as:
 Gaussian 16, Revision C.01,
 M. J. Frisch, G. W. Trucks, H. B. Schlegel, G. E. Scuseria, 
 M. A. Robb, J. R. Cheeseman, G. Scalmani, V. Barone, 
 G. A. Petersson, H. Nakatsuji, X. Li, M. Caricato, A. V. Marenich, 
 J. Bloino, B. G. Janesko, R. Gomperts, B. Mennucci, H. P. Hratchian, 
 J. V. Ortiz, A. F. Izmaylov, J. L. Sonnenberg, D. Williams-Young, 
 F. Ding, F. Lipparini, F. Egidi, J. Goings, B. Peng, A. Petrone, 
 T. Henderson, D. Ranasinghe, V. G. Zakrzewski, J. Gao, N. Rega, 
 G. Zheng, W. Liang, M. Hada, M. Ehara, K. Toyota, R. Fukuda, 
 J. Hasegawa, M. Ishida, T. Nakajima, Y. Honda, O. Kitao, H. Nakai, 
 T. Vreven, K. Throssell, J. A. Montgomery, Jr., J. E. Peralta, 
 F. Ogliaro, M. J. Bearpark, J. J. Heyd, E. N. Brothers, K. N. Kudin, 
 V. N. Staroverov, T. A. Keith, R. Kobayashi, J. Normand, 
 K. Raghavachari, A. P. Rendell, J. C. Burant, S. S. Iyengar, 
 J. Tomasi, M. Cossi, J. M. Millam, M. Klene, C. Adamo, R. Cammi, 
 J. W. Ochterski, R. L. Martin, K. Morokuma, O. Farkas, 
 J. B. Foresman, and D. J. Fox, Gaussian, Inc., Wallingford CT, 2019.
 
 ******************************************
 Gaussian 16:  ES64L-G16RevC.01  3-Jul-2019
                 4-Mar-2021 
 ******************************************
 %NProcShared=2
 Will use up to    2 processors via shared memory.
 %Chk=FuncsN12SX.chk
 ------------------------------------------------------------
 # td= (nstates=6, root=1) N12SX/6-31G(d) Opt density=current
 ------------------------------------------------------------
 1/18=20,19=15,26=3,38=1/1,3;
 2/9=110,12=2,17=6,18=5,40=1/2;
 3/5=1,6=6,7=1,11=9,25=1,30=1,71=1,74=-69/1,2,3,8;
 4//1;
 5/5=2,38=5/2;
 8/6=1,10=2,107=1,108=6/1;
 9/8=1,15=2,41=6,42=1,70=2/14;
 10/5=4,28=1/2;
 6/7=2,8=2,9=2,10=2,22=-1/1;
 7/12=6,13=5,14=1/1,2,3,16;
 1/18=20,19=15,26=3/3(2);
 2/9=110/2;
 99//99;
 2/9=110/2;
 3/5=1,6=6,7=1,11=9,25=1,30=1,71=1,74=-69/1,2,3,8;
 4/5=5,16=3,69=1/1;
 5/5=2,38=5/2;
 8/6=1,10=2,107=1,108=6/1;
 9/8=1,15=2,41=6,42=1,49=4,70=2/14;
 10/5=4,28=1/2;
 7/12=6,13=5,14=1/1,2,3,16;
 1/18=20,19=15,26=3/3(-8);
 2/9=110/2;
 6/7=2,8=2,9=2,10=2,22=-1/1;
 99/9=10/99;
 ----------
 FuncsN12SX
 ----------
 Symbolic Z-matrix:
 Charge =  0 Multiplicity = 1
 C                    -2.15886   0.68918   0.02974 
 C                    -2.1332   -0.71621  -0.0157 
 C                    -0.93572  -1.41751  -0.00819 
 C                     0.2487   -0.67115   0.00319 
 C                     0.25025   0.7522   -0.00266 
 C                    -0.98322   1.4256   -0.0173 
 N                     1.5657   -1.08029   0.00974 
 C                     1.62609   1.16684  -0.00626 
 C                     2.39038   0.03059   0.00688 
 H                     1.87967  -2.03756   0.01447 
 H                     1.9972    2.18233  -0.0192 
 H                     3.46481  -0.08787   0.00753 
 H                    -3.075    -1.264    -0.03434 
 H                    -0.91687  -2.50699  -0.02386 
 H                    -3.12254   1.20382   0.09559 
 H                    -1.01374   2.5151   -0.04664 
 

 GradGradGradGradGradGradGradGradGradGradGradGradGradGradGradGradGradGrad
 Berny optimization.
 Initialization pass.
                           ----------------------------
                           !    Initial Parameters    !
                           ! (Angstroms and Degrees)  !
 --------------------------                            --------------------------
 ! Name  Definition              Value          Derivative Info.                !
 --------------------------------------------------------------------------------
 ! R1    R(1,2)                  1.4064         estimate D2E/DX2                !
 ! R2    R(1,6)                  1.388          estimate D2E/DX2                !
 ! R3    R(1,15)                 1.0945         estimate D2E/DX2                !
 ! R4    R(2,3)                  1.3877         estimate D2E/DX2                !
 ! R5    R(2,13)                 1.0897         estimate D2E/DX2                !
 ! R6    R(3,4)                  1.4            estimate D2E/DX2                !
 ! R7    R(3,14)                 1.0898         estimate D2E/DX2                !
 ! R8    R(4,5)                  1.4234         estimate D2E/DX2                !
 ! R9    R(4,7)                  1.3791         estimate D2E/DX2                !
 ! R10   R(5,6)                  1.4054         estimate D2E/DX2                !
 ! R11   R(5,8)                  1.437          estimate D2E/DX2                !
 ! R12   R(6,16)                 1.0903         estimate D2E/DX2                !
 ! R13   R(7,9)                  1.3835         estimate D2E/DX2                !
 ! R14   R(7,10)                 1.0075         estimate D2E/DX2                !
 ! R15   R(8,9)                  1.3694         estimate D2E/DX2                !
 ! R16   R(8,11)                 1.0813         estimate D2E/DX2                !
 ! R17   R(9,12)                 1.0809         estimate D2E/DX2                !
 ! A1    A(2,1,6)              120.9061         estimate D2E/DX2                !
 ! A2    A(2,1,15)             119.2028         estimate D2E/DX2                !
 ! A3    A(6,1,15)             119.8895         estimate D2E/DX2                !
 ! A4    A(1,2,3)              121.3707         estimate D2E/DX2                !
 ! A5    A(1,2,13)             119.153          estimate D2E/DX2                !
 ! A6    A(3,2,13)             119.4616         estimate D2E/DX2                !
 ! A7    A(2,3,4)              117.4292         estimate D2E/DX2                !
 ! A8    A(2,3,14)             121.3371         estimate D2E/DX2                !
 ! A9    A(4,3,14)             121.2289         estimate D2E/DX2                !
 ! A10   A(3,4,5)              122.2756         estimate D2E/DX2                !
 ! A11   A(3,4,7)              130.5258         estimate D2E/DX2                !
 ! A12   A(5,4,7)              107.1964         estimate D2E/DX2                !
 ! A13   A(4,5,6)              118.5703         estimate D2E/DX2                !
 ! A14   A(4,5,8)              106.8342         estimate D2E/DX2                !
 ! A15   A(6,5,8)              134.5914         estimate D2E/DX2                !
 ! A16   A(1,6,5)              119.2617         estimate D2E/DX2                !
 ! A17   A(1,6,16)             120.4875         estimate D2E/DX2                !
 ! A18   A(5,6,16)             120.2412         estimate D2E/DX2                !
 ! A19   A(4,7,9)              109.3301         estimate D2E/DX2                !
 ! A20   A(4,7,10)             125.4173         estimate D2E/DX2                !
 ! A21   A(9,7,10)             125.2525         estimate D2E/DX2                !
 ! A22   A(5,8,9)              107.1528         estimate D2E/DX2                !
 ! A23   A(5,8,11)             126.8451         estimate D2E/DX2                !
 ! A24   A(9,8,11)             126.002          estimate D2E/DX2                !
 ! A25   A(7,9,8)              109.4848         estimate D2E/DX2                !
 ! A26   A(7,9,12)             120.2971         estimate D2E/DX2                !
 ! A27   A(8,9,12)             130.2163         estimate D2E/DX2                !
 ! D1    D(6,1,2,3)              4.8678         estimate D2E/DX2                !
 ! D2    D(6,1,2,13)          -176.5353         estimate D2E/DX2                !
 ! D3    D(15,1,2,3)          -175.5899         estimate D2E/DX2                !
 ! D4    D(15,1,2,13)            3.0069         estimate D2E/DX2                !
 ! D5    D(2,1,6,5)             -5.0972         estimate D2E/DX2                !
 ! D6    D(2,1,6,16)           176.0299         estimate D2E/DX2                !
 ! D7    D(15,1,6,5)           175.3637         estimate D2E/DX2                !
 ! D8    D(15,1,6,16)           -3.5093         estimate D2E/DX2                !
 ! D9    D(1,2,3,4)             -1.9941         estimate D2E/DX2                !
 ! D10   D(1,2,3,14)           178.7955         estimate D2E/DX2                !
 ! D11   D(13,2,3,4)           179.4132         estimate D2E/DX2                !
 ! D12   D(13,2,3,14)            0.2029         estimate D2E/DX2                !
 ! D13   D(2,3,4,5)             -0.4651         estimate D2E/DX2                !
 ! D14   D(2,3,4,7)           -179.8522         estimate D2E/DX2                !
 ! D15   D(14,3,4,5)           178.7462         estimate D2E/DX2                !
 ! D16   D(14,3,4,7)            -0.641          estimate D2E/DX2                !
 ! D17   D(3,4,5,6)              0.1482         estimate D2E/DX2                !
 ! D18   D(3,4,5,8)           -179.2217         estimate D2E/DX2                !
 ! D19   D(7,4,5,6)            179.6606         estimate D2E/DX2                !
 ! D20   D(7,4,5,8)              0.2907         estimate D2E/DX2                !
 ! D21   D(3,4,7,9)            179.3989         estimate D2E/DX2                !
 ! D22   D(3,4,7,10)            -0.5167         estimate D2E/DX2                !
 ! D23   D(5,4,7,9)             -0.0587         estimate D2E/DX2                !
 ! D24   D(5,4,7,10)          -179.9743         estimate D2E/DX2                !
 ! D25   D(4,5,6,1)              2.618          estimate D2E/DX2                !
 ! D26   D(4,5,6,16)          -178.5062         estimate D2E/DX2                !
 ! D27   D(8,5,6,1)           -178.2289         estimate D2E/DX2                !
 ! D28   D(8,5,6,16)             0.6469         estimate D2E/DX2                !
 ! D29   D(4,5,8,9)             -0.4171         estimate D2E/DX2                !
 ! D30   D(4,5,8,11)           179.4533         estimate D2E/DX2                !
 ! D31   D(6,5,8,9)           -179.64           estimate D2E/DX2                !
 ! D32   D(6,5,8,11)             0.2304         estimate D2E/DX2                !
 ! D33   D(4,7,9,8)             -0.2113         estimate D2E/DX2                !
 ! D34   D(4,7,9,12)          -179.7792         estimate D2E/DX2                !
 ! D35   D(10,7,9,8)           179.7044         estimate D2E/DX2                !
 ! D36   D(10,7,9,12)            0.1366         estimate D2E/DX2                !
 ! D37   D(5,8,9,7)              0.3888         estimate D2E/DX2                !
 ! D38   D(5,8,9,12)           179.9002         estimate D2E/DX2                !
 ! D39   D(11,8,9,7)          -179.483          estimate D2E/DX2                !
 ! D40   D(11,8,9,12)            0.0284         estimate D2E/DX2                !
 --------------------------------------------------------------------------------
 Trust Radius=3.00D-01 FncErr=1.00D-07 GrdErr=1.00D-06 EigMax=2.50D+02 EigMin=1.00D-04
 Number of steps in this run=     94 maximum allowed number of steps=    100.
 GradGradGradGradGradGradGradGradGradGradGradGradGradGradGradGradGradGrad

                          Input orientation:                          
 ---------------------------------------------------------------------
 Center     Atomic      Atomic             Coordinates (Angstroms)
 Number     Number       Type             X           Y           Z
 ---------------------------------------------------------------------
      1          6           0       -2.158860    0.689180    0.029740
      2          6           0       -2.133200   -0.716210   -0.015700
      3          6           0       -0.935720   -1.417510   -0.008190
      4          6           0        0.248700   -0.671150    0.003190
      5          6           0        0.250250    0.752200   -0.002660
      6          6           0       -0.983220    1.425600   -0.017300
      7          7           0        1.565700   -1.080290    0.009740
      8          6           0        1.626090    1.166840   -0.006260
      9          6           0        2.390380    0.030590    0.006880
     10          1           0        1.879670   -2.037560    0.014470
     11          1           0        1.997200    2.182330   -0.019200
     12          1           0        3.464810   -0.087870    0.007530
     13          1           0       -3.075000   -1.264000   -0.034340
     14          1           0       -0.916870   -2.506990   -0.023860
     15          1           0       -3.122540    1.203820    0.095590
     16          1           0       -1.013740    2.515100   -0.046640
 ---------------------------------------------------------------------
                    Distance matrix (angstroms):
                    1          2          3          4          5
     1  C    0.000000
     2  C    1.406359   0.000000
     3  C    2.436320   1.387745   0.000000
     4  C    2.765420   2.382401   1.400012   0.000000
     5  C    2.410152   2.799506   2.472690   1.423363   0.000000
     6  C    1.388041   2.431009   2.843521   2.431955   1.405393
     7  N    4.123563   3.716862   2.524112   1.379104   2.255789
     8  C    3.815141   4.204548   3.638920   2.296846   1.436967
     9  C    4.596721   4.584866   3.627694   2.253718   2.258532
    10  H    4.872891   4.224926   2.882949   2.127737   3.230799
    11  H    4.416416   5.045964   4.643381   3.346655   2.257738
    12  H    5.677144   5.633211   4.597048   3.268577   3.322532
    13  H    2.158317   1.089683   2.144940   3.376368   3.888876
    14  H    3.429419   2.164814   1.089756   2.174763   3.461927
    15  H    1.094472   2.162798   3.415307   3.858667   3.404310
    16  H    2.156645   3.419870   3.933572   3.427598   2.169659
                    6          7          8          9         10
     6  C    0.000000
     7  N    3.574522   0.000000
     8  C    2.622132   2.247998   0.000000
     9  C    3.650728   1.383532   1.369444   0.000000
    10  H    4.493398   1.007455   3.214485   2.130288   0.000000
    11  H    3.074987   3.291158   1.081254   2.187523   4.221661
    12  H    4.698529   2.142784   2.226068   1.080941   2.512769
    13  H    3.407313   4.644544   5.292449   5.616764   5.014931
    14  H    3.933155   2.863522   4.468107   4.168712   2.835925
    15  H    2.153746   5.215757   4.749866   5.637076   5.961143
    16  H    1.090322   4.425327   2.964479   4.214699   5.394652
                   11         12         13         14         15
    11  H    0.000000
    12  H    2.703406   0.000000
    13  H    6.132262   6.644859   0.000000
    14  H    5.521010   5.005222   2.490514   0.000000
    15  H    5.213674   6.713375   2.471695   4.318490   0.000000
    16  H    3.029397   5.180328   4.304711   5.023076   2.487312
                   16
    16  H    0.000000
 Stoichiometry    C8H7N
 Framework group  C1[X(C8H7N)]
 Deg. of freedom    42
 Full point group                 C1      NOp   1
 Largest Abelian subgroup         C1      NOp   1
 Largest concise Abelian subgroup C1      NOp   1
                         Standard orientation:                         
 ---------------------------------------------------------------------
 Center     Atomic      Atomic             Coordinates (Angstroms)
 Number     Number       Type             X           Y           Z
 ---------------------------------------------------------------------
      1          6           0       -2.158858    0.689183    0.029741
      2          6           0       -2.133200   -0.716207   -0.015699
      3          6           0       -0.935722   -1.417509   -0.008189
      4          6           0        0.248700   -0.671151    0.003191
      5          6           0        0.250252    0.752199   -0.002659
      6          6           0       -0.983217    1.425601   -0.017299
      7          7           0        1.565699   -1.080293    0.009741
      8          6           0        1.626093    1.166837   -0.006259
      9          6           0        2.390381    0.030585    0.006881
     10          1           0        1.879667   -2.037564    0.014471
     11          1           0        1.997205    2.182326   -0.019199
     12          1           0        3.464811   -0.087877    0.007531
     13          1           0       -3.075001   -1.263995   -0.034339
     14          1           0       -0.916873   -2.506989   -0.023859
     15          1           0       -3.122537    1.203825    0.095591
     16          1           0       -1.013735    2.515101   -0.046639
 ---------------------------------------------------------------------
 Rotational constants (GHZ):           3.8861076           1.6317910           1.1494058
 Standard basis: 6-31G(d) (6D, 7F)
 There are   149 symmetry adapted cartesian basis functions of A   symmetry.
 There are   149 symmetry adapted basis functions of A   symmetry.
   149 basis functions,   280 primitive gaussians,   149 cartesian basis functions
    31 alpha electrons       31 beta electrons
       nuclear repulsion energy       400.0099183022 Hartrees.
 NAtoms=   16 NActive=   16 NUniq=   16 SFac= 1.00D+00 NAtFMM=   60 NAOKFM=F Big=F
 Integral buffers will be    131072 words long.
 Regular integral format.
 Two-electron integral symmetry is turned on.
 One-electron integrals computed using PRISM.
 NBasis=   149 RedAO= T EigKep=  4.13D-04  NBF=   149
 NBsUse=   149 1.00D-06 EigRej= -1.00D+00 NBFU=   149
 ExpMin= 1.61D-01 ExpMax= 4.17D+03 ExpMxC= 6.27D+02 IAcc=3 IRadAn=         5 AccDes= 0.00D+00
 Harris functional with IExCor= 5547 and IRadAn=       5 diagonalized for initial guess.
 HarFok:  IExCor= 5547 AccDes= 0.00D+00 IRadAn=         5 IDoV= 1 UseB2=F ITyADJ=14
 ICtDFT=  3500011 ScaDFX=  1.000000  1.000000  1.000000  1.000000
 FoFCou: FMM=F IPFlag=           0 FMFlag=      100000 FMFlg1=           0
         NFxFlg=           0 DoJE=T BraDBF=F KetDBF=T FulRan=T
         wScrn=  0.000000 ICntrl=       500 IOpCl=  0 I1Cent=   200000004 NGrid=           0
         NMat0=    1 NMatS0=      1 NMatT0=    0 NMatD0=    1 NMtDS0=    0 NMtDT0=    0
 Petite list used in FoFCou.
 Requested convergence on RMS density matrix=1.00D-08 within 128 cycles.
 Requested convergence on MAX density matrix=1.00D-06.
 Requested convergence on             energy=1.00D-06.
 No special actions if energy rises.
 Integral accuracy reduced to 1.0D-05 until final iterations.
 Initial convergence to 1.0D-05 achieved.  Increase integral accuracy.
 SCF Done:  E(RN12SX) =  -363.651854015     A.U. after   15 cycles
            NFock= 15  Conv=0.43D-08     -V/T= 2.0112
 DoSCS=F DFT=T ScalE2(SS,OS)=  1.000000  1.000000
 ExpMin= 1.61D-01 ExpMax= 4.17D+03 ExpMxC= 6.27D+02 IAcc=3 IRadAn=         5 AccDes= 0.00D+00
 HarFok:  IExCor=  205 AccDes= 0.00D+00 IRadAn=         5 IDoV=-2 UseB2=F ITyADJ=14
 ICtDFT= 12500011 ScaDFX=  1.000000  1.000000  1.000000  1.000000
 Range of M.O.s used for correlation:    10   149
 NBasis=   149 NAE=    31 NBE=    31 NFC=     9 NFV=     0
 NROrb=    140 NOA=    22 NOB=    22 NVA=   118 NVB=   118
 Orbital symmetries:
       Occupied  (A) (A) (A) (A) (A) (A) (A) (A) (A) (A) (A) (A)
                 (A) (A) (A) (A) (A) (A) (A) (A) (A) (A) (A) (A)
                 (A) (A) (A) (A) (A) (A) (A)
       Virtual   (A) (A) (A) (A) (A) (A) (A) (A) (A) (A) (A) (A)
                 (A) (A) (A) (A) (A) (A) (A) (A) (A) (A) (A) (A)
                 (A) (A) (A) (A) (A) (A) (A) (A) (A) (A) (A) (A)
                 (A) (A) (A) (A) (A) (A) (A) (A) (A) (A) (A) (A)
                 (A) (A) (A) (A) (A) (A) (A) (A) (A) (A) (A) (A)
                 (A) (A) (A) (A) (A) (A) (A) (A) (A) (A) (A) (A)
                 (A) (A) (A) (A) (A) (A) (A) (A) (A) (A) (A) (A)
                 (A) (A) (A) (A) (A) (A) (A) (A) (A) (A) (A) (A)
                 (A) (A) (A) (A) (A) (A) (A) (A) (A) (A) (A) (A)
                 (A) (A) (A) (A) (A) (A) (A) (A) (A) (A)
    24 initial guesses have been made.
 Convergence on wavefunction:    0.000001000000000
 Iteration     1 Dimension    24 NMult     0 NNew     24
 CISAX will form    24 AO SS matrices at one time.
 New state      1 was old state      2
 New state      2 was old state      1
 New state      3 was old state      5
 New state      4 was old state      7
 New state      5 was old state     10
 New state      6 was old state      9
 Iteration     2 Dimension    36 NMult    24 NNew     12
 New state      4 was old state      5
 New state      5 was old state      4
 New state      6 was old state      7
 Iteration     3 Dimension    48 NMult    36 NNew     12
 New state      5 was old state      6
 New state      6 was old state      5
 Iteration     4 Dimension    60 NMult    48 NNew     12
 Iteration     5 Dimension    72 NMult    60 NNew     12
 Iteration     6 Dimension    84 NMult    72 NNew     12
 Iteration     7 Dimension    96 NMult    84 NNew     12
 Iteration     8 Dimension   108 NMult    96 NNew     12
 Iteration     9 Dimension   120 NMult   108 NNew     12
 Iteration    10 Dimension   128 NMult   120 NNew      8
 Iteration    11 Dimension   132 NMult   128 NNew      4
 Iteration    12 Dimension   134 NMult   132 NNew      2
 ***********************************************************************
 Excited states from <AA,BB:AA,BB> singles matrix:
 ***********************************************************************
 
 Ground to excited state transition densities written to RWF  633
 Ground to excited state transition electric dipole moments (Au):
       state          X           Y           Z        Dip. S.      Osc.
         1        -0.4005      0.6364     -0.0136      0.5657      0.0686
         2        -0.5845      0.0041     -0.0059      0.3417      0.0424
         3        -1.3984     -0.5422     -0.0091      2.2496      0.3472
         4         1.5298      0.1086     -0.0106      2.3522      0.3811
         5         0.6457     -0.9296     -0.0086      1.2812      0.2158
         6         0.0754      0.0106      0.0233      0.0063      0.0011
 Ground to excited state transition velocity dipole moments (Au):
       state          X           Y           Z        Dip. S.      Osc.
         1         0.0662     -0.1263      0.0035      0.0204      0.0746
         2         0.1036     -0.0020      0.0013      0.0107      0.0385
         3         0.3201      0.1296      0.0023      0.1193      0.3435
         4        -0.3632     -0.0251      0.0050      0.1326      0.3636
         5        -0.1646      0.2370      0.0030      0.0833      0.2197
         6        -0.0187     -0.0023     -0.0196      0.0007      0.0019
 Ground to excited state transition magnetic dipole moments (Au):
       state          X           Y           Z
         1         0.0025      0.0049      0.0623
         2         0.0040     -0.0022     -0.0348
         3        -0.0010      0.0006     -0.4744
         4        -0.0043      0.0032      0.2486
         5         0.0027      0.0098      0.0124
         6         0.1854      0.0231      0.0313
 Ground to excited state transition velocity quadrupole moments (Au):
       state          XX          YY          ZZ          XY          XZ          YZ
         1         0.1612     -0.0857     -0.0085     -0.0265     -0.0088      0.0039
         2         0.1082     -0.1565      0.0062      0.0009      0.0006      0.0061
         3         0.1686     -0.0890     -0.0034     -0.3317     -0.0067     -0.0029
         4         0.2635     -0.0206      0.0344      0.0690     -0.0140      0.0060
         5         0.3283      0.0455      0.0229     -0.1830     -0.0118      0.0002
         6        -0.0004     -0.0022     -0.0002      0.0195     -0.0636      0.1205
 <0|del|b> * <b|rxdel|0> + <0|del|b> * <b|delr+rdel|0>
 Rotatory Strengths (R) in cgs (10**-40 erg-esu-cm/Gauss)
       state          XX          YY          ZZ    R(velocity)    E-M Angle
         1        -3.1308      1.4315      0.7766     -0.3076       91.52
         2        -0.0722      1.9166     -0.4126      0.4773       84.06
         3        -1.4218     -2.4155     -0.2672     -1.3682       90.47
         4         1.6736      0.3646      5.8498      2.6294       88.28
         5         6.4183      0.1645     -1.2374      1.7818       65.65
         6        -1.6511     -8.2393     -1.5552     -3.8152      143.35
 1/2[<0|r|b>*<b|rxdel|0> + (<0|rxdel|b>*<b|r|0>)*]
 Rotatory Strengths (R) in cgs (10**-40 erg-esu-cm/Gauss)
       state          XX          YY          ZZ     R(length)
         1         0.6949     -2.2059      0.6006     -0.3035
         2         1.6620      0.0064     -0.1457      0.5076
         3        -0.9704      0.2183     -3.0450     -1.2657
         4         4.6269     -0.2447      1.8569      2.0797
         5        -1.2329      6.4260      0.0754      1.7562
         6        -9.8877     -0.1727     -0.5165     -3.5256
  1/2[<0|del|b>*<b|r|0> + (<0|r|b>*<b|del|0>)*] (Au)
       state          X           Y           Z        Dip. S.   Osc.(frdel)
         1        -0.0265     -0.0804     -0.0000      0.1070      0.0713
         2        -0.0606     -0.0000     -0.0000      0.0606      0.0404
         3        -0.4477     -0.0702     -0.0000      0.5180      0.3453
         4        -0.5556     -0.0027     -0.0001      0.5584      0.3723
         5        -0.1063     -0.2203     -0.0000      0.3266      0.2177
         6        -0.0014     -0.0000     -0.0005      0.0019      0.0013

 Excitation energies and oscillator strengths:
 
 Excited State   1:      Singlet-A      4.9483 eV  250.56 nm  f=0.0686  <S**2>=0.000
      30 -> 32        -0.23523
      30 -> 33         0.16407
      31 -> 32         0.62786
 This state for optimization and/or second-order correction.
 Total Energy, E(TD-HF/TD-DFT) =  -363.470007199    
 Copying the excited state density for this state as the 1-particle RhoCI density.
 
 Excited State   2:      Singlet-A      5.0591 eV  245.07 nm  f=0.0424  <S**2>=0.000
      30 -> 32         0.52506
      31 -> 32         0.22978
      31 -> 33        -0.40239
 
 Excited State   3:      Singlet-A      6.2992 eV  196.83 nm  f=0.3472  <S**2>=0.000
      29 -> 32        -0.25178
      30 -> 32         0.31543
      30 -> 33         0.27052
      31 -> 33         0.48069
      31 -> 34        -0.13947
 
 Excited State   4:      Singlet-A      6.6136 eV  187.47 nm  f=0.3811  <S**2>=0.000
      29 -> 32        -0.37663
      29 -> 33        -0.10378
      30 -> 32        -0.22077
      30 -> 33         0.39565
      31 -> 33        -0.30247
      31 -> 34        -0.18681
 
 Excited State   5:      Singlet-A      6.8754 eV  180.33 nm  f=0.2158  <S**2>=0.000
      29 -> 32         0.34275
      29 -> 34        -0.11806
      30 -> 33         0.45592
      31 -> 32        -0.16940
      31 -> 34         0.34159
 
 Excited State   6:      Singlet-A      6.9376 eV  178.71 nm  f=0.0011  <S**2>=0.000
      31 -> 35         0.70130
 SavETr:  write IOETrn=   770 NScale= 10 NData=  16 NLR=1 NState=    6 LETran=     118.
          IDoAtm=1111111111111111
          Differentiating once with respect to electric field.
                with respect to dipole field.
          Differentiating once with respect to nuclear coordinates.
          There are     1 degrees of freedom in the 1st order CPHF.  IDoFFX=0 NUNeed=     1.
 LinEq1:  Iter=  0 NonCon=     1 RMS=1.22D-02 Max=3.32D-01 NDo=     1
 AX will form     1 AO Fock derivatives at one time.
 LinEq1:  Iter=  1 NonCon=     1 RMS=5.34D-03 Max=1.43D-01 NDo=     1
 LinEq1:  Iter=  2 NonCon=     1 RMS=4.65D-03 Max=1.12D-01 NDo=     1
 LinEq1:  Iter=  3 NonCon=     1 RMS=1.60D-03 Max=3.69D-02 NDo=     1
 LinEq1:  Iter=  4 NonCon=     1 RMS=1.39D-03 Max=4.56D-02 NDo=     1
 LinEq1:  Iter=  5 NonCon=     1 RMS=5.50D-04 Max=1.00D-02 NDo=     1
 LinEq1:  Iter=  6 NonCon=     1 RMS=3.41D-04 Max=6.16D-03 NDo=     1
 LinEq1:  Iter=  7 NonCon=     1 RMS=1.98D-04 Max=4.75D-03 NDo=     1
 LinEq1:  Iter=  8 NonCon=     1 RMS=1.22D-04 Max=1.88D-03 NDo=     1
 LinEq1:  Iter=  9 NonCon=     1 RMS=5.25D-05 Max=8.13D-04 NDo=     1
 LinEq1:  Iter= 10 NonCon=     1 RMS=2.22D-05 Max=4.84D-04 NDo=     1
 LinEq1:  Iter= 11 NonCon=     1 RMS=1.11D-05 Max=2.93D-04 NDo=     1
 LinEq1:  Iter= 12 NonCon=     1 RMS=5.13D-06 Max=6.73D-05 NDo=     1
 LinEq1:  Iter= 13 NonCon=     1 RMS=2.42D-06 Max=5.86D-05 NDo=     1
 LinEq1:  Iter= 14 NonCon=     1 RMS=1.23D-06 Max=2.03D-05 NDo=     1
 LinEq1:  Iter= 15 NonCon=     1 RMS=2.37D-07 Max=3.02D-06 NDo=     1
 LinEq1:  Iter= 16 NonCon=     1 RMS=6.20D-08 Max=7.92D-07 NDo=     1
 LinEq1:  Iter= 17 NonCon=     1 RMS=2.42D-08 Max=4.79D-07 NDo=     1
 LinEq1:  Iter= 18 NonCon=     1 RMS=1.37D-08 Max=3.35D-07 NDo=     1
 LinEq1:  Iter= 19 NonCon=     1 RMS=4.86D-09 Max=7.79D-08 NDo=     1
 LinEq1:  Iter= 20 NonCon=     1 RMS=8.58D-10 Max=1.08D-08 NDo=     1
 LinEq1:  Iter= 21 NonCon=     1 RMS=1.25D-10 Max=1.70D-09 NDo=     1
 LinEq1:  Iter= 22 NonCon=     0 RMS=1.99D-11 Max=2.11D-10 NDo=     1
 Linear equations converged to 1.000D-10 1.000D-09 after    22 iterations.
 End of Minotr F.D. properties file   721 does not exist.
 End of Minotr F.D. properties file   722 does not exist.
 End of Minotr F.D. properties file   788 does not exist.

 **********************************************************************

            Population analysis using the CI Density.

 **********************************************************************

 Orbital symmetries:
       Occupied  (A) (A) (A) (A) (A) (A) (A) (A) (A) (A) (A) (A)
                 (A) (A) (A) (A) (A) (A) (A) (A) (A) (A) (A) (A)
                 (A) (A) (A) (A) (A) (A) (A)
       Virtual   (A) (A) (A) (A) (A) (A) (A) (A) (A) (A) (A) (A)
                 (A) (A) (A) (A) (A) (A) (A) (A) (A) (A) (A) (A)
                 (A) (A) (A) (A) (A) (A) (A) (A) (A) (A) (A) (A)
                 (A) (A) (A) (A) (A) (A) (A) (A) (A) (A) (A) (A)
                 (A) (A) (A) (A) (A) (A) (A) (A) (A) (A) (A) (A)
                 (A) (A) (A) (A) (A) (A) (A) (A) (A) (A) (A) (A)
                 (A) (A) (A) (A) (A) (A) (A) (A) (A) (A) (A) (A)
                 (A) (A) (A) (A) (A) (A) (A) (A) (A) (A) (A) (A)
                 (A) (A) (A) (A) (A) (A) (A) (A) (A) (A) (A) (A)
                 (A) (A) (A) (A) (A) (A) (A) (A) (A) (A)
 The electronic state is 1-A.
 Alpha  occ. eigenvalues --  -14.42790 -10.26632 -10.26366 -10.23378 -10.22939
 Alpha  occ. eigenvalues --  -10.22863 -10.22835 -10.22405 -10.22096  -0.96971
 Alpha  occ. eigenvalues --   -0.82960  -0.77257  -0.72472  -0.70691  -0.61413
 Alpha  occ. eigenvalues --   -0.58445  -0.57035  -0.52897  -0.47136  -0.45983
 Alpha  occ. eigenvalues --   -0.42533  -0.41717  -0.40939  -0.39948  -0.37987
 Alpha  occ. eigenvalues --   -0.34347  -0.32279  -0.31953  -0.26420  -0.20763
 Alpha  occ. eigenvalues --   -0.19121
 Alpha virt. eigenvalues --   -0.00936   0.02814   0.07139   0.08310   0.10824
 Alpha virt. eigenvalues --    0.13832   0.14959   0.17083   0.18316   0.18602
 Alpha virt. eigenvalues --    0.19380   0.22643   0.25571   0.27414   0.30786
 Alpha virt. eigenvalues --    0.33958   0.35446   0.39333   0.43266   0.50880
 Alpha virt. eigenvalues --    0.52636   0.53467   0.53594   0.56766   0.56879
 Alpha virt. eigenvalues --    0.57811   0.59867   0.60105   0.61205   0.62482
 Alpha virt. eigenvalues --    0.62987   0.63256   0.63548   0.65400   0.66142
 Alpha virt. eigenvalues --    0.70549   0.72062   0.77951   0.81712   0.82128
 Alpha virt. eigenvalues --    0.82777   0.84602   0.85472   0.85614   0.86839
 Alpha virt. eigenvalues --    0.89663   0.91817   0.94869   0.97657   0.98736
 Alpha virt. eigenvalues --    0.99484   1.05864   1.07653   1.13502   1.14109
 Alpha virt. eigenvalues --    1.21086   1.24651   1.26302   1.30799   1.33546
 Alpha virt. eigenvalues --    1.34962   1.38428   1.42301   1.44343   1.46827
 Alpha virt. eigenvalues --    1.47587   1.49644   1.51704   1.52046   1.56383
 Alpha virt. eigenvalues --    1.61616   1.75912   1.81391   1.83373   1.89524
 Alpha virt. eigenvalues --    1.90320   1.91705   1.96004   1.96688   2.01069
 Alpha virt. eigenvalues --    2.01565   2.06284   2.10804   2.14157   2.15399
 Alpha virt. eigenvalues --    2.17897   2.23364   2.25712   2.26504   2.27359
 Alpha virt. eigenvalues --    2.29648   2.38933   2.39604   2.41752   2.49706
 Alpha virt. eigenvalues --    2.57277   2.59642   2.62967   2.67850   2.68150
 Alpha virt. eigenvalues --    2.73144   2.78262   2.80501   2.85052   2.91138
 Alpha virt. eigenvalues --    2.96942   3.09354   3.23685   3.44930   4.00499
 Alpha virt. eigenvalues --    4.12044   4.13156   4.17761   4.22673   4.34257
 Alpha virt. eigenvalues --    4.42093   4.47434   4.77761
          Condensed to atoms (all electrons):
               1          2          3          4          5          6
     1  C    4.939697   0.560775  -0.035425  -0.042239  -0.002419   0.436112
     2  C    0.560775   5.011648   0.403879   0.004221  -0.028789  -0.045788
     3  C   -0.035425   0.403879   5.242565   0.480640  -0.073612  -0.039882
     4  C   -0.042239   0.004221   0.480640   4.774252   0.494056  -0.046223
     5  C   -0.002419  -0.028789  -0.073612   0.494056   4.772736   0.446932
     6  C    0.436112  -0.045788  -0.039882  -0.046223   0.446932   5.273035
     7  N   -0.000200   0.006021  -0.090742   0.217425  -0.025537   0.010385
     8  C    0.008523  -0.000102   0.013126  -0.028812   0.420096  -0.101308
     9  C   -0.000384  -0.000207   0.005723  -0.114883  -0.041366   0.012894
    10  H   -0.000003  -0.000060  -0.003331  -0.023362   0.006011  -0.000116
    11  H   -0.000012   0.000004  -0.000127   0.006281  -0.027653  -0.004739
    12  H    0.000004   0.000001  -0.000111   0.005472   0.001674  -0.000158
    13  H   -0.037156   0.359734  -0.039817   0.002774   0.001138   0.004291
    14  H    0.004369  -0.037546   0.352576  -0.042287   0.004166   0.000608
    15  H    0.359074  -0.036548   0.004206   0.001056   0.002318  -0.039319
    16  H   -0.043436   0.004481   0.000610   0.004938  -0.041669   0.357847
               7          8          9         10         11         12
     1  C   -0.000200   0.008523  -0.000384  -0.000003  -0.000012   0.000004
     2  C    0.006021  -0.000102  -0.000207  -0.000060   0.000004   0.000001
     3  C   -0.090742   0.013126   0.005723  -0.003331  -0.000127  -0.000111
     4  C    0.217425  -0.028812  -0.114883  -0.023362   0.006281   0.005472
     5  C   -0.025537   0.420096  -0.041366   0.006011  -0.027653   0.001674
     6  C    0.010385  -0.101308   0.012894  -0.000116  -0.004739  -0.000158
     7  N    6.981399  -0.059919   0.331439   0.316002   0.003837  -0.045187
     8  C   -0.059919   5.180275   0.440190   0.004800   0.364282  -0.029355
     9  C    0.331439   0.440190   5.062114  -0.030908  -0.048943   0.370525
    10  H    0.316002   0.004800  -0.030908   0.371105  -0.000065  -0.001821
    11  H    0.003837   0.364282  -0.048943  -0.000065   0.521966  -0.000762
    12  H   -0.045187  -0.029355   0.370525  -0.001821  -0.000762   0.518425
    13  H   -0.000111   0.000010   0.000002  -0.000002  -0.000000  -0.000000
    14  H   -0.006214  -0.000302  -0.000011   0.002711   0.000002   0.000003
    15  H    0.000004  -0.000162   0.000004  -0.000000  -0.000002  -0.000000
    16  H   -0.000125  -0.006615  -0.000054   0.000004   0.002124  -0.000000
              13         14         15         16
     1  C   -0.037156   0.004369   0.359074  -0.043436
     2  C    0.359734  -0.037546  -0.036548   0.004481
     3  C   -0.039817   0.352576   0.004206   0.000610
     4  C    0.002774  -0.042287   0.001056   0.004938
     5  C    0.001138   0.004166   0.002318  -0.041669
     6  C    0.004291   0.000608  -0.039319   0.357847
     7  N   -0.000111  -0.006214   0.000004  -0.000125
     8  C    0.000010  -0.000302  -0.000162  -0.006615
     9  C    0.000002  -0.000011   0.000004  -0.000054
    10  H   -0.000002   0.002711  -0.000000   0.000004
    11  H   -0.000000   0.000002  -0.000002   0.002124
    12  H   -0.000000   0.000003  -0.000000  -0.000000
    13  H    0.586155  -0.005534  -0.005112  -0.000183
    14  H   -0.005534   0.598507  -0.000171   0.000018
    15  H   -0.005112  -0.000171   0.577455  -0.005167
    16  H   -0.000183   0.000018  -0.005167   0.592051
 Mulliken charges:
               1
     1  C   -0.147282
     2  C   -0.201724
     3  C   -0.220278
     4  C    0.306690
     5  C    0.091920
     6  C   -0.264571
     7  N   -0.638477
     8  C   -0.204729
     9  C    0.013865
    10  H    0.359035
    11  H    0.183808
    12  H    0.181289
    13  H    0.133811
    14  H    0.129104
    15  H    0.142363
    16  H    0.135176
 Sum of Mulliken charges =  -0.00000
 Mulliken charges with hydrogens summed into heavy atoms:
               1
     1  C   -0.004919
     2  C   -0.067913
     3  C   -0.091174
     4  C    0.306690
     5  C    0.091920
     6  C   -0.129394
     7  N   -0.279443
     8  C   -0.020920
     9  C    0.195153
 Electronic spatial extent (au):  <R**2>=           1006.8377
 Charge=             -0.0000 electrons
 Dipole moment (field-independent basis, Debye):
    X=              3.5554    Y=             -1.2204    Z=              0.0230  Tot=              3.7591
 Quadrupole moment (field-independent basis, Debye-Ang):
   XX=            -43.4690   YY=            -42.9713   ZZ=            -56.4233
   XY=             -3.3242   XZ=             -0.0928   YZ=              0.0032
 Traceless Quadrupole moment (field-independent basis, Debye-Ang):
   XX=              4.1522   YY=              4.6499   ZZ=             -8.8021
   XY=             -3.3242   XZ=             -0.0928   YZ=              0.0032
 Octapole moment (field-independent basis, Debye-Ang**2):
  XXX=             22.1460  YYY=             -9.5689  ZZZ=              0.0730  XYY=             13.8334
  XXY=             -5.7110  XXZ=              0.4375  XZZ=              3.6504  YZZ=             -1.3024
  YYZ=             -0.1931  XYZ=             -0.4683
 Hexadecapole moment (field-independent basis, Debye-Ang**3):
 XXXX=           -793.9323 YYYY=           -357.0583 ZZZZ=            -57.9479 XXXY=            -22.5531
 XXXZ=             -1.1861 YYYX=            -18.5019 YYYZ=             -0.4627 ZZZX=             -0.0839
 ZZZY=             -0.0141 XXYY=           -182.6253 XXZZ=           -176.5477 YYZZ=            -86.3206
 XXYZ=              0.7452 YYXZ=              0.1139 ZZXY=             -3.1771
 N-N= 4.000099183022D+02 E-N=-1.642870376741D+03  KE= 3.598142839993D+02
 Calling FoFJK, ICntrl=  10005127 FMM=F ISym2X=0 I1Cent= 0 IOpClX= 0 NMat=1 NMatS=1 NMatT=0.
 ***** Axes restored to original set *****
 -------------------------------------------------------------------
 Center     Atomic                   Forces (Hartrees/Bohr)
 Number     Number              X              Y              Z
 -------------------------------------------------------------------
      1        6          -0.025126001   -0.032455033   -0.002363084
      2        6          -0.044979349    0.034660287    0.003355581
      3        6           0.040014550   -0.028395417   -0.002276718
      4        6          -0.014258421    0.010262302    0.000064853
      5        6           0.009027583   -0.014998851   -0.001637805
      6        6           0.013009264    0.032643852    0.002257931
      7        7           0.004430851    0.022736796    0.000291860
      8        6          -0.027951063    0.014733135   -0.000025258
      9        6           0.037485242   -0.038134347   -0.000033551
     10        1          -0.000498679    0.002508548   -0.000134375
     11        1          -0.000548513   -0.003148420    0.000291910
     12        1          -0.004273623    0.000415646    0.000012079
     13        1           0.005095028    0.003166681    0.001515816
     14        1           0.000247129    0.005788790    0.000396790
     15        1           0.007801762   -0.003841139   -0.002579687
     16        1           0.000524241   -0.005942831    0.000863660
 -------------------------------------------------------------------
 Cartesian Forces:  Max     0.044979349 RMS     0.016966047

 GradGradGradGradGradGradGradGradGradGradGradGradGradGradGradGradGradGrad
 Berny optimization.
 FormGI is forming the generalized inverse of G from B-inverse, IUseBI=4.
 Internal  Forces:  Max     0.040925507 RMS     0.007897256
 Search for a local minimum.
 Step number   1 out of a maximum of   94
 All quantities printed in internal units (Hartrees-Bohrs-Radians)
 Mixed Optimization -- RFO/linear search
 Second derivative matrix not updated -- first step.
 ITU=  0
     Eigenvalues ---    0.01796   0.01876   0.01936   0.01957   0.02014
     Eigenvalues ---    0.02077   0.02091   0.02104   0.02135   0.02150
     Eigenvalues ---    0.02171   0.02192   0.02277   0.15995   0.15997
     Eigenvalues ---    0.15999   0.15999   0.16000   0.16000   0.16000
     Eigenvalues ---    0.21967   0.22184   0.22640   0.24007   0.24641
     Eigenvalues ---    0.34301   0.34775   0.34841   0.34849   0.35843
     Eigenvalues ---    0.35881   0.36568   0.37979   0.41971   0.43107
     Eigenvalues ---    0.45016   0.46141   0.46401   0.46720   0.46776
     Eigenvalues ---    0.47290   0.50149
 RFO step:  Lambda=-1.31909554D-02 EMin= 1.79641872D-02
 Linear search not attempted -- first point.
 Iteration  1 RMS(Cart)=  0.02649962 RMS(Int)=  0.00043622
 Iteration  2 RMS(Cart)=  0.00049785 RMS(Int)=  0.00019915
 Iteration  3 RMS(Cart)=  0.00000015 RMS(Int)=  0.00019915
 Variable       Old X    -DE/DX   Delta X   Delta X   Delta X     New X
                                 (Linear)    (Quad)   (Total)
    R1        2.65763  -0.01841   0.00000  -0.03790  -0.03795   2.61968
    R2        2.62302   0.02749   0.00000   0.05729   0.05726   2.68028
    R3        2.06825  -0.00883   0.00000  -0.02479  -0.02479   2.04346
    R4        2.62246   0.04093   0.00000   0.08446   0.08445   2.70691
    R5        2.05920  -0.00602   0.00000  -0.01665  -0.01665   2.04255
    R6        2.64564  -0.00201   0.00000  -0.00548  -0.00545   2.64019
    R7        2.05934  -0.00579   0.00000  -0.01601  -0.01601   2.04333
    R8        2.68977  -0.01041   0.00000  -0.02979  -0.03000   2.65977
    R9        2.60613   0.00813   0.00000   0.01358   0.01378   2.61990
   R10        2.65581   0.01089   0.00000   0.02265   0.02266   2.67846
   R11        2.71547  -0.00199   0.00000  -0.00385  -0.00419   2.71129
   R12        2.06041  -0.00598   0.00000  -0.01656  -0.01656   2.04385
   R13        2.61450  -0.01440   0.00000  -0.02759  -0.02722   2.58728
   R14        1.90381  -0.00254   0.00000  -0.00532  -0.00532   1.89849
   R15        2.58787   0.02842   0.00000   0.05747   0.05751   2.64538
   R16        2.04327  -0.00315   0.00000  -0.00847  -0.00847   2.03480
   R17        2.04268  -0.00429   0.00000  -0.01154  -0.01154   2.03114
    A1        2.11021   0.00247   0.00000   0.01694   0.01658   2.12679
    A2        2.08048  -0.00094   0.00000  -0.00670  -0.00660   2.07389
    A3        2.09247  -0.00153   0.00000  -0.01012  -0.01001   2.08246
    A4        2.11832  -0.00430   0.00000  -0.01249  -0.01283   2.10549
    A5        2.07961   0.00194   0.00000   0.00517   0.00529   2.08490
    A6        2.08500   0.00237   0.00000   0.00764   0.00776   2.09276
    A7        2.04953  -0.00208   0.00000  -0.00966  -0.00991   2.03961
    A8        2.11773   0.00140   0.00000   0.00698   0.00705   2.12478
    A9        2.11584   0.00069   0.00000   0.00287   0.00295   2.11879
   A10        2.13411   0.00536   0.00000   0.01971   0.01959   2.15371
   A11        2.27810  -0.00473   0.00000  -0.00909  -0.00896   2.26914
   A12        1.87093  -0.00062   0.00000  -0.01057  -0.01059   1.86033
   A13        2.06944   0.00294   0.00000   0.00779   0.00790   2.07734
   A14        1.86461  -0.00172   0.00000  -0.00897  -0.00949   1.85512
   A15        2.34906  -0.00122   0.00000   0.00125   0.00164   2.35070
   A16        2.08151  -0.00426   0.00000  -0.01824  -0.01858   2.06293
   A17        2.10290   0.00249   0.00000   0.01131   0.01138   2.11428
   A18        2.09860   0.00179   0.00000   0.00730   0.00736   2.10597
   A19        1.90817   0.01312   0.00000   0.05190   0.05236   1.96053
   A20        2.18895  -0.00626   0.00000  -0.02425  -0.02448   2.16446
   A21        2.18607  -0.00685   0.00000  -0.02764  -0.02787   2.15819
   A22        1.87017   0.00665   0.00000   0.03510   0.03480   1.90497
   A23        2.21386  -0.00275   0.00000  -0.01422  -0.01406   2.19980
   A24        2.19915  -0.00391   0.00000  -0.02089  -0.02074   2.17841
   A25        1.91087  -0.01743   0.00000  -0.06740  -0.06704   1.84383
   A26        2.09958   0.00866   0.00000   0.03340   0.03322   2.13280
   A27        2.27270   0.00877   0.00000   0.03404   0.03385   2.30656
    D1        0.08496  -0.00205   0.00000  -0.05738  -0.05740   0.02756
    D2       -3.08112  -0.00149   0.00000  -0.04181  -0.04191  -3.12303
    D3       -3.06462  -0.00145   0.00000  -0.03887  -0.03868  -3.10330
    D4        0.05248  -0.00089   0.00000  -0.02330  -0.02319   0.02929
    D5       -0.08896   0.00168   0.00000   0.05226   0.05253  -0.03643
    D6        3.07230   0.00090   0.00000   0.03038   0.03076   3.10306
    D7        3.06067   0.00107   0.00000   0.03361   0.03371   3.09439
    D8       -0.06125   0.00029   0.00000   0.01173   0.01193  -0.04931
    D9       -0.03480   0.00094   0.00000   0.02884   0.02873  -0.00607
   D10        3.12057   0.00037   0.00000   0.01336   0.01336   3.13393
   D11        3.13135   0.00038   0.00000   0.01326   0.01321  -3.13862
   D12        0.00354  -0.00018   0.00000  -0.00223  -0.00216   0.00138
   D13       -0.00812  -0.00007   0.00000   0.00236   0.00253  -0.00559
   D14       -3.13901  -0.00036   0.00000  -0.00595  -0.00575   3.13842
   D15        3.11971   0.00050   0.00000   0.01786   0.01788   3.13759
   D16       -0.01119   0.00022   0.00000   0.00956   0.00960  -0.00159
   D17        0.00259  -0.00028   0.00000  -0.00655  -0.00640  -0.00382
   D18       -3.12801  -0.00044   0.00000  -0.01160  -0.01144  -3.13945
   D19        3.13567  -0.00008   0.00000   0.00002   0.00018   3.13585
   D20        0.00507  -0.00025   0.00000  -0.00503  -0.00486   0.00021
   D21        3.13110   0.00038   0.00000   0.00790   0.00758   3.13868
   D22       -0.00902   0.00034   0.00000   0.00825   0.00805  -0.00096
   D23       -0.00102   0.00009   0.00000   0.00040   0.00022  -0.00081
   D24       -3.14114   0.00005   0.00000   0.00075   0.00069  -3.14045
   D25        0.04569  -0.00096   0.00000  -0.02198  -0.02153   0.02416
   D26       -3.11552  -0.00017   0.00000  -0.00011   0.00018  -3.11534
   D27       -3.11068  -0.00072   0.00000  -0.01524  -0.01480  -3.12548
   D28        0.01129   0.00007   0.00000   0.00663   0.00692   0.01821
   D29       -0.00728   0.00032   0.00000   0.00771   0.00770   0.00042
   D30        3.13205   0.00022   0.00000   0.00615   0.00618   3.13823
   D31       -3.13531   0.00007   0.00000   0.00143   0.00147  -3.13384
   D32        0.00402  -0.00002   0.00000  -0.00013  -0.00005   0.00397
   D33       -0.00369   0.00017   0.00000   0.00483   0.00474   0.00106
   D34       -3.13774  -0.00005   0.00000  -0.00069  -0.00062  -3.13836
   D35        3.13643   0.00021   0.00000   0.00449   0.00428   3.14071
   D36        0.00238  -0.00001   0.00000  -0.00104  -0.00108   0.00130
   D37        0.00679  -0.00031   0.00000  -0.00782  -0.00767  -0.00088
   D38        3.13985  -0.00009   0.00000  -0.00166  -0.00163   3.13822
   D39       -3.13257  -0.00022   0.00000  -0.00630  -0.00618  -3.13875
   D40        0.00050   0.00000   0.00000  -0.00013  -0.00014   0.00035
         Item               Value     Threshold  Converged?
 Maximum Force            0.040926     0.000450     NO 
 RMS     Force            0.007897     0.000300     NO 
 Maximum Displacement     0.086849     0.001800     NO 
 RMS     Displacement     0.026468     0.001200     NO 
 Predicted change in Energy=-6.917618D-03
 GradGradGradGradGradGradGradGradGradGradGradGradGradGradGradGradGradGrad

                          Input orientation:                          
 ---------------------------------------------------------------------
 Center     Atomic      Atomic             Coordinates (Angstroms)
 Number     Number       Type             X           Y           Z
 ---------------------------------------------------------------------
      1          6           0       -2.184429    0.677244    0.011327
      2          6           0       -2.165392   -0.708820   -0.003579
      3          6           0       -0.922994   -1.421773   -0.006785
      4          6           0        0.244883   -0.654957   -0.001844
      5          6           0        0.247579    0.752529   -0.000616
      6          6           0       -0.990463    1.442565   -0.009285
      7          7           0        1.572806   -1.053333    0.000112
      8          6           0        1.625494    1.152347    0.001827
      9          6           0        2.434969    0.010241    0.001510
     10          1           0        1.871819   -2.012441   -0.001151
     11          1           0        1.991277    2.165084    0.000336
     12          1           0        3.502176   -0.117557    0.000158
     13          1           0       -3.099145   -1.253238   -0.004369
     14          1           0       -0.887308   -2.502459   -0.011282
     15          1           0       -3.138300    1.185168    0.049631
     16          1           0       -1.019321    2.523480   -0.032999
 ---------------------------------------------------------------------
                    Distance matrix (angstroms):
                    1          2          3          4          5
     1  C    0.000000
     2  C    1.386274   0.000000
     3  C    2.448963   1.432434   0.000000
     4  C    2.770648   2.410878   1.397128   0.000000
     5  C    2.433203   2.820989   2.469387   1.407489   0.000000
     6  C    1.418343   2.451315   2.865133   2.434283   1.417382
     7  N    4.136646   3.754042   2.522859   1.386394   2.239948
     8  C    3.839444   4.223126   3.622287   2.274302   1.434751
     9  C    4.667314   4.656221   3.650568   2.288881   2.309907
    10  H    4.867002   4.242465   2.856554   2.118888   3.206745
    11  H    4.432867   5.053438   4.621533   3.317006   2.244058
    12  H    5.741891   5.698328   4.613368   3.301327   3.368895
    13  H    2.136285   1.080873   2.182669   3.397127   3.901754
    14  H    3.434173   2.202431   1.081285   2.166843   3.447178
    15  H    1.081353   2.129923   3.421535   3.851576   3.413778
    16  H    2.183582   3.429592   3.946515   3.420766   2.177694
                    6          7          8          9         10
     6  C    0.000000
     7  N    3.577701   0.000000
     8  C    2.632030   2.206310   0.000000
     9  C    3.712849   1.369129   1.399877   0.000000
    10  H    4.486623   1.004638   3.174361   2.099615   0.000000
    11  H    3.068045   3.245509   1.076771   2.200048   4.179233
    12  H    4.755825   2.144328   2.265965   1.074833   2.499730
    13  H    3.422560   4.676229   5.301801   5.676516   5.028607
    14  H    3.946373   2.855216   4.435308   4.165495   2.802321
    15  H    2.164008   5.216116   4.764147   5.695972   5.943785
    16  H    1.081560   4.417444   2.979306   4.271964   5.379059
                   11         12         13         14         15
    11  H    0.000000
    12  H    2.737383   0.000000
    13  H    6.131668   6.698301   0.000000
    14  H    5.483826   4.995544   2.540241   0.000000
    15  H    5.222569   6.767235   2.439318   4.320795   0.000000
    16  H    3.032038   5.236421   4.311622   5.027719   2.507584
                   16
    16  H    0.000000
 Stoichiometry    C8H7N
 Framework group  C1[X(C8H7N)]
 Deg. of freedom    42
 Full point group                 C1      NOp   1
 Largest Abelian subgroup         C1      NOp   1
 Largest concise Abelian subgroup C1      NOp   1
                         Standard orientation:                         
 ---------------------------------------------------------------------
 Center     Atomic      Atomic             Coordinates (Angstroms)
 Number     Number       Type             X           Y           Z
 ---------------------------------------------------------------------
      1          6           0       -2.187048    0.665296    0.010567
      2          6           0       -2.161557   -0.720677   -0.003111
      3          6           0       -0.915854   -1.427844   -0.005195
      4          6           0        0.248441   -0.655599   -0.000465
      5          6           0        0.244588    0.751885   -0.000476
      6          6           0       -0.996647    1.436145   -0.010244
      7          7           0        1.578202   -1.047790    0.002369
      8          6           0        1.620627    1.158112    0.002163
      9          6           0        2.435406    0.019785    0.003173
     10          1           0        1.881674   -2.005497    0.002069
     11          1           0        1.981695    2.172538   -0.000074
     12          1           0        3.503197   -0.103048    0.002357
     13          1           0       -3.092767   -1.269434   -0.003793
     14          1           0       -0.875139   -2.508356   -0.008728
     15          1           0       -3.143287    1.168810    0.048046
     16          1           0       -1.030524    2.516893   -0.034921
 ---------------------------------------------------------------------
 Rotational constants (GHZ):           3.9259522           1.6002351           1.1368856
 Standard basis: 6-31G(d) (6D, 7F)
 There are   149 symmetry adapted cartesian basis functions of A   symmetry.
 There are   149 symmetry adapted basis functions of A   symmetry.
   149 basis functions,   280 primitive gaussians,   149 cartesian basis functions
    31 alpha electrons       31 beta electrons
       nuclear repulsion energy       398.6778557471 Hartrees.
 NAtoms=   16 NActive=   16 NUniq=   16 SFac= 1.00D+00 NAtFMM=   60 NAOKFM=F Big=F
 Integral buffers will be    131072 words long.
 Regular integral format.
 Two-electron integral symmetry is turned on.
 One-electron integrals computed using PRISM.
 NBasis=   149 RedAO= T EigKep=  4.29D-04  NBF=   149
 NBsUse=   149 1.00D-06 EigRej= -1.00D+00 NBFU=   149
 Initial guess from the checkpoint file:  "FuncsN12SX.chk"
 B after Tr=     0.000000    0.000000    0.000000
         Rot=    0.999997   -0.000052    0.000001   -0.002434 Ang=  -0.28 deg.
 ExpMin= 1.61D-01 ExpMax= 4.17D+03 ExpMxC= 6.27D+02 IAcc=3 IRadAn=         5 AccDes= 0.00D+00
 Harris functional with IExCor= 5547 and IRadAn=       5 diagonalized for initial guess.
 HarFok:  IExCor= 5547 AccDes= 0.00D+00 IRadAn=         5 IDoV= 1 UseB2=F ITyADJ=14
 ICtDFT=  3500011 ScaDFX=  1.000000  1.000000  1.000000  1.000000
 FoFCou: FMM=F IPFlag=           0 FMFlag=      100000 FMFlg1=           0
         NFxFlg=           0 DoJE=T BraDBF=F KetDBF=T FulRan=T
         wScrn=  0.000000 ICntrl=       500 IOpCl=  0 I1Cent=   200000004 NGrid=           0
         NMat0=    1 NMatS0=      1 NMatT0=    0 NMatD0=    1 NMtDS0=    0 NMtDT0=    0
 Petite list used in FoFCou.
 Requested convergence on RMS density matrix=1.00D-08 within 128 cycles.
 Requested convergence on MAX density matrix=1.00D-06.
 Requested convergence on             energy=1.00D-06.
 No special actions if energy rises.
 Integral accuracy reduced to 1.0D-05 until final iterations.
 Initial convergence to 1.0D-05 achieved.  Increase integral accuracy.
 SCF Done:  E(RN12SX) =  -363.646290355     A.U. after   12 cycles
            NFock= 12  Conv=0.83D-08     -V/T= 2.0114
 DoSCS=F DFT=T ScalE2(SS,OS)=  1.000000  1.000000
 ExpMin= 1.61D-01 ExpMax= 4.17D+03 ExpMxC= 6.27D+02 IAcc=3 IRadAn=         5 AccDes= 0.00D+00
 HarFok:  IExCor=  205 AccDes= 0.00D+00 IRadAn=         5 IDoV=-2 UseB2=F ITyADJ=14
 ICtDFT= 12500011 ScaDFX=  1.000000  1.000000  1.000000  1.000000
 Range of M.O.s used for correlation:    10   149
 NBasis=   149 NAE=    31 NBE=    31 NFC=     9 NFV=     0
 NROrb=    140 NOA=    22 NOB=    22 NVA=   118 NVB=   118
 Orbital symmetries:
       Occupied  (A) (A) (A) (A) (A) (A) (A) (A) (A) (A) (A) (A)
                 (A) (A) (A) (A) (A) (A) (A) (A) (A) (A) (A) (A)
                 (A) (A) (A) (A) (A) (A) (A)
       Virtual   (A) (A) (A) (A) (A) (A) (A) (A) (A) (A) (A) (A)
                 (A) (A) (A) (A) (A) (A) (A) (A) (A) (A) (A) (A)
                 (A) (A) (A) (A) (A) (A) (A) (A) (A) (A) (A) (A)
                 (A) (A) (A) (A) (A) (A) (A) (A) (A) (A) (A) (A)
                 (A) (A) (A) (A) (A) (A) (A) (A) (A) (A) (A) (A)
                 (A) (A) (A) (A) (A) (A) (A) (A) (A) (A) (A) (A)
                 (A) (A) (A) (A) (A) (A) (A) (A) (A) (A) (A) (A)
                 (A) (A) (A) (A) (A) (A) (A) (A) (A) (A) (A) (A)
                 (A) (A) (A) (A) (A) (A) (A) (A) (A) (A) (A) (A)
                 (A) (A) (A) (A) (A) (A) (A) (A) (A) (A)
 Generating guess from densities on rwf.
 Convergence on wavefunction:    0.000001000000000
 Iteration     1 Dimension    12 NMult     0 NNew     12
 CISAX will form    12 AO SS matrices at one time.
 New state      5 was old state      6
 New state      6 was old state      5
 Iteration     2 Dimension    24 NMult    12 NNew     12
 Iteration     3 Dimension    36 NMult    24 NNew     12
 Iteration     4 Dimension    48 NMult    36 NNew     12
 Iteration     5 Dimension    60 NMult    48 NNew     12
 Iteration     6 Dimension    72 NMult    60 NNew     12
 Iteration     7 Dimension    84 NMult    72 NNew     12
 Iteration     8 Dimension    96 NMult    84 NNew     12
 Iteration     9 Dimension   104 NMult    96 NNew      8
 Iteration    10 Dimension   112 NMult   104 NNew      8
 Iteration    11 Dimension   114 NMult   112 NNew      2
 Iteration    12 Dimension   116 NMult   114 NNew      2
 Iteration    13 Dimension   118 NMult   116 NNew      2
 ***********************************************************************
 Excited states from <AA,BB:AA,BB> singles matrix:
 ***********************************************************************
 
 Ground to excited state transition densities written to RWF  633
 Ground to excited state transition electric dipole moments (Au):
       state          X           Y           Z        Dip. S.      Osc.
         1        -0.5758      0.6942     -0.0031      0.8134      0.0912
         2        -0.4265     -0.1318     -0.0008      0.1992      0.0242
         3        -1.3820     -0.1505     -0.0025      1.9325      0.2929
         4         1.4958      0.5828     -0.0009      2.5772      0.4054
         5         0.0425     -0.0003      0.0278      0.0026      0.0004
         6         0.5635     -0.7120     -0.0048      0.8245      0.1388
 Ground to excited state transition velocity dipole moments (Au):
       state          X           Y           Z        Dip. S.      Osc.
         1         0.0889     -0.1282      0.0009      0.0244      0.0966
         2         0.0741      0.0254      0.0001      0.0061      0.0224
         3         0.3111      0.0381      0.0005      0.0982      0.2880
         4        -0.3432     -0.1375      0.0012      0.1367      0.3862
         5        -0.0104      0.0004     -0.0207      0.0005      0.0014
         6        -0.1418      0.1853      0.0025      0.0544      0.1437
 Ground to excited state transition magnetic dipole moments (Au):
       state          X           Y           Z
         1         0.0017      0.0020      0.0248
         2        -0.0002     -0.0020      0.0114
         3        -0.0027     -0.0017     -0.3964
         4        -0.0036     -0.0014      0.3923
         5         0.1864      0.0371      0.0359
         6        -0.0052     -0.0012      0.3614
 Ground to excited state transition velocity quadrupole moments (Au):
       state          XX          YY          ZZ          XY          XZ          YZ
         1         0.1623     -0.1147     -0.0065     -0.0003     -0.0022      0.0023
         2         0.0690     -0.1283      0.0107      0.0107      0.0017      0.0015
         3         0.0840     -0.0904     -0.0060     -0.2236     -0.0011     -0.0002
         4         0.0288      0.0154      0.0226      0.2592     -0.0028      0.0014
         5        -0.0098      0.0037      0.0009      0.0225     -0.0672      0.1171
         6         0.1284      0.1127      0.0322      0.0931     -0.0033     -0.0009
 <0|del|b> * <b|rxdel|0> + <0|del|b> * <b|delr+rdel|0>
 Rotatory Strengths (R) in cgs (10**-40 erg-esu-cm/Gauss)
       state          XX          YY          ZZ    R(velocity)    E-M Angle
         1        -1.0903      0.7964     -0.0596     -0.1178       90.00
         2        -0.1788      0.1984     -0.2594     -0.0799       90.00
         3        -0.5444     -1.5105     -1.3694     -1.1414       90.51
         4         0.8814      1.3411      3.4281      1.8835       89.26
         5        -1.6504     -4.8411     -1.0325     -2.5080      126.43
         6         2.1599      2.1736     -0.2922      1.3471       89.02
 1/2[<0|r|b>*<b|rxdel|0> + (<0|rxdel|b>*<b|r|0>)*]
 Rotatory Strengths (R) in cgs (10**-40 erg-esu-cm/Gauss)
       state          XX          YY          ZZ     R(length)
         1         0.6759     -0.9732      0.0543     -0.0810
         2        -0.0501     -0.1841      0.0064     -0.0759
         3        -2.5980     -0.1828     -0.7027     -1.1612
         4         3.7559      0.5794      0.2455      1.5269
         5        -5.6030      0.0087     -0.7060     -2.1001
         6         2.0861     -0.5983      1.2181      0.9020
  1/2[<0|del|b>*<b|r|0> + (<0|r|b>*<b|del|0>)*] (Au)
       state          X           Y           Z        Dip. S.   Osc.(frdel)
         1        -0.0512     -0.0890     -0.0000      0.1402      0.0935
         2        -0.0316     -0.0033     -0.0000      0.0350      0.0233
         3        -0.4299     -0.0057     -0.0000      0.4356      0.2904
         4        -0.5134     -0.0801     -0.0000      0.5935      0.3957
         5        -0.0004     -0.0000     -0.0006      0.0010      0.0007
         6        -0.0799     -0.1319     -0.0000      0.2118      0.1412

 Excitation energies and oscillator strengths:
 
 Excited State   1:      Singlet-A      4.5765 eV  270.91 nm  f=0.0912  <S**2>=0.000
      29 -> 32         0.10982
      30 -> 33         0.12199
      31 -> 32         0.67803
 This state for optimization and/or second-order correction.
 Total Energy, E(TD-HF/TD-DFT) =  -363.478106210    
 Copying the excited state density for this state as the 1-particle RhoCI density.
 
 Excited State   2:      Singlet-A      4.9654 eV  249.70 nm  f=0.0242  <S**2>=0.000
      30 -> 32         0.55965
      31 -> 33        -0.42121
 
 Excited State   3:      Singlet-A      6.1864 eV  200.41 nm  f=0.2929  <S**2>=0.000
      29 -> 32        -0.41033
      30 -> 32         0.26184
      30 -> 33         0.20107
      31 -> 33         0.40058
      31 -> 34        -0.21902
 
 Excited State   4:      Singlet-A      6.4211 eV  193.09 nm  f=0.4054  <S**2>=0.000
      29 -> 32        -0.42066
      29 -> 33        -0.12195
      30 -> 32        -0.30402
      30 -> 33         0.12652
      31 -> 33        -0.38896
      31 -> 34        -0.21205
 
 Excited State   5:      Singlet-A      6.8002 eV  182.32 nm  f=0.0004  <S**2>=0.000
      31 -> 35         0.70186
 
 Excited State   6:      Singlet-A      6.8726 eV  180.40 nm  f=0.1388  <S**2>=0.000
      29 -> 34        -0.12973
      30 -> 33         0.54151
      31 -> 32        -0.10544
      31 -> 34         0.40096
 SavETr:  write IOETrn=   770 NScale= 10 NData=  16 NLR=1 NState=    6 LETran=     118.
          IDoAtm=1111111111111111
          Differentiating once with respect to electric field.
                with respect to dipole field.
          Differentiating once with respect to nuclear coordinates.
          There are     1 degrees of freedom in the 1st order CPHF.  IDoFFX=0 NUNeed=     1.
 LinEq1:  Iter=  0 NonCon=     1 RMS=1.58D-02 Max=4.44D-01 NDo=     1
 AX will form     1 AO Fock derivatives at one time.
 LinEq1:  Iter=  1 NonCon=     1 RMS=6.63D-03 Max=1.91D-01 NDo=     1
 LinEq1:  Iter=  2 NonCon=     1 RMS=6.14D-03 Max=1.82D-01 NDo=     1
 LinEq1:  Iter=  3 NonCon=     1 RMS=2.26D-03 Max=4.82D-02 NDo=     1
 LinEq1:  Iter=  4 NonCon=     1 RMS=2.08D-03 Max=6.01D-02 NDo=     1
 LinEq1:  Iter=  5 NonCon=     1 RMS=8.19D-04 Max=1.83D-02 NDo=     1
 LinEq1:  Iter=  6 NonCon=     1 RMS=5.23D-04 Max=1.13D-02 NDo=     1
 LinEq1:  Iter=  7 NonCon=     1 RMS=2.13D-04 Max=5.34D-03 NDo=     1
 LinEq1:  Iter=  8 NonCon=     1 RMS=1.48D-04 Max=2.58D-03 NDo=     1
 LinEq1:  Iter=  9 NonCon=     1 RMS=6.22D-05 Max=1.26D-03 NDo=     1
 LinEq1:  Iter= 10 NonCon=     1 RMS=3.42D-05 Max=7.10D-04 NDo=     1
 LinEq1:  Iter= 11 NonCon=     1 RMS=2.19D-05 Max=4.91D-04 NDo=     1
 LinEq1:  Iter= 12 NonCon=     1 RMS=9.18D-06 Max=1.84D-04 NDo=     1
 LinEq1:  Iter= 13 NonCon=     1 RMS=4.81D-06 Max=8.52D-05 NDo=     1
 LinEq1:  Iter= 14 NonCon=     1 RMS=1.69D-06 Max=2.75D-05 NDo=     1
 LinEq1:  Iter= 15 NonCon=     1 RMS=3.16D-07 Max=5.34D-06 NDo=     1
 LinEq1:  Iter= 16 NonCon=     1 RMS=1.47D-07 Max=2.84D-06 NDo=     1
 LinEq1:  Iter= 17 NonCon=     1 RMS=6.42D-08 Max=1.03D-06 NDo=     1
 LinEq1:  Iter= 18 NonCon=     1 RMS=1.69D-08 Max=3.40D-07 NDo=     1
 LinEq1:  Iter= 19 NonCon=     1 RMS=4.66D-09 Max=5.93D-08 NDo=     1
 LinEq1:  Iter= 20 NonCon=     1 RMS=1.14D-09 Max=1.47D-08 NDo=     1
 LinEq1:  Iter= 21 NonCon=     1 RMS=1.61D-10 Max=2.43D-09 NDo=     1
 LinEq1:  Iter= 22 NonCon=     0 RMS=2.97D-11 Max=5.97D-10 NDo=     1
 Linear equations converged to 1.000D-10 1.000D-09 after    22 iterations.
 End of Minotr F.D. properties file   721 does not exist.
 End of Minotr F.D. properties file   722 does not exist.
 End of Minotr F.D. properties file   788 does not exist.
 Calling FoFJK, ICntrl=  10005127 FMM=F ISym2X=0 I1Cent= 0 IOpClX= 0 NMat=1 NMatS=1 NMatT=0.
 ***** Axes restored to original set *****
 -------------------------------------------------------------------
 Center     Atomic                   Forces (Hartrees/Bohr)
 Number     Number              X              Y              Z
 -------------------------------------------------------------------
      1        6          -0.000994923   -0.012708110   -0.000346002
      2        6          -0.003241012    0.016036146    0.001166868
      3        6           0.009319939   -0.010898344   -0.000911630
      4        6          -0.009335013    0.011943411    0.000206848
      5        6           0.003865418   -0.008442306   -0.000955444
      6        6           0.002485931    0.009170497    0.001020980
      7        7           0.016206572    0.007089610    0.000175631
      8        6          -0.014432011    0.011674485   -0.000326642
      9        6          -0.002887939   -0.023290169    0.000092911
     10        1          -0.000251949   -0.001431754   -0.000078290
     11        1           0.000605996    0.000827007    0.000150555
     12        1          -0.000888413    0.000426799    0.000013413
     13        1           0.000843040   -0.001327236    0.000602053
     14        1          -0.000927682    0.000557819   -0.000005971
     15        1           0.000131183    0.001271277   -0.001380913
     16        1          -0.000499137   -0.000899134    0.000575632
 -------------------------------------------------------------------
 Cartesian Forces:  Max     0.023290169 RMS     0.006873688

 GradGradGradGradGradGradGradGradGradGradGradGradGradGradGradGradGradGrad
 Berny optimization.
 Using GEDIIS/GDIIS optimizer.
 FormGI is forming the generalized inverse of G from B-inverse, IUseBI=4.
 Internal  Forces:  Max     0.014755968 RMS     0.003046148
 Search for a local minimum.
 Step number   2 out of a maximum of   94
 All quantities printed in internal units (Hartrees-Bohrs-Radians)
 Mixed Optimization -- RFO/linear search
 Update second derivatives using D2CorX and points    1    2
 DE= -8.10D-03 DEPred=-6.92D-03 R= 1.17D+00
 TightC=F SS=  1.41D+00  RLast= 2.21D-01 DXNew= 5.0454D-01 6.6400D-01
 Trust test= 1.17D+00 RLast= 2.21D-01 DXMaxT set to 5.05D-01
 ITU=  1  0
 Use linear search instead of GDIIS.
     Eigenvalues ---    0.01795   0.01877   0.01936   0.01957   0.02012
     Eigenvalues ---    0.02070   0.02085   0.02104   0.02136   0.02147
     Eigenvalues ---    0.02166   0.02190   0.02279   0.15842   0.15999
     Eigenvalues ---    0.16000   0.16000   0.16000   0.16000   0.16011
     Eigenvalues ---    0.19688   0.22018   0.23941   0.24630   0.26033
     Eigenvalues ---    0.32612   0.34463   0.34807   0.34854   0.35254
     Eigenvalues ---    0.35906   0.35969   0.38049   0.38592   0.42069
     Eigenvalues ---    0.43422   0.45162   0.46276   0.46434   0.46812
     Eigenvalues ---    0.48168   0.54366
 RFO step:  Lambda=-2.26849112D-03 EMin= 1.79517111D-02
 Quartic linear search produced a step of  0.20617.
 Iteration  1 RMS(Cart)=  0.01299779 RMS(Int)=  0.00012871
 Iteration  2 RMS(Cart)=  0.00015167 RMS(Int)=  0.00007951
 Iteration  3 RMS(Cart)=  0.00000001 RMS(Int)=  0.00007951
 Variable       Old X    -DE/DX   Delta X   Delta X   Delta X     New X
                                 (Linear)    (Quad)   (Total)
    R1        2.61968  -0.00755  -0.00782  -0.01846  -0.02634   2.59334
    R2        2.68028   0.00214   0.01181   0.00246   0.01422   2.69450
    R3        2.04346   0.00043  -0.00511   0.00294  -0.00217   2.04129
    R4        2.70691   0.00634   0.01741   0.01167   0.02907   2.73597
    R5        2.04255  -0.00006  -0.00343   0.00075  -0.00268   2.03987
    R6        2.64019  -0.00259  -0.00112  -0.00646  -0.00754   2.63265
    R7        2.04333  -0.00059  -0.00330  -0.00110  -0.00440   2.03893
    R8        2.65977  -0.00392  -0.00618  -0.00977  -0.01594   2.64383
    R9        2.61990   0.00664   0.00284   0.01475   0.01765   2.63756
   R10        2.67846   0.00045   0.00467   0.00009   0.00477   2.68324
   R11        2.71129  -0.00680  -0.00086  -0.01942  -0.02036   2.69092
   R12        2.04385  -0.00090  -0.00341  -0.00214  -0.00555   2.03830
   R13        2.58728  -0.01476  -0.00561  -0.03538  -0.04091   2.54637
   R14        1.89849   0.00129  -0.00110   0.00360   0.00251   1.90100
   R15        2.64538   0.01396   0.01186   0.03055   0.04240   2.68778
   R16        2.03480   0.00098  -0.00175   0.00377   0.00202   2.03682
   R17        2.03114  -0.00093  -0.00238  -0.00246  -0.00484   2.02630
    A1        2.12679   0.00115   0.00342   0.00528   0.00850   2.13529
    A2        2.07389   0.00064  -0.00136   0.00625   0.00496   2.07884
    A3        2.08246  -0.00178  -0.00206  -0.01142  -0.01341   2.06905
    A4        2.10549   0.00298  -0.00264   0.01737   0.01457   2.12006
    A5        2.08490   0.00011   0.00109   0.00332   0.00447   2.08937
    A6        2.09276  -0.00309   0.00160  -0.02067  -0.01901   2.07375
    A7        2.03961  -0.00491  -0.00204  -0.02522  -0.02731   2.01230
    A8        2.12478   0.00153   0.00145   0.00554   0.00701   2.13179
    A9        2.11879   0.00338   0.00061   0.01968   0.02029   2.13908
   A10        2.15371   0.00198   0.00404   0.00958   0.01364   2.16734
   A11        2.26914  -0.00430  -0.00185  -0.01965  -0.02152   2.24763
   A12        1.86033   0.00232  -0.00218   0.01007   0.00788   1.86822
   A13        2.07734   0.00303   0.00163   0.01413   0.01581   2.09315
   A14        1.85512  -0.00017  -0.00196   0.00057  -0.00150   1.85362
   A15        2.35070  -0.00285   0.00034  -0.01469  -0.01429   2.33641
   A16        2.06293  -0.00421  -0.00383  -0.02085  -0.02481   2.03813
   A17        2.11428   0.00156   0.00235   0.00624   0.00861   2.12290
   A18        2.10597   0.00264   0.00152   0.01460   0.01615   2.12212
   A19        1.96053  -0.00136   0.01079  -0.01276  -0.00185   1.95868
   A20        2.16446   0.00005  -0.00505   0.00154  -0.00357   2.16089
   A21        2.15819   0.00131  -0.00575   0.01122   0.00541   2.16361
   A22        1.90497  -0.00186   0.00717  -0.00971  -0.00262   1.90235
   A23        2.19980   0.00122  -0.00290   0.00673   0.00387   2.20367
   A24        2.17841   0.00064  -0.00428   0.00300  -0.00124   2.17717
   A25        1.84383   0.00107  -0.01382   0.01184  -0.00192   1.84191
   A26        2.13280  -0.00021   0.00685  -0.00347   0.00334   2.13614
   A27        2.30656  -0.00086   0.00698  -0.00837  -0.00142   2.30513
    D1        0.02756  -0.00065  -0.01183  -0.00882  -0.02082   0.00674
    D2       -3.12303  -0.00045  -0.00864  -0.00522  -0.01393  -3.13696
    D3       -3.10330  -0.00070  -0.00797  -0.02028  -0.02838  -3.13168
    D4        0.02929  -0.00051  -0.00478  -0.01668  -0.02149   0.00780
    D5       -0.03643   0.00071   0.01083   0.01146   0.02224  -0.01419
    D6        3.10306   0.00043   0.00634   0.00760   0.01404   3.11710
    D7        3.09439   0.00078   0.00695   0.02308   0.02987   3.12425
    D8       -0.04931   0.00050   0.00246   0.01922   0.02167  -0.02764
    D9       -0.00607   0.00034   0.00592   0.00417   0.00998   0.00391
   D10        3.13393   0.00019   0.00275   0.00376   0.00656   3.14048
   D11       -3.13862   0.00014   0.00272   0.00043   0.00303  -3.13559
   D12        0.00138  -0.00002  -0.00045   0.00002  -0.00040   0.00098
   D13       -0.00559  -0.00003   0.00052  -0.00199  -0.00131  -0.00690
   D14        3.13842  -0.00012  -0.00119  -0.00274  -0.00374   3.13468
   D15        3.13759   0.00012   0.00369  -0.00156   0.00215   3.13974
   D16       -0.00159   0.00004   0.00198  -0.00231  -0.00028  -0.00187
   D17       -0.00382  -0.00000  -0.00132   0.00425   0.00308  -0.00073
   D18       -3.13945  -0.00008  -0.00236   0.00107  -0.00123  -3.14068
   D19        3.13585   0.00006   0.00004   0.00481   0.00502   3.14087
   D20        0.00021  -0.00002  -0.00100   0.00163   0.00071   0.00093
   D21        3.13868   0.00010   0.00156   0.00178   0.00324  -3.14126
   D22       -0.00096   0.00008   0.00166   0.00070   0.00230   0.00134
   D23       -0.00081   0.00002   0.00005   0.00112   0.00112   0.00032
   D24       -3.14045   0.00000   0.00014   0.00004   0.00019  -3.14026
   D25        0.02416  -0.00036  -0.00444  -0.00876  -0.01305   0.01111
   D26       -3.11534  -0.00008   0.00004  -0.00491  -0.00485  -3.12018
   D27       -3.12548  -0.00023  -0.00305  -0.00435  -0.00720  -3.13268
   D28        0.01821   0.00005   0.00143  -0.00050   0.00100   0.01921
   D29        0.00042   0.00000   0.00159  -0.00379  -0.00222  -0.00180
   D30        3.13823   0.00011   0.00127   0.00260   0.00389  -3.14106
   D31       -3.13384  -0.00013   0.00030  -0.00786  -0.00757  -3.14141
   D32        0.00397  -0.00002  -0.00001  -0.00147  -0.00146   0.00251
   D33        0.00106  -0.00003   0.00098  -0.00345  -0.00247  -0.00142
   D34       -3.13836  -0.00004  -0.00013  -0.00196  -0.00205  -3.14041
   D35        3.14071  -0.00001   0.00088  -0.00238  -0.00155   3.13916
   D36        0.00130  -0.00003  -0.00022  -0.00090  -0.00112   0.00017
   D37       -0.00088   0.00001  -0.00158   0.00438   0.00286   0.00198
   D38        3.13822   0.00003  -0.00034   0.00270   0.00239   3.14061
   D39       -3.13875  -0.00009  -0.00127  -0.00192  -0.00315   3.14128
   D40        0.00035  -0.00007  -0.00003  -0.00360  -0.00363  -0.00327
         Item               Value     Threshold  Converged?
 Maximum Force            0.014756     0.000450     NO 
 RMS     Force            0.003046     0.000300     NO 
 Maximum Displacement     0.047969     0.001800     NO 
 RMS     Displacement     0.013050     0.001200     NO 
 Predicted change in Energy=-1.498776D-03
 GradGradGradGradGradGradGradGradGradGradGradGradGradGradGradGradGradGrad

                          Input orientation:                          
 ---------------------------------------------------------------------
 Center     Atomic      Atomic             Coordinates (Angstroms)
 Number     Number       Type             X           Y           Z
 ---------------------------------------------------------------------
      1          6           0       -2.181458    0.674732    0.008319
      2          6           0       -2.156415   -0.697365    0.002705
      3          6           0       -0.907989   -1.430523   -0.006181
      4          6           0        0.243177   -0.645896   -0.003600
      5          6           0        0.240768    0.753157   -0.001257
      6          6           0       -0.991005    1.459467   -0.002329
      7          7           0        1.578334   -1.052628   -0.002800
      8          6           0        1.607485    1.152896   -0.000338
      9          6           0        2.429370   -0.007913    0.000293
     10          1           0        1.870230   -2.015310   -0.005201
     11          1           0        1.975380    2.166004    0.001886
     12          1           0        3.494156   -0.134407    0.000250
     13          1           0       -3.084010   -1.249425    0.006890
     14          1           0       -0.875646   -2.508990   -0.009641
     15          1           0       -3.134563    1.182850    0.024248
     16          1           0       -1.024164    2.537429   -0.020252
 ---------------------------------------------------------------------
                    Distance matrix (angstroms):
                    1          2          3          4          5
     1  C    0.000000
     2  C    1.372337   0.000000
     3  C    2.460495   1.447814   0.000000
     4  C    2.760989   2.400152   1.393137   0.000000
     5  C    2.423515   2.801876   2.467413   1.399057   0.000000
     6  C    1.425868   2.451556   2.891184   2.440442   1.419908
     7  N    4.137624   3.751611   2.514879   1.395734   2.247208
[...]
 ! D1    D(6,1,2,3)             -0.0086         -DE/DX =    0.0                 !
 ! D2    D(6,1,2,13)           179.9679         -DE/DX =    0.0                 !
 ! D3    D(15,1,2,3)          -180.0057         -DE/DX =    0.0                 !
 ! D4    D(15,1,2,13)           -0.0292         -DE/DX =    0.0                 !
 ! D5    D(2,1,6,5)             -0.0061         -DE/DX =    0.0                 !
 ! D6    D(2,1,6,16)           179.8382         -DE/DX =    0.0                 !
 ! D7    D(15,1,6,5)           179.991          -DE/DX =    0.0                 !
 ! D8    D(15,1,6,16)           -0.1647         -DE/DX =    0.0                 !
 ! D9    D(1,2,3,4)              0.0151         -DE/DX =    0.0                 !
 ! D10   D(1,2,3,14)           179.9647         -DE/DX =    0.0                 !
 ! D11   D(13,2,3,4)          -179.9617         -DE/DX =    0.0                 !
 ! D12   D(13,2,3,14)           -0.0121         -DE/DX =    0.0                 !
 ! D13   D(2,3,4,5)             -0.0076         -DE/DX =    0.0                 !
 ! D14   D(2,3,4,7)            179.896          -DE/DX =    0.0                 !
 ! D15   D(14,3,4,5)          -179.9565         -DE/DX =    0.0                 !
 ! D16   D(14,3,4,7)            -0.0529         -DE/DX =    0.0                 !
 ! D17   D(3,4,5,6)             -0.0066         -DE/DX =    0.0                 !
 ! D18   D(3,4,5,8)            179.8884         -DE/DX =    0.0                 !
 ! D19   D(7,4,5,6)           -179.9281         -DE/DX =    0.0                 !
 ! D20   D(7,4,5,8)             -0.0331         -DE/DX =    0.0                 !
 ! D21   D(3,4,7,9)           -179.8939         -DE/DX =    0.0                 !
 ! D22   D(3,4,7,10)             0.1852         -DE/DX =    0.0                 !
 ! D23   D(5,4,7,9)              0.0229         -DE/DX =    0.0                 !
 ! D24   D(5,4,7,10)          -179.8979         -DE/DX =    0.0                 !
 ! D25   D(4,5,6,1)              0.0134         -DE/DX =    0.0                 !
 ! D26   D(4,5,6,16)          -179.8315         -DE/DX =    0.0                 !
 ! D27   D(8,5,6,1)           -179.8489         -DE/DX =    0.0                 !
 ! D28   D(8,5,6,16)             0.3062         -DE/DX =    0.0                 !
 ! D29   D(4,5,8,9)              0.0325         -DE/DX =    0.0                 !
 ! D30   D(4,5,8,11)          -179.9296         -DE/DX =    0.0                 !
 ! D31   D(6,5,8,9)            179.9087         -DE/DX =    0.0                 !
 ! D32   D(6,5,8,11)            -0.0534         -DE/DX =    0.0                 !
 ! D33   D(4,7,9,8)             -0.0024         -DE/DX =    0.0                 !
 ! D34   D(4,7,9,12)          -179.8645         -DE/DX =    0.0                 !
 ! D35   D(10,7,9,8)           179.9173         -DE/DX =    0.0                 !
 ! D36   D(10,7,9,12)            0.0553         -DE/DX =    0.0                 !
 ! D37   D(5,8,9,7)             -0.0187         -DE/DX =    0.0                 !
 ! D38   D(5,8,9,12)           179.8285         -DE/DX =    0.0                 !
 ! D39   D(11,8,9,7)           179.9445         -DE/DX =    0.0                 !
 ! D40   D(11,8,9,12)           -0.2083         -DE/DX =    0.0                 !
 --------------------------------------------------------------------------------
 GradGradGradGradGradGradGradGradGradGradGradGradGradGradGradGradGradGrad

                          Input orientation:                          
 ---------------------------------------------------------------------
 Center     Atomic      Atomic             Coordinates (Angstroms)
 Number     Number       Type             X           Y           Z
 ---------------------------------------------------------------------
      1          6           0       -2.176906    0.680350    0.003511
      2          6           0       -2.146081   -0.696725    0.002676
      3          6           0       -0.914576   -1.441712   -0.000561
      4          6           0        0.239527   -0.649154   -0.002430
      5          6           0        0.236056    0.746478   -0.001486
      6          6           0       -0.989160    1.463542    0.001404
      7          7           0        1.586680   -1.054875   -0.003661
      8          6           0        1.602025    1.155112   -0.001390
      9          6           0        2.422772   -0.009685   -0.003052
     10          1           0        1.876424   -2.017868   -0.006010
     11          1           0        1.976192    2.165829    0.000302
     12          1           0        3.492088   -0.115456   -0.005931
     13          1           0       -3.077408   -1.247983    0.004891
     14          1           0       -0.894391   -2.520012   -0.000644
     15          1           0       -3.134732    1.184002    0.005892
     16          1           0       -1.014861    2.542239   -0.000521
 ---------------------------------------------------------------------
                    Distance matrix (angstroms):
                    1          2          3          4          5
     1  C    0.000000
     2  C    1.377420   0.000000
     3  C    2.469138   1.439313   0.000000
     4  C    2.758037   2.386088   1.400038   0.000000
     5  C    2.413873   2.785216   2.472272   1.395637   0.000000
     6  C    1.422720   2.450555   2.906212   2.444008   1.419628
     7  N    4.144350   3.749910   2.530995   1.406923   2.251458
     8  C    3.808640   4.180624   3.616183   2.260924   1.425782
     9  C    4.651154   4.620225   3.631611   2.274968   2.313767
    10  H    4.869287   4.233916   2.849853   2.133734   3.214411
    11  H    4.410769   5.018701   4.622867   3.307589   2.245582
    12  H    5.724586   5.668059   4.601920   3.296057   3.368188
    13  H    2.128232   1.082247   2.171498   3.370565   3.867422
    14  H    3.447779   2.211587   1.078489   2.187666   3.456569
    15  H    1.082174   2.124752   3.438533   3.840072   3.399072
    16  H    2.194766   3.430824   3.985213   3.429065   2.188504
                    6          7          8          9         10
     6  C    0.000000
     7  N    3.602417   0.000000
     8  C    2.609478   2.210042   0.000000
     9  C    3.716410   1.338459   1.424915   0.000000
    10  H    4.509084   1.005640   3.184826   2.081178   0.000000
    11  H    3.047380   3.244175   1.077754   2.220880   4.184891
    12  H    4.751302   2.124403   2.277433   1.074537   2.495905
    13  H    3.422448   4.668092   5.260417   5.637856   5.013311
    14  H    3.984682   2.881380   4.442818   4.159966   2.815953
    15  H    2.163710   5.225361   4.736851   5.684261   5.946746
    16  H    1.079005   4.439286   2.961792   4.281314   5.399457
                   11         12         13         14         15
    11  H    0.000000
    12  H    2.739021   0.000000
    13  H    6.098607   6.666408   0.000000
    14  H    5.495212   5.002311   2.526589   0.000000
    15  H    5.204379   6.753034   2.432660   4.328844   0.000000
    16  H    3.014645   5.232203   4.315079   5.063685   2.517678
                   16
    16  H    0.000000
 Stoichiometry    C8H7N
 Framework group  C1[X(C8H7N)]
 Deg. of freedom    42
 Full point group                 C1      NOp   1
 Largest Abelian subgroup         C1      NOp   1
 Largest concise Abelian subgroup C1      NOp   1
                         Standard orientation:                         
 ---------------------------------------------------------------------
 Center     Atomic      Atomic             Coordinates (Angstroms)
 Number     Number       Type             X           Y           Z
 ---------------------------------------------------------------------
      1          6           0       -2.185970    0.647521    0.000506
      2          6           0       -2.135397   -0.728971    0.000667
      3          6           0       -0.893331   -1.456221   -0.000296
      4          6           0        0.249288   -0.647193   -0.001063
      5          6           0        0.225800    0.748246   -0.001088
      6          6           0       -1.009577    1.447666   -0.000445
      7          7           0        1.602122   -1.033551   -0.000088
      8          6           0        1.585767    1.176430    0.000677
      9          6           0        2.423137    0.023524    0.000993
     10          1           0        1.905650   -1.992290   -0.001358
     11          1           0        1.945398    2.192411    0.002206
     12          1           0        3.493862   -0.066901   -0.000285
     13          1           0       -3.058724   -1.293528    0.001932
     14          1           0       -0.857683   -2.534120    0.000395
     15          1           0       -3.150923    1.137384    0.001171
     16          1           0       -1.050742    2.525882   -0.003152
 ---------------------------------------------------------------------
 Rotational constants (GHZ):           3.8856533           1.6153289           1.1409981

 **********************************************************************

            Population analysis using the CI Density.

 **********************************************************************

 Orbital symmetries:
       Occupied  (A) (A) (A) (A) (A) (A) (A) (A) (A) (A) (A) (A)
                 (A) (A) (A) (A) (A) (A) (A) (A) (A) (A) (A) (A)
                 (A) (A) (A) (A) (A) (A) (A)
       Virtual   (A) (A) (A) (A) (A) (A) (A) (A) (A) (A) (A) (A)
                 (A) (A) (A) (A) (A) (A) (A) (A) (A) (A) (A) (A)
                 (A) (A) (A) (A) (A) (A) (A) (A) (A) (A) (A) (A)
                 (A) (A) (A) (A) (A) (A) (A) (A) (A) (A) (A) (A)
                 (A) (A) (A) (A) (A) (A) (A) (A) (A) (A) (A) (A)
                 (A) (A) (A) (A) (A) (A) (A) (A) (A) (A) (A) (A)
                 (A) (A) (A) (A) (A) (A) (A) (A) (A) (A) (A) (A)
                 (A) (A) (A) (A) (A) (A) (A) (A) (A) (A) (A) (A)
                 (A) (A) (A) (A) (A) (A) (A) (A) (A) (A) (A) (A)
                 (A) (A) (A) (A) (A) (A) (A) (A) (A) (A)
 The electronic state is 1-A.
 Alpha  occ. eigenvalues --  -14.42834 -10.26890 -10.26427 -10.24030 -10.23328
 Alpha  occ. eigenvalues --  -10.23018 -10.22898 -10.22618 -10.21782  -0.97401
 Alpha  occ. eigenvalues --   -0.82935  -0.76562  -0.73042  -0.69856  -0.61946
 Alpha  occ. eigenvalues --   -0.58473  -0.56647  -0.53173  -0.47266  -0.46238
 Alpha  occ. eigenvalues --   -0.42633  -0.42141  -0.41048  -0.39065  -0.38032
 Alpha  occ. eigenvalues --   -0.33785  -0.33099  -0.32125  -0.25723  -0.21706
 Alpha  occ. eigenvalues --   -0.17891
 Alpha virt. eigenvalues --   -0.01928   0.03129   0.06703   0.08368   0.11032
 Alpha virt. eigenvalues --    0.14015   0.15155   0.17240   0.18136   0.18224
 Alpha virt. eigenvalues --    0.19430   0.22912   0.25275   0.27589   0.29371
 Alpha virt. eigenvalues --    0.33101   0.34729   0.38374   0.44176   0.51452
 Alpha virt. eigenvalues --    0.52254   0.53555   0.54326   0.55113   0.57034
 Alpha virt. eigenvalues --    0.58143   0.59420   0.60061   0.60437   0.62576
 Alpha virt. eigenvalues --    0.62630   0.62792   0.63779   0.64463   0.66439
 Alpha virt. eigenvalues --    0.70122   0.72103   0.77911   0.81408   0.82087
 Alpha virt. eigenvalues --    0.82180   0.85046   0.85844   0.86498   0.87601
 Alpha virt. eigenvalues --    0.90129   0.92068   0.94744   0.96645   0.97664
 Alpha virt. eigenvalues --    0.99659   1.05697   1.07419   1.13272   1.13778
 Alpha virt. eigenvalues --    1.20663   1.24363   1.26668   1.30459   1.32903
 Alpha virt. eigenvalues --    1.35733   1.37719   1.41495   1.42352   1.47520
 Alpha virt. eigenvalues --    1.48948   1.50123   1.50498   1.51002   1.54364
 Alpha virt. eigenvalues --    1.60895   1.76853   1.80100   1.83211   1.89941
 Alpha virt. eigenvalues --    1.90574   1.92887   1.96207   1.97458   2.00694
 Alpha virt. eigenvalues --    2.00931   2.03368   2.11208   2.13177   2.15779
 Alpha virt. eigenvalues --    2.16807   2.22888   2.23646   2.25241   2.28529
 Alpha virt. eigenvalues --    2.28595   2.37913   2.40660   2.41029   2.47681
 Alpha virt. eigenvalues --    2.56984   2.59508   2.61764   2.65087   2.66651
 Alpha virt. eigenvalues --    2.73051   2.75879   2.79829   2.83903   2.91250
 Alpha virt. eigenvalues --    2.97424   3.07567   3.23291   3.43023   4.00958
 Alpha virt. eigenvalues --    4.10709   4.12292   4.16293   4.22633   4.34357
 Alpha virt. eigenvalues --    4.42020   4.47488   4.77465
          Condensed to atoms (all electrons):
               1          2          3          4          5          6
     1  C    4.937268   0.588436  -0.045648  -0.038101   0.002163   0.424015
     2  C    0.588436   4.948631   0.403353   0.012622  -0.032637  -0.040264
     3  C   -0.045648   0.403353   5.300631   0.459296  -0.074106  -0.032446
     4  C   -0.038101   0.012622   0.459296   4.772100   0.526636  -0.061296
     5  C    0.002163  -0.032637  -0.074106   0.526636   4.704958   0.465500
     6  C    0.424015  -0.040264  -0.032446  -0.061296   0.465500   5.280135
     7  N   -0.000040   0.005230  -0.087114   0.213651  -0.024154   0.009290
     8  C    0.008324  -0.000101   0.013282  -0.018958   0.406361  -0.096946
     9  C   -0.000395  -0.000208   0.006683  -0.112748  -0.047153   0.011305
    10  H   -0.000000  -0.000061  -0.003321  -0.020847   0.005625  -0.000112
    11  H   -0.000011   0.000007  -0.000152   0.006495  -0.024364  -0.004504
    12  H    0.000003   0.000001  -0.000113   0.004053   0.001623  -0.000094
    13  H   -0.037941   0.358646  -0.041253   0.002501   0.001166   0.004228
    14  H    0.003904  -0.034833   0.356118  -0.041321   0.004232   0.000549
    15  H    0.360203  -0.040291   0.004447   0.001047   0.002402  -0.039581
    16  H   -0.041080   0.004389   0.000544   0.005020  -0.041574   0.360316
               7          8          9         10         11         12
     1  C   -0.000040   0.008324  -0.000395  -0.000000  -0.000011   0.000003
     2  C    0.005230  -0.000101  -0.000208  -0.000061   0.000007   0.000001
     3  C   -0.087114   0.013282   0.006683  -0.003321  -0.000152  -0.000113
     4  C    0.213651  -0.018958  -0.112748  -0.020847   0.006495   0.004053
     5  C   -0.024154   0.406361  -0.047153   0.005625  -0.024364   0.001623
     6  C    0.009290  -0.096946   0.011305  -0.000112  -0.004504  -0.000094
     7  N    6.938519  -0.074005   0.372403   0.315510   0.004192  -0.041842
     8  C   -0.074005   5.267382   0.402957   0.005982   0.361313  -0.028592
     9  C    0.372403   0.402957   5.021038  -0.034696  -0.048609   0.371840
    10  H    0.315510   0.005982  -0.034696   0.371763  -0.000087  -0.002401
    11  H    0.004192   0.361313  -0.048609  -0.000087   0.514381  -0.000468
    12  H   -0.041842  -0.028592   0.371840  -0.002401  -0.000468   0.497766
    13  H   -0.000110   0.000010   0.000003  -0.000001  -0.000000  -0.000000
    14  H   -0.005834  -0.000287  -0.000025   0.002661   0.000003   0.000002
    15  H    0.000003  -0.000182   0.000004  -0.000000  -0.000002  -0.000000
    16  H   -0.000116  -0.006695  -0.000075   0.000004   0.002167  -0.000001
              13         14         15         16
     1  C   -0.037941   0.003904   0.360203  -0.041080
     2  C    0.358646  -0.034833  -0.040291   0.004389
     3  C   -0.041253   0.356118   0.004447   0.000544
     4  C    0.002501  -0.041321   0.001047   0.005020
     5  C    0.001166   0.004232   0.002402  -0.041574
     6  C    0.004228   0.000549  -0.039581   0.360316
     7  N   -0.000110  -0.005834   0.000003  -0.000116
     8  C    0.000010  -0.000287  -0.000182  -0.006695
     9  C    0.000003  -0.000025   0.000004  -0.000075
    10  H   -0.000001   0.002661  -0.000000   0.000004
    11  H   -0.000000   0.000003  -0.000002   0.002167
    12  H   -0.000000   0.000002  -0.000000  -0.000001
    13  H    0.588446  -0.004343  -0.006275  -0.000174
    14  H   -0.004343   0.593487  -0.000158   0.000014
    15  H   -0.006275  -0.000158   0.590568  -0.004363
    16  H   -0.000174   0.000014  -0.004363   0.593679
 Mulliken charges:
               1
     1  C   -0.161100
     2  C   -0.172921
     3  C   -0.260202
     4  C    0.289850
     5  C    0.123324
     6  C   -0.280094
     7  N   -0.625585
     8  C   -0.239844
     9  C    0.057675
    10  H    0.359981
    11  H    0.189639
    12  H    0.198224
    13  H    0.135098
    14  H    0.125833
    15  H    0.132177
    16  H    0.127945
 Sum of Mulliken charges =  -0.00000
 Mulliken charges with hydrogens summed into heavy atoms:
               1
     1  C   -0.028923
     2  C   -0.037823
     3  C   -0.134369
     4  C    0.289850
     5  C    0.123324
     6  C   -0.152149
     7  N   -0.265604
     8  C   -0.050205
     9  C    0.255899
 Electronic spatial extent (au):  <R**2>=           1012.0721
 Charge=             -0.0000 electrons
 Dipole moment (field-independent basis, Debye):
    X=              4.6676    Y=             -1.2591    Z=             -0.0016  Tot=              4.8345
 Quadrupole moment (field-independent basis, Debye-Ang):
   XX=            -41.5605   YY=            -43.8887   ZZ=            -56.5141
   XY=             -2.4364   XZ=             -0.0080   YZ=             -0.0002
 Traceless Quadrupole moment (field-independent basis, Debye-Ang):
   XX=              5.7606   YY=              3.4324   ZZ=             -9.1930
   XY=             -2.4364   XZ=             -0.0080   YZ=             -0.0002
 Octapole moment (field-independent basis, Debye-Ang**2):
  XXX=             30.2194  YYY=             -8.8314  ZZZ=             -0.0014  XYY=             14.8423
  XXY=             -6.9581  XXZ=             -0.0022  XZZ=              4.7219  YZZ=             -1.3473
  YYZ=             -0.0112  XYZ=              0.0268
 Hexadecapole moment (field-independent basis, Debye-Ang**3):
 XXXX=           -778.3074 YYYY=           -362.0368 ZZZZ=            -58.0122 XXXY=            -17.5495
 XXXZ=             -0.0976 YYYX=            -16.4277 YYYZ=             -0.0120 ZZZX=             -0.0085
 ZZZY=              0.0001 XXYY=           -185.6213 XXZZ=           -176.3618 YYZZ=            -87.3373
 XXYZ=              0.0151 YYXZ=             -0.0023 ZZXY=             -2.4255
 N-N= 3.989469969783D+02 E-N=-1.640698384137D+03  KE= 3.597245480386D+02
 Unable to Open any file for archive entry.
 1\1\GINC-COMET-06-06\FOpt\RN12SX TD-FC\6-31G(d)\C8H7N1\SCAPARAS\04-Mar
 -2021\0\\# td= (nstates=6, root=1) N12SX/6-31G(d) Opt density=current\
 \FuncsN12SX\\0,1\C,-2.1769059942,0.6803500285,0.0035110401\C,-2.146081
 2596,-0.6967246212,0.0026756895\C,-0.9145758293,-1.4417124856,-0.00056
 13458\C,0.2395272723,-0.6491544656,-0.0024301169\C,0.2360557077,0.7464
 77698,-0.0014859095\C,-0.9891603202,1.4635417808,0.0014041241\N,1.5866
 804196,-1.0548751496,-0.0036605577\C,1.6020249682,1.155111995,-0.00139
 02715\C,2.4227724996,-0.0096854142,-0.0030521391\H,1.8764236772,-2.017
 8680838,-0.0060103997\H,1.9761923182,2.1658291157,0.0003022569\H,3.492
 0875063,-0.115455726,-0.0059307442\H,-3.0774075616,-1.2479826068,0.004
 8909472\H,-0.8943906224,-2.5200124825,-0.00064423\H,-3.1347320482,1.18
 40015074,0.0058924104\H,-1.0148607335,2.5422389099,-0.0005207539\\Vers
 ion=ES64L-G16RevC.01\State=1-A\HF=-363.64164\RMSD=5.047e-09\RMSF=5.608
 e-05\Dipole=1.8363788,-0.4953873,-0.0006311\Quadrupole=4.2828631,2.551
 9359,-6.834799,-1.8113914,-0.0059768,-0.0001271\PG=C01 [X(C8H7N1)]\\@
 The archive entry for this job was punched.


 When I told the people of Northern Ireland that I was
 an atheist, a woman in the audience stood up and said,
 "Yes, but is it the God of the Catholics or the God
 of the Protestants in whom you don't believe?"
                               -- Quentin Crisp
 Job cpu time:       0 days  1 hours 30 minutes 35.0 seconds.
 Elapsed time:       0 days  0 hours 45 minutes 18.7 seconds.
 File lengths (MBytes):  RWF=    205 Int=      0 D2E=      0 Chk=      8 Scr=      1
 Normal termination of Gaussian 16 at Thu Mar  4 05:13:22 2021.
