 Entering Gaussian System, Link 0=/cm/shared/apps/spack/cpu/opt/spack/linux-centos8-zen/gcc-8.3.1/gaussian-16.C.01-po5bqktfeugvmjyga3v7eigbecnokxng/g16/g16
 Initial command:
 /cm/shared/apps/spack/cpu/opt/spack/linux-centos8-zen/gcc-8.3.1/gaussian-16.C.01-po5bqktfeugvmjyga3v7eigbecnokxng/g16/l1.exe "/scratch/scaparas/job_3431619/Gau-73078.inp" -scrdir="/scratch/scaparas/job_3431619/"
 Entering Link 1 = /cm/shared/apps/spack/cpu/opt/spack/linux-centos8-zen/gcc-8.3.1/gaussian-16.C.01-po5bqktfeugvmjyga3v7eigbecnokxng/g16/l1.exe PID=     73079.
  
 Copyright (c) 1988-2019, Gaussian, Inc.  All Rights Reserved.
  
 This is part of the Gaussian(R) 16 program.  It is based on
 the Gaussian(R) 09 system (copyright 2009, Gaussian, Inc.),
 the Gaussian(R) 03 system (copyright 2003, Gaussian, Inc.),
 the Gaussian(R) 98 system (copyright 1998, Gaussian, Inc.),
 the Gaussian(R) 94 system (copyright 1995, Gaussian, Inc.),
 the Gaussian 92(TM) system (copyright 1992, Gaussian, Inc.),
 the Gaussian 90(TM) system (copyright 1990, Gaussian, Inc.),
 the Gaussian 88(TM) system (copyright 1988, Gaussian, Inc.),
 the Gaussian 86(TM) system (copyright 1986, Carnegie Mellon
 University), and the Gaussian 82(TM) system (copyright 1983,
 Carnegie Mellon University). Gaussian is a federally registered
 trademark of Gaussian, Inc.
  
 This software contains proprietary and confidential information,
 including trade secrets, belonging to Gaussian, Inc.
  
 This software is provided under written license and may be
 used, copied, transmitted, or stored only in accord with that
 written license.
  
 The following legend is applicable only to US Government
 contracts under FAR:
  
                    RESTRICTED RIGHTS LEGEND
  
 Use, reproduction and disclosure by the US Government is
 subject to restrictions as set forth in subparagraphs (a)
 and (c) of the Commercial Computer Software - Restricted
 Rights clause in FAR 52.227-19.
  
 Gaussian, Inc.
 340 Quinnipiac St., Bldg. 40, Wallingford CT 06492
  
  
 ---------------------------------------------------------------
 Warning -- This program may not be used in any manner that
 competes with the business of Gaussian, Inc. or will provide
 assistance to any competitor of Gaussian, Inc.  The licensee
 of this program is prohibited from giving any competitor of
 Gaussian, Inc. access to this program.  By using this program,
 the user acknowledges that Gaussian, Inc. is engaged in the
 business of creating and licensing software in the field of
 computational chemistry and represents and warrants to the
 licensee that it is not a competitor of Gaussian, Inc. and that
 it will not use this program in any manner prohibited above.
 ---------------------------------------------------------------
  

 Cite this work as:
 Gaussian 16, Revision C.01,
 M. J. Frisch, G. W. Trucks, H. B. Schlegel, G. E. Scuseria, 
 M. A. Robb, J. R. Cheeseman, G. Scalmani, V. Barone, 
 G. A. Petersson, H. Nakatsuji, X. Li, M. Caricato, A. V. Marenich, 
 J. Bloino, B. G. Janesko, R. Gomperts, B. Mennucci, H. P. Hratchian, 
 J. V. Ortiz, A. F. Izmaylov, J. L. Sonnenberg, D. Williams-Young, 
 F. Ding, F. Lipparini, F. Egidi, J. Goings, B. Peng, A. Petrone, 
 T. Henderson, D. Ranasinghe, V. G. Zakrzewski, J. Gao, N. Rega, 
 G. Zheng, W. Liang, M. Hada, M. Ehara, K. Toyota, R. Fukuda, 
 J. Hasegawa, M. Ishida, T. Nakajima, Y. Honda, O. Kitao, H. Nakai, 
 T. Vreven, K. Throssell, J. A. Montgomery, Jr., J. E. Peralta, 
 F. Ogliaro, M. J. Bearpark, J. J. Heyd, E. N. Brothers, K. N. Kudin, 
 V. N. Staroverov, T. A. Keith, R. Kobayashi, J. Normand, 
 K. Raghavachari, A. P. Rendell, J. C. Burant, S. S. Iyengar, 
 J. Tomasi, M. Cossi, J. M. Millam, M. Klene, C. Adamo, R. Cammi, 
 J. W. Ochterski, R. L. Martin, K. Morokuma, O. Farkas, 
 J. B. Foresman, and D. J. Fox, Gaussian, Inc., Wallingford CT, 2019.
 
 ******************************************
 Gaussian 16:  AS64L-G16RevC.01  3-Jul-2019
                15-Jun-2021 
 ******************************************
 %nprocshared=4
 Will use up to    4 processors via shared memory.
 %chk=FuncsAPFD-V-2nd.chk
 %Mem=3GB
 ----------------------------------------------------------
 # td= (nstates=6, root=2) APFD/6-31+G* Opt density=current
 ----------------------------------------------------------
 1/18=20,19=15,26=3,38=1/1,3;
 2/9=110,12=2,17=6,18=5,40=1/2;
 3/5=1,6=6,7=11,11=9,25=1,30=1,71=1,74=-44/1,2,3,8;
 4//1;
 5/5=2,38=5/2;
 8/6=1,10=2,107=2,108=6/1;
 9/8=2,15=2,41=6,42=1,70=2/14;
 10/5=4,28=2/2;
 6/7=2,8=2,9=2,10=2,22=-1/1;
 7/12=6,13=5,14=2/1,2,3,16;
 1/18=20,19=15,26=3/3(2);
 2/9=110/2;
 99//99;
 2/9=110/2;
 3/5=1,6=6,7=11,11=9,25=1,30=1,71=1,74=-44/1,2,3,8;
 4/5=5,16=3,69=1/1;
 5/5=2,38=5/2;
 8/6=1,10=2,107=2,108=6/1;
 9/8=2,15=2,41=6,42=1,49=4,70=2/14;
 10/5=4,28=2/2;
 7/12=6,13=5,14=2/1,2,3,16;
 1/18=20,19=15,26=3/3(-8);
 2/9=110/2;
 6/7=2,8=2,9=2,10=2,22=-1/1;
 99/9=10/99;
 ---------------
 FuncsAPFD-V-2nd
 ---------------
 Symbolic Z-matrix:
 Charge =  0 Multiplicity = 1
 C                    -2.15106   0.68921   0.00009 
 C                    -2.12793  -0.71582   0.00008 
 C                    -0.9323   -1.4131   -0.00001 
 C                     0.24691  -0.6702   -0.00004 
 C                     0.24819   0.7483    0. 
 C                    -0.97947   1.42353   0.00003 
 N                     1.56177  -1.07759  -0.00029 
 C                     1.62013   1.1629   -0.00016 
 C                     2.38201   0.03081   0.00025 
 H                     1.87632  -2.03001   0.00044 
 H                     1.99217   2.17301  -0.00035 
 H                     3.45255  -0.08243   0.00041 
 H                    -3.06159  -1.26202   0.00009 
 H                    -0.91725  -2.49534  -0.00007 
 H                    -3.1042    1.20079   0.00009 
 H                    -1.00935   2.50542  -0.00002 
 

 GradGradGradGradGradGradGradGradGradGradGradGradGradGradGradGradGradGrad
 Berny optimization.
 Initialization pass.
                           ----------------------------
                           !    Initial Parameters    !
                           ! (Angstroms and Degrees)  !
 --------------------------                            --------------------------
 ! Name  Definition              Value          Derivative Info.                !
 --------------------------------------------------------------------------------
 ! R1    R(1,2)                  1.4052         estimate D2E/DX2                !
 ! R2    R(1,6)                  1.3827         estimate D2E/DX2                !
 ! R3    R(1,15)                 1.0818         estimate D2E/DX2                !
 ! R4    R(2,3)                  1.3841         estimate D2E/DX2                !
 ! R5    R(2,13)                 1.0817         estimate D2E/DX2                !
 ! R6    R(3,4)                  1.3937         estimate D2E/DX2                !
 ! R7    R(3,14)                 1.0823         estimate D2E/DX2                !
 ! R8    R(4,5)                  1.4185         estimate D2E/DX2                !
 ! R9    R(4,7)                  1.3765         estimate D2E/DX2                !
 ! R10   R(5,6)                  1.4011         estimate D2E/DX2                !
 ! R11   R(5,8)                  1.4332         estimate D2E/DX2                !
 ! R12   R(6,16)                 1.0823         estimate D2E/DX2                !
 ! R13   R(7,9)                  1.3789         estimate D2E/DX2                !
 ! R14   R(7,10)                 1.003          estimate D2E/DX2                !
 ! R15   R(8,9)                  1.3646         estimate D2E/DX2                !
 ! R16   R(8,11)                 1.0764         estimate D2E/DX2                !
 ! R17   R(9,12)                 1.0765         estimate D2E/DX2                !
 ! A1    A(2,1,6)              121.1349         estimate D2E/DX2                !
 ! A2    A(2,1,15)             119.1671         estimate D2E/DX2                !
 ! A3    A(6,1,15)             119.698          estimate D2E/DX2                !
 ! A4    A(1,2,3)              121.1938         estimate D2E/DX2                !
 ! A5    A(1,2,13)             119.3846         estimate D2E/DX2                !
 ! A6    A(3,2,13)             119.4217         estimate D2E/DX2                !
 ! A7    A(2,3,4)              117.5387         estimate D2E/DX2                !
 ! A8    A(2,3,14)             121.0469         estimate D2E/DX2                !
 ! A9    A(4,3,14)             121.4144         estimate D2E/DX2                !
 ! A10   A(3,4,5)              122.2626         estimate D2E/DX2                !
 ! A11   A(3,4,7)              130.5743         estimate D2E/DX2                !
 ! A12   A(5,4,7)              107.163          estimate D2E/DX2                !
 ! A13   A(4,5,6)              118.7594         estimate D2E/DX2                !
 ! A14   A(4,5,8)              106.8666         estimate D2E/DX2                !
 ! A15   A(6,5,8)              134.374          estimate D2E/DX2                !
 ! A16   A(1,6,5)              119.1105         estimate D2E/DX2                !
 ! A17   A(1,6,16)             120.4966         estimate D2E/DX2                !
 ! A18   A(5,6,16)             120.3928         estimate D2E/DX2                !
 ! A19   A(4,7,9)              109.2874         estimate D2E/DX2                !
 ! A20   A(4,7,10)             125.4909         estimate D2E/DX2                !
 ! A21   A(9,7,10)             125.2217         estimate D2E/DX2                !
 ! A22   A(5,8,9)              107.125          estimate D2E/DX2                !
 ! A23   A(5,8,11)             127.0344         estimate D2E/DX2                !
 ! A24   A(9,8,11)             125.8405         estimate D2E/DX2                !
 ! A25   A(7,9,8)              109.5578         estimate D2E/DX2                !
 ! A26   A(7,9,12)             120.4645         estimate D2E/DX2                !
 ! A27   A(8,9,12)             129.9776         estimate D2E/DX2                !
 ! D1    D(6,1,2,3)             -0.0008         estimate D2E/DX2                !
 ! D2    D(6,1,2,13)          -179.9981         estimate D2E/DX2                !
 ! D3    D(15,1,2,3)           179.996          estimate D2E/DX2                !
 ! D4    D(15,1,2,13)           -0.0013         estimate D2E/DX2                !
 ! D5    D(2,1,6,5)             -0.0018         estimate D2E/DX2                !
 ! D6    D(2,1,6,16)           179.9965         estimate D2E/DX2                !
 ! D7    D(15,1,6,5)          -179.9986         estimate D2E/DX2                !
 ! D8    D(15,1,6,16)           -0.0003         estimate D2E/DX2                !
 ! D9    D(1,2,3,4)              0.002          estimate D2E/DX2                !
 ! D10   D(1,2,3,14)          -179.9968         estimate D2E/DX2                !
 ! D11   D(13,2,3,4)           179.9992         estimate D2E/DX2                !
 ! D12   D(13,2,3,14)            0.0005         estimate D2E/DX2                !
 ! D13   D(2,3,4,5)             -0.0005         estimate D2E/DX2                !
 ! D14   D(2,3,4,7)           -179.9911         estimate D2E/DX2                !
 ! D15   D(14,3,4,5)           179.9982         estimate D2E/DX2                !
 ! D16   D(14,3,4,7)             0.0076         estimate D2E/DX2                !
 ! D17   D(3,4,5,6)             -0.002          estimate D2E/DX2                !
 ! D18   D(3,4,5,8)           -179.9955         estimate D2E/DX2                !
 ! D19   D(7,4,5,6)            179.9905         estimate D2E/DX2                !
 ! D20   D(7,4,5,8)             -0.003          estimate D2E/DX2                !
 ! D21   D(3,4,7,9)           -179.98           estimate D2E/DX2                !
 ! D22   D(3,4,7,10)            -0.0649         estimate D2E/DX2                !
 ! D23   D(5,4,7,9)              0.0284         estimate D2E/DX2                !
 ! D24   D(5,4,7,10)           179.9434         estimate D2E/DX2                !
 ! D25   D(4,5,6,1)              0.0031         estimate D2E/DX2                !
 ! D26   D(4,5,6,16)          -179.9951         estimate D2E/DX2                !
 ! D27   D(8,5,6,1)            179.9944         estimate D2E/DX2                !
 ! D28   D(8,5,6,16)            -0.0038         estimate D2E/DX2                !
 ! D29   D(4,5,8,9)             -0.0234         estimate D2E/DX2                !
 ! D30   D(4,5,8,11)           179.9883         estimate D2E/DX2                !
 ! D31   D(6,5,8,9)            179.9846         estimate D2E/DX2                !
 ! D32   D(6,5,8,11)            -0.0037         estimate D2E/DX2                !
 ! D33   D(4,7,9,8)             -0.0444         estimate D2E/DX2                !
 ! D34   D(4,7,9,12)           179.9847         estimate D2E/DX2                !
 ! D35   D(10,7,9,8)          -179.9597         estimate D2E/DX2                !
 ! D36   D(10,7,9,12)            0.0693         estimate D2E/DX2                !
 ! D37   D(5,8,9,7)              0.0414         estimate D2E/DX2                !
 ! D38   D(5,8,9,12)          -179.9913         estimate D2E/DX2                !
 ! D39   D(11,8,9,7)          -179.9702         estimate D2E/DX2                !
 ! D40   D(11,8,9,12)           -0.0029         estimate D2E/DX2                !
 --------------------------------------------------------------------------------
 Trust Radius=3.00D-01 FncErr=1.00D-07 GrdErr=1.00D-06 EigMax=2.50D+02 EigMin=1.00D-04
 Number of steps in this run=     94 maximum allowed number of steps=    100.
 GradGradGradGradGradGradGradGradGradGradGradGradGradGradGradGradGradGrad

                          Input orientation:                          
 ---------------------------------------------------------------------
 Center     Atomic      Atomic             Coordinates (Angstroms)
 Number     Number       Type             X           Y           Z
 ---------------------------------------------------------------------
      1          6           0       -2.151063    0.689208    0.000088
      2          6           0       -2.127927   -0.715818    0.000075
      3          6           0       -0.932297   -1.413100   -0.000011
      4          6           0        0.246911   -0.670201   -0.000042
      5          6           0        0.248193    0.748299    0.000000
      6          6           0       -0.979474    1.423526    0.000032
      7          7           0        1.561774   -1.077592   -0.000285
      8          6           0        1.620133    1.162900   -0.000157
      9          6           0        2.382013    0.030806    0.000248
     10          1           0        1.876315   -2.030011    0.000438
     11          1           0        1.992173    2.173010   -0.000348
     12          1           0        3.452549   -0.082425    0.000408
     13          1           0       -3.061594   -1.262020    0.000088
     14          1           0       -0.917252   -2.495342   -0.000073
     15          1           0       -3.104203    1.200785    0.000090
     16          1           0       -1.009348    2.505421   -0.000015
 ---------------------------------------------------------------------
                    Distance matrix (angstroms):
                    1          2          3          4          5
     1  C    0.000000
     2  C    1.405216   0.000000
     3  C    2.430039   1.384100   0.000000
     4  C    2.756496   2.375276   1.393711   0.000000
     5  C    2.399984   2.790983   2.462763   1.418501   0.000000
     6  C    1.382694   2.428114   2.837018   2.426461   1.401106
     7  N    4.111781   3.707395   2.516536   1.376529   2.249305
     8  C    3.800829   4.192557   3.626386   2.290414   1.433218
     9  C    4.580641   4.571324   3.615178   2.247236   2.251218
    10  H    4.859416   4.214387   2.875566   2.122273   3.220216
    11  H    4.400917   5.031953   4.627387   3.336134   2.251948
    12  H    5.656491   5.616307   4.582311   3.259079   3.310287
    13  H    2.153220   1.081698   2.134650   3.361020   3.872476
    14  H    3.415208   2.152310   1.082347   2.164813   3.446661
    15  H    1.081752   2.150926   3.398466   3.838040   3.382795
    16  H    2.145261   3.409927   3.919278   3.415079   2.160761
                    6          7          8          9         10
     6  C    0.000000
     7  N    3.565604   0.000000
     8  C    2.612639   2.241252   0.000000
     9  C    3.638580   1.378890   1.364587   0.000000
    10  H    4.481345   1.003015   3.203172   2.121956   0.000000
    11  H    3.064704   3.278972   1.076446   2.177387   4.204618
    12  H    4.680888   2.136677   2.215532   1.076508   2.505515
    13  H    3.398144   4.627045   5.272457   5.595021   4.997275
    14  H    3.919362   2.855798   4.452085   4.155307   2.832058
    15  H    2.136372   5.192528   4.724488   5.609583   5.936632
    16  H    1.082307   4.410062   2.952378   4.198220   5.375611
                   11         12         13         14         15
    11  H    0.000000
    12  H    2.686947   0.000000
    13  H    6.110646   6.620083   0.000000
    14  H    5.500751   4.991726   2.473719   0.000000
    15  H    5.188282   6.681139   2.463174   4.294661   0.000000
    16  H    3.019872   5.158049   4.290143   5.001611   2.467892
                   16
    16  H    0.000000
 Stoichiometry    C8H7N
 Framework group  C1[X(C8H7N)]
 Deg. of freedom    42
 Full point group                 C1      NOp   1
 Largest Abelian subgroup         C1      NOp   1
 Largest concise Abelian subgroup C1      NOp   1
                         Standard orientation:                         
 ---------------------------------------------------------------------
 Center     Atomic      Atomic             Coordinates (Angstroms)
 Number     Number       Type             X           Y           Z
 ---------------------------------------------------------------------
      1          6           0       -2.151063    0.689208    0.000088
      2          6           0       -2.127927   -0.715818    0.000075
      3          6           0       -0.932297   -1.413100   -0.000011
      4          6           0        0.246911   -0.670201   -0.000042
      5          6           0        0.248193    0.748299    0.000000
      6          6           0       -0.979474    1.423526    0.000032
      7          7           0        1.561774   -1.077592   -0.000285
      8          6           0        1.620133    1.162900   -0.000157
      9          6           0        2.382013    0.030806    0.000248
     10          1           0        1.876315   -2.030011    0.000438
     11          1           0        1.992173    2.173010   -0.000348
     12          1           0        3.452549   -0.082425    0.000408
     13          1           0       -3.061594   -1.262020    0.000088
     14          1           0       -0.917252   -2.495342   -0.000073
     15          1           0       -3.104203    1.200785    0.000090
     16          1           0       -1.009348    2.505421   -0.000015
 ---------------------------------------------------------------------
 Rotational constants (GHZ):           3.9080822           1.6429452           1.1566805
 Standard basis: 6-31+G(d) (6D, 7F)
 There are   185 symmetry adapted cartesian basis functions of A   symmetry.
 There are   185 symmetry adapted basis functions of A   symmetry.
   185 basis functions,   316 primitive gaussians,   185 cartesian basis functions
    31 alpha electrons       31 beta electrons
       nuclear repulsion energy       401.3368668897 Hartrees.
 NAtoms=   16 NActive=   16 NUniq=   16 SFac= 1.00D+00 NAtFMM=   60 NAOKFM=F Big=F
 Integral buffers will be    131072 words long.
 Regular integral format.
 Two-electron integral symmetry is turned on.
 R6APFD:  NTU= -4 IXU= 1 FactS= 1.050
 Nuclear repulsion after empirical dispersion term =      401.3295037918 Hartrees.
 One-electron integrals computed using PRISM.
 NBasis=   185 RedAO= T EigKep=  1.26D-06  NBF=   185
 NBsUse=   185 1.00D-06 EigRej= -1.00D+00 NBFU=   185
 ExpMin= 4.38D-02 ExpMax= 4.17D+03 ExpMxC= 6.27D+02 IAcc=3 IRadAn=         5 AccDes= 0.00D+00
 Harris functional with IExCor= 3731 and IRadAn=       5 diagonalized for initial guess.
 HarFok:  IExCor= 3731 AccDes= 0.00D+00 IRadAn=         5 IDoV= 1 UseB2=F ITyADJ=14
 ICtDFT=  3500011 ScaDFX=  1.000000  1.000000  1.000000  1.000000
 FoFCou: FMM=F IPFlag=           0 FMFlag=      100000 FMFlg1=           0
         NFxFlg=           0 DoJE=T BraDBF=F KetDBF=T FulRan=T
         wScrn=  0.000000 ICntrl=       500 IOpCl=  0 I1Cent=   200000004 NGrid=           0
         NMat0=    1 NMatS0=      1 NMatT0=    0 NMatD0=    1 NMtDS0=    0 NMtDT0=    0
 Petite list used in FoFCou.
 Keep R1 ints in memory in canonical form, NReq=152071459.
 Requested convergence on RMS density matrix=1.00D-08 within 128 cycles.
 Requested convergence on MAX density matrix=1.00D-06.
 Requested convergence on             energy=1.00D-06.
 No special actions if energy rises.
 SCF Done:  E(RAPFD) =  -363.529671794     A.U. after   14 cycles
            NFock= 14  Conv=0.51D-08     -V/T= 2.0089
 DoSCS=F DFT=T ScalE2(SS,OS)=  1.000000  1.000000
 ExpMin= 4.38D-02 ExpMax= 4.17D+03 ExpMxC= 6.27D+02 IAcc=3 IRadAn=         5 AccDes= 0.00D+00
 HarFok:  IExCor=  205 AccDes= 0.00D+00 IRadAn=         5 IDoV=-2 UseB2=F ITyADJ=14
 ICtDFT= 12500011 ScaDFX=  1.000000  1.000000  1.000000  1.000000
 Range of M.O.s used for correlation:    10   185
 NBasis=   185 NAE=    31 NBE=    31 NFC=     9 NFV=     0
 NROrb=    176 NOA=    22 NOB=    22 NVA=   154 NVB=   154

 **** Warning!!: The largest alpha MO coefficient is  0.17258468D+03

 Orbital symmetries:
       Occupied  (A) (A) (A) (A) (A) (A) (A) (A) (A) (A) (A) (A)
                 (A) (A) (A) (A) (A) (A) (A) (A) (A) (A) (A) (A)
                 (A) (A) (A) (A) (A) (A) (A)
       Virtual   (A) (A) (A) (A) (A) (A) (A) (A) (A) (A) (A) (A)
                 (A) (A) (A) (A) (A) (A) (A) (A) (A) (A) (A) (A)
                 (A) (A) (A) (A) (A) (A) (A) (A) (A) (A) (A) (A)
                 (A) (A) (A) (A) (A) (A) (A) (A) (A) (A) (A) (A)
                 (A) (A) (A) (A) (A) (A) (A) (A) (A) (A) (A) (A)
                 (A) (A) (A) (A) (A) (A) (A) (A) (A) (A) (A) (A)
                 (A) (A) (A) (A) (A) (A) (A) (A) (A) (A) (A) (A)
                 (A) (A) (A) (A) (A) (A) (A) (A) (A) (A) (A) (A)
                 (A) (A) (A) (A) (A) (A) (A) (A) (A) (A) (A) (A)
                 (A) (A) (A) (A) (A) (A) (A) (A) (A) (A) (A) (A)
                 (A) (A) (A) (A) (A) (A) (A) (A) (A) (A) (A) (A)
                 (A) (A) (A) (A) (A) (A) (A) (A) (A) (A) (A) (A)
                 (A) (A) (A) (A) (A) (A) (A) (A) (A) (A)
    24 initial guesses have been made.
 Convergence on wavefunction:    0.000001000000000
 Iteration     1 Dimension    24 NMult     0 NNew     24
 CISAX will form    24 AO SS matrices at one time.
 New state      1 was old state      3
 New state      3 was old state      1
 New state      4 was old state      5
 New state      5 was old state      6
 New state      6 was old state      7
 Iteration     2 Dimension    36 NMult    24 NNew     12
 New state      1 was old state      3
 New state      3 was old state      1
 Iteration     3 Dimension    48 NMult    36 NNew     12
 Iteration     4 Dimension    60 NMult    48 NNew     12
 Iteration     5 Dimension    72 NMult    60 NNew     12
 Iteration     6 Dimension    84 NMult    72 NNew     12
 Iteration     7 Dimension    96 NMult    84 NNew     12
 Iteration     8 Dimension   108 NMult    96 NNew     12
 Iteration     9 Dimension   118 NMult   108 NNew     10
 Iteration    10 Dimension   122 NMult   118 NNew      4
 Iteration    11 Dimension   126 NMult   122 NNew      4
 ***********************************************************************
 Excited states from <AA,BB:AA,BB> singles matrix:
 ***********************************************************************
 
 Ground to excited state transition densities written to RWF  633
 Ground to excited state transition electric dipole moments (Au):
       state          X           Y           Z        Dip. S.      Osc.
         1        -0.5342      0.6272     -0.0002      0.6788      0.0807
         2        -0.5560     -0.0946     -0.0002      0.3181      0.0389
         3         0.0008     -0.0004     -0.1277      0.0163      0.0021
         4        -0.0004      0.0001     -0.1406      0.0198      0.0027
         5         0.0005     -0.0000      0.0190      0.0004      0.0001
         6         0.0007      0.0003      0.1050      0.0110      0.0016
 Ground to excited state transition velocity dipole moments (Au):
       state          X           Y           Z        Dip. S.      Osc.
         1         0.0864     -0.1211      0.0000      0.0221      0.0827
         2         0.0963      0.0179      0.0000      0.0096      0.0348
         3        -0.0001      0.0001      0.0158      0.0002      0.0009
         4         0.0001     -0.0000      0.0304      0.0009      0.0030
         5        -0.0001      0.0000     -0.0029      0.0000      0.0000
         6        -0.0001     -0.0000     -0.0224      0.0005      0.0016
 Ground to excited state transition magnetic dipole moments (Au):
       state          X           Y           Z
         1         0.0003     -0.0000      0.1804
         2        -0.0000     -0.0002     -0.0259
         3         0.1231     -0.0694      0.0001
         4         0.0530     -0.2349     -0.0000
         5         0.3122     -0.1306      0.0002
         6         0.0988      0.3650      0.0006
 Ground to excited state transition velocity quadrupole moments (Au):
       state          XX          YY          ZZ          XY          XZ          YZ
         1         0.1913     -0.1086      0.0099      0.0460      0.0001      0.0001
         2         0.0763     -0.1145      0.0253      0.0017      0.0001     -0.0000
         3        -0.0003      0.0001      0.0001      0.0000      0.0606      0.0546
         4        -0.0000      0.0000     -0.0000     -0.0000      0.1655     -0.0050
         5        -0.0002     -0.0000      0.0000      0.0002      0.1657      0.2635
         6         0.0001     -0.0001      0.0001      0.0003     -0.3240      0.0061
 <0|del|b> * <b|rxdel|0> + <0|del|b> * <b|delr+rdel|0>
 Rotatory Strengths (R) in cgs (10**-40 erg-esu-cm/Gauss)
       state          XX          YY          ZZ    R(velocity)    E-M Angle
         1         0.0432      0.0678      0.0223      0.0444       90.00
         2        -0.0130     -0.0049     -0.0017     -0.0065       90.00
         3        -0.0187     -0.0449     -0.0194     -0.0277       90.00
         4         0.0133      0.0081      0.0119      0.0111       90.00
         5        -0.0032     -0.1081     -0.0090     -0.0401       90.00
         6        -0.0783     -0.0361     -0.0252     -0.0465       90.00
 1/2[<0|r|b>*<b|rxdel|0> + (<0|rxdel|b>*<b|r|0>)*]
 Rotatory Strengths (R) in cgs (10**-40 erg-esu-cm/Gauss)
       state          XX          YY          ZZ     R(length)
         1         0.1083      0.0201      0.0193      0.0493
         2        -0.0021     -0.0147     -0.0029     -0.0065
         3        -0.0731     -0.0213      0.0080     -0.0288
         4         0.0163      0.0150     -0.0006      0.0102
         5        -0.1211     -0.0010     -0.0033     -0.0418
         6        -0.0504     -0.0647     -0.0421     -0.0524
  1/2[<0|del|b>*<b|r|0> + (<0|r|b>*<b|del|0>)*] (Au)
       state          X           Y           Z        Dip. S.   Osc.(frdel)
         1        -0.0461     -0.0760     -0.0000      0.1221      0.0814
         2        -0.0535     -0.0017     -0.0000      0.0552      0.0368
         3        -0.0000     -0.0000     -0.0020      0.0020      0.0013
         4        -0.0000     -0.0000     -0.0043      0.0043      0.0029
         5        -0.0000     -0.0000     -0.0001      0.0001      0.0000
         6        -0.0000     -0.0000     -0.0024      0.0024      0.0016

 Excitation energies and oscillator strengths:
 
 Excited State   1:      Singlet-A      4.8538 eV  255.44 nm  f=0.0807  <S**2>=0.000
      30 -> 32        -0.14553
      30 -> 34         0.15438
      31 -> 32         0.66078
 
 Excited State   2:      Singlet-A      4.9922 eV  248.36 nm  f=0.0389  <S**2>=0.000
      30 -> 32         0.56231
      31 -> 32         0.12547
      31 -> 34        -0.39945
 This state for optimization and/or second-order correction.
 Total Energy, E(TD-HF/TD-DFT) =  -363.346213289    
 Copying the excited state density for this state as the 1-particle RhoCI density.
 
 Excited State   3:      Singlet-A      5.1504 eV  240.73 nm  f=0.0021  <S**2>=0.000
      31 -> 33         0.70305
 
 Excited State   4:      Singlet-A      5.6253 eV  220.40 nm  f=0.0027  <S**2>=0.000
      30 -> 33         0.68846
      31 -> 35         0.12839
 
 Excited State   5:      Singlet-A      5.7301 eV  216.37 nm  f=0.0001  <S**2>=0.000
      30 -> 33        -0.13100
      31 -> 35         0.68832
 
 Excited State   6:      Singlet-A      5.8466 eV  212.06 nm  f=0.0016  <S**2>=0.000
      31 -> 36         0.69611
 SavETr:  write IOETrn=   770 NScale= 10 NData=  16 NLR=1 NState=    6 LETran=     118.
          IDoAtm=1111111111111111
          Differentiating once with respect to electric field.
                with respect to dipole field.
          Differentiating once with respect to nuclear coordinates.
 Keep R1 ints in memory in canonical form, NReq=152083851.
          There are     1 degrees of freedom in the 1st order CPHF.  IDoFFX=0 NUNeed=     1.
 LinEq1:  Iter=  0 NonCon=     1 RMS=5.50D-03 Max=1.69D-01 NDo=     1
 AX will form     1 AO Fock derivatives at one time.
 LinEq1:  Iter=  1 NonCon=     1 RMS=2.29D-03 Max=6.36D-02 NDo=     1
 LinEq1:  Iter=  2 NonCon=     1 RMS=1.99D-03 Max=6.90D-02 NDo=     1
 LinEq1:  Iter=  3 NonCon=     1 RMS=7.85D-04 Max=1.63D-02 NDo=     1
 LinEq1:  Iter=  4 NonCon=     1 RMS=4.17D-04 Max=1.44D-02 NDo=     1
 LinEq1:  Iter=  5 NonCon=     1 RMS=2.14D-04 Max=4.15D-03 NDo=     1
 LinEq1:  Iter=  6 NonCon=     1 RMS=1.33D-04 Max=3.46D-03 NDo=     1
 LinEq1:  Iter=  7 NonCon=     1 RMS=5.56D-05 Max=1.03D-03 NDo=     1
 LinEq1:  Iter=  8 NonCon=     1 RMS=3.79D-05 Max=9.51D-04 NDo=     1
 LinEq1:  Iter=  9 NonCon=     1 RMS=1.17D-05 Max=2.78D-04 NDo=     1
 LinEq1:  Iter= 10 NonCon=     1 RMS=9.11D-06 Max=2.12D-04 NDo=     1
 LinEq1:  Iter= 11 NonCon=     1 RMS=2.96D-06 Max=6.96D-05 NDo=     1
 LinEq1:  Iter= 12 NonCon=     1 RMS=1.90D-06 Max=3.95D-05 NDo=     1
 LinEq1:  Iter= 13 NonCon=     1 RMS=6.08D-07 Max=7.05D-06 NDo=     1
 LinEq1:  Iter= 14 NonCon=     1 RMS=2.06D-07 Max=3.99D-06 NDo=     1
 LinEq1:  Iter= 15 NonCon=     1 RMS=1.19D-07 Max=1.91D-06 NDo=     1
 LinEq1:  Iter= 16 NonCon=     1 RMS=2.50D-08 Max=5.01D-07 NDo=     1
 LinEq1:  Iter= 17 NonCon=     1 RMS=1.15D-08 Max=2.92D-07 NDo=     1
 LinEq1:  Iter= 18 NonCon=     1 RMS=5.35D-09 Max=1.06D-07 NDo=     1
 LinEq1:  Iter= 19 NonCon=     1 RMS=1.05D-09 Max=1.68D-08 NDo=     1
 LinEq1:  Iter= 20 NonCon=     1 RMS=1.87D-10 Max=2.68D-09 NDo=     1
 LinEq1:  Iter= 21 NonCon=     0 RMS=5.83D-11 Max=6.71D-10 NDo=     1
 Linear equations converged to 1.000D-10 1.000D-09 after    21 iterations.
 End of Minotr F.D. properties file   721 does not exist.
 End of Minotr F.D. properties file   722 does not exist.
 End of Minotr F.D. properties file   788 does not exist.

 **********************************************************************

            Population analysis using the CI Density.

 **********************************************************************

 Orbital symmetries:
       Occupied  (A) (A) (A) (A) (A) (A) (A) (A) (A) (A) (A) (A)
                 (A) (A) (A) (A) (A) (A) (A) (A) (A) (A) (A) (A)
                 (A) (A) (A) (A) (A) (A) (A)
       Virtual   (A) (A) (A) (A) (A) (A) (A) (A) (A) (A) (A) (A)
                 (A) (A) (A) (A) (A) (A) (A) (A) (A) (A) (A) (A)
                 (A) (A) (A) (A) (A) (A) (A) (A) (A) (A) (A) (A)
                 (A) (A) (A) (A) (A) (A) (A) (A) (A) (A) (A) (A)
                 (A) (A) (A) (A) (A) (A) (A) (A) (A) (A) (A) (A)
                 (A) (A) (A) (A) (A) (A) (A) (A) (A) (A) (A) (A)
                 (A) (A) (A) (A) (A) (A) (A) (A) (A) (A) (A) (A)
                 (A) (A) (A) (A) (A) (A) (A) (A) (A) (A) (A) (A)
                 (A) (A) (A) (A) (A) (A) (A) (A) (A) (A) (A) (A)
                 (A) (A) (A) (A) (A) (A) (A) (A) (A) (A) (A) (A)
                 (A) (A) (A) (A) (A) (A) (A) (A) (A) (A) (A) (A)
                 (A) (A) (A) (A) (A) (A) (A) (A) (A) (A) (A) (A)
                 (A) (A) (A) (A) (A) (A) (A) (A) (A) (A)
 The electronic state is 1-A.
 Alpha  occ. eigenvalues --  -14.42116 -10.24728 -10.24538 -10.21513 -10.21124
 Alpha  occ. eigenvalues --  -10.20971 -10.20964 -10.20459 -10.20233  -1.00531
 Alpha  occ. eigenvalues --   -0.85993  -0.80223  -0.75386  -0.73534  -0.64053
 Alpha  occ. eigenvalues --   -0.61066  -0.59700  -0.55445  -0.49596  -0.48358
 Alpha  occ. eigenvalues --   -0.44944  -0.44071  -0.43528  -0.42235  -0.40260
 Alpha  occ. eigenvalues --   -0.36507  -0.34616  -0.34440  -0.28962  -0.23270
 Alpha  occ. eigenvalues --   -0.21571
 Alpha virt. eigenvalues --   -0.01450   0.00674   0.02216   0.02535   0.03119
 Alpha virt. eigenvalues --    0.04642   0.04740   0.05114   0.06779   0.06958
 Alpha virt. eigenvalues --    0.07535   0.07574   0.09470   0.09778   0.11597
 Alpha virt. eigenvalues --    0.11618   0.12036   0.13503   0.14424   0.14790
 Alpha virt. eigenvalues --    0.16304   0.16616   0.17487   0.17560   0.17972
 Alpha virt. eigenvalues --    0.18836   0.19544   0.19808   0.20572   0.20708
 Alpha virt. eigenvalues --    0.20950   0.21126   0.22700   0.23282   0.23955
 Alpha virt. eigenvalues --    0.24480   0.24621   0.25417   0.26478   0.26898
 Alpha virt. eigenvalues --    0.27957   0.28108   0.28675   0.30499   0.30996
 Alpha virt. eigenvalues --    0.31787   0.32495   0.34091   0.35972   0.37538
 Alpha virt. eigenvalues --    0.38716   0.40792   0.44336   0.45880   0.52305
 Alpha virt. eigenvalues --    0.59069   0.63576   0.68540   0.68545   0.71084
 Alpha virt. eigenvalues --    0.72737   0.73262   0.74143   0.74850   0.75360
 Alpha virt. eigenvalues --    0.76481   0.76916   0.78955   0.80416   0.81192
 Alpha virt. eigenvalues --    0.82598   0.86526   0.90565   0.91282   0.92446
 Alpha virt. eigenvalues --    0.94746   0.95472   0.96376   0.97155   0.99509
 Alpha virt. eigenvalues --    1.01450   1.04191   1.05852   1.07546   1.10420
 Alpha virt. eigenvalues --    1.12291   1.12628   1.18074   1.18907   1.21467
 Alpha virt. eigenvalues --    1.23435   1.24005   1.26197   1.32595   1.32799
 Alpha virt. eigenvalues --    1.34642   1.37862   1.42025   1.42708   1.46206
 Alpha virt. eigenvalues --    1.46614   1.47310   1.50411   1.50979   1.54906
 Alpha virt. eigenvalues --    1.59927   1.65966   1.79628   1.85454   1.89390
 Alpha virt. eigenvalues --    1.90044   1.93253   1.95359   2.00581   2.00851
 Alpha virt. eigenvalues --    2.01429   2.07432   2.11105   2.15311   2.18336
 Alpha virt. eigenvalues --    2.18394   2.20977   2.25871   2.27065   2.27586
 Alpha virt. eigenvalues --    2.29735   2.32624   2.39172   2.41957   2.45856
 Alpha virt. eigenvalues --    2.56084   2.56993   2.64994   2.67159   2.68190
 Alpha virt. eigenvalues --    2.71345   2.74992   2.82362   2.86093   2.87213
 Alpha virt. eigenvalues --    2.96921   2.99410   3.12760   3.25812   3.46396
 Alpha virt. eigenvalues --    4.17079   4.28241   4.31217   4.34687   4.38268
 Alpha virt. eigenvalues --    4.41812   4.50151   4.54072   4.81069
          Condensed to atoms (all electrons):
               1          2          3          4          5          6
     1  C    6.059955   0.207464   0.285995  -0.695322   0.101738  -0.353970
     2  C    0.207464   6.165399  -0.124001   0.362724  -0.983451   0.860307
     3  C    0.285995  -0.124001  13.509611  -2.013302  -3.708059  -3.344154
     4  C   -0.695322   0.362724  -2.013302  13.601163  -4.255618  -0.661054
     5  C    0.101738  -0.983451  -3.708059  -4.255618  15.078506  -0.193198
     6  C   -0.353970   0.860307  -3.344154  -0.661054  -0.193198  13.283991
     7  N   -0.040853   0.004389  -0.589529  -0.457844   1.015100   0.197441
     8  C    0.157611  -0.316463   3.261698   1.816044  -4.625788  -4.137657
     9  C   -0.085347   0.029409  -1.204906  -0.681215   1.785343   1.057633
    10  H   -0.002060  -0.010169  -0.139539  -0.065275   0.175854   0.026472
    11  H    0.002279   0.001356   0.002659   0.025577   0.004108   0.006957
    12  H    0.001335   0.000303   0.042802   0.117020  -0.128964  -0.025802
    13  H    0.030068   0.246044   0.022039   0.000777   0.017379  -0.011031
    14  H    0.007566   0.062256   0.199734   0.053214  -0.004032  -0.019847
    15  H    0.269574   0.016688   0.019069  -0.021085   0.029466  -0.014426
    16  H    0.035397   0.006038  -0.024423   0.016819   0.087515   0.195183
               7          8          9         10         11         12
     1  C   -0.040853   0.157611  -0.085347  -0.002060   0.002279   0.001335
     2  C    0.004389  -0.316463   0.029409  -0.010169   0.001356   0.000303
     3  C   -0.589529   3.261698  -1.204906  -0.139539   0.002659   0.042802
     4  C   -0.457844   1.816044  -0.681215  -0.065275   0.025577   0.117020
     5  C    1.015100  -4.625788   1.785343   0.175854   0.004108  -0.128964
     6  C    0.197441  -4.137657   1.057633   0.026472   0.006957  -0.025802
     7  N    7.337348  -0.825670   0.591314   0.276950   0.006048  -0.061726
     8  C   -0.825670  12.180886  -1.937147  -0.007188   0.268749   0.074108
     9  C    0.591314  -1.937147   6.453328  -0.018261  -0.015607   0.293026
    10  H    0.276950  -0.007188  -0.018261   0.324025  -0.000086  -0.002242
    11  H    0.006048   0.268749  -0.015607  -0.000086   0.473969  -0.000832
    12  H   -0.061726   0.074108   0.293026  -0.002242  -0.000832   0.465906
    13  H   -0.000497   0.001158   0.001032  -0.000002   0.000000  -0.000000
    14  H   -0.009793  -0.000020   0.004639   0.001987   0.000002   0.000002
    15  H    0.000334   0.008084  -0.000115  -0.000000  -0.000002  -0.000000
    16  H   -0.000944  -0.025355   0.003979   0.000004   0.001342  -0.000001
              13         14         15         16
     1  C    0.030068   0.007566   0.269574   0.035397
     2  C    0.246044   0.062256   0.016688   0.006038
     3  C    0.022039   0.199734   0.019069  -0.024423
     4  C    0.000777   0.053214  -0.021085   0.016819
     5  C    0.017379  -0.004032   0.029466   0.087515
     6  C   -0.011031  -0.019847  -0.014426   0.195183
     7  N   -0.000497  -0.009793   0.000334  -0.000944
     8  C    0.001158  -0.000020   0.008084  -0.025355
     9  C    0.001032   0.004639  -0.000115   0.003979
    10  H   -0.000002   0.001987  -0.000000   0.000004
    11  H    0.000000   0.000002  -0.000002   0.001342
    12  H   -0.000000   0.000002  -0.000000  -0.000001
    13  H    0.491858  -0.004026  -0.003994  -0.000142
    14  H   -0.004026   0.501640  -0.000143   0.000017
    15  H   -0.003994  -0.000143   0.491471  -0.003923
    16  H   -0.000142   0.000017  -0.003923   0.498703
 Mulliken charges:
               1
     1  C    0.018571
     2  C   -0.528292
     3  C   -0.195696
     4  C   -1.142623
     5  C    1.604099
     6  C   -0.866844
     7  N   -0.442068
     8  C    0.106950
     9  C   -0.277107
    10  H    0.439530
    11  H    0.223481
    12  H    0.225064
    13  H    0.209337
    14  H    0.206804
    15  H    0.209001
    16  H    0.209791
 Sum of Mulliken charges =  -0.00000
 Mulliken charges with hydrogens summed into heavy atoms:
               1
     1  C    0.227572
     2  C   -0.318955
     3  C    0.011108
     4  C   -1.142623
     5  C    1.604099
     6  C   -0.657053
     7  N   -0.002537
     8  C    0.330431
     9  C   -0.052042
 Electronic spatial extent (au):  <R**2>=           1006.7944
 Charge=             -0.0000 electrons
 Dipole moment (field-independent basis, Debye):
    X=              2.2140    Y=             -1.4183    Z=              0.0001  Tot=              2.6293
 Quadrupole moment (field-independent basis, Debye-Ang):
   XX=            -45.3718   YY=            -45.8260   ZZ=            -59.5875
   XY=             -2.8788   XZ=              0.0011   YZ=             -0.0015
 Traceless Quadrupole moment (field-independent basis, Debye-Ang):
   XX=              4.8900   YY=              4.4357   ZZ=             -9.3257
   XY=             -2.8788   XZ=              0.0011   YZ=             -0.0015
 Octapole moment (field-independent basis, Debye-Ang**2):
  XXX=             17.5766  YYY=             -9.3691  ZZZ=             -0.0065  XYY=             11.1748
  XXY=             -7.0281  XXZ=              0.0014  XZZ=              3.0424  YZZ=             -1.3482
  YYZ=             -0.0036  XYZ=             -0.0045
 Hexadecapole moment (field-independent basis, Debye-Ang**3):
 XXXX=           -827.0321 YYYY=           -380.3756 ZZZZ=            -79.9802 XXXY=            -19.1591
 XXXZ=              0.0008 YYYX=            -18.4841 YYYZ=             -0.0002 ZZZX=             -0.0029
 ZZZY=              0.0054 XXYY=           -196.3493 XXZZ=           -196.3829 YYZZ=            -99.3784
 XXYZ=             -0.0032 YYXZ=              0.0052 ZZXY=             -3.2300
 N-N= 4.013295037918D+02 E-N=-1.645041862873D+03  KE= 3.605111815934D+02
 R6APFD:  NTU= -4 IXU= 1 FactS= 1.050
 Calling FoFJK, ICntrl=  10005127 FMM=F ISym2X=0 I1Cent= 0 IOpClX= 0 NMat=1 NMatS=1 NMatT=0.
 ***** Axes restored to original set *****
 -------------------------------------------------------------------
 Center     Atomic                   Forces (Hartrees/Bohr)
 Number     Number              X              Y              Z
 -------------------------------------------------------------------
      1        6          -0.023071195    0.002738517   -0.000002221
      2        6          -0.017177589   -0.008776477    0.000001271
      3        6           0.005664024   -0.028287236    0.000003374
      4        6           0.016470435   -0.015437436   -0.000013137
      5        6           0.018532966    0.024540506   -0.000026257
      6        6           0.016553660    0.029919426    0.000002774
      7        7          -0.010035452   -0.001451760    0.000029134
      8        6          -0.025508758    0.010015332    0.000031222
      9        6           0.018156622   -0.011532722   -0.000040588
     10        1           0.001237403   -0.004510629    0.000008310
     11        1           0.001015240    0.003984431    0.000007725
     12        1           0.003846383   -0.000672428   -0.000001995
     13        1          -0.003174234   -0.001907413    0.000000710
     14        1           0.000274615   -0.003333038   -0.000001120
     15        1          -0.003355203    0.001586030   -0.000000465
     16        1           0.000571084    0.003124898    0.000001262
 -------------------------------------------------------------------
 Cartesian Forces:  Max     0.029919426 RMS     0.010980952

 GradGradGradGradGradGradGradGradGradGradGradGradGradGradGradGradGradGrad
 Berny optimization.
 FormGI is forming the generalized inverse of G from B-inverse, IUseBI=4.
 Internal  Forces:  Max     0.034404738 RMS     0.007797007
 Search for a local minimum.
 Step number   1 out of a maximum of   94
 All quantities printed in internal units (Hartrees-Bohrs-Radians)
 Mixed Optimization -- RFO/linear search
 Second derivative matrix not updated -- first step.
 ITU=  0
     Eigenvalues ---    0.01853   0.01931   0.01986   0.02012   0.02070
     Eigenvalues ---    0.02113   0.02148   0.02153   0.02172   0.02209
     Eigenvalues ---    0.02233   0.02248   0.02338   0.16000   0.16000
     Eigenvalues ---    0.16000   0.16000   0.16000   0.16000   0.16000
     Eigenvalues ---    0.22000   0.22188   0.22662   0.24011   0.24651
     Eigenvalues ---    0.35712   0.35717   0.35783   0.35790   0.36420
     Eigenvalues ---    0.36427   0.37009   0.38432   0.42633   0.43465
     Eigenvalues ---    0.45769   0.46692   0.47162   0.47468   0.47567
     Eigenvalues ---    0.48125   0.50955
 RFO step:  Lambda=-1.10816905D-02 EMin= 1.85287394D-02
 Linear search not attempted -- first point.
 Iteration  1 RMS(Cart)=  0.02455157 RMS(Int)=  0.00011297
 Iteration  2 RMS(Cart)=  0.00018528 RMS(Int)=  0.00001368
 Iteration  3 RMS(Cart)=  0.00000002 RMS(Int)=  0.00001368
 Variable       Old X    -DE/DX   Delta X   Delta X   Delta X     New X
                                 (Linear)    (Quad)   (Total)
    R1        2.65547   0.02657   0.00000   0.05871   0.05869   2.71417
    R2        2.61291   0.03440   0.00000   0.06967   0.06967   2.68258
    R3        2.04421   0.00371   0.00000   0.01005   0.01005   2.05426
    R4        2.61557   0.02539   0.00000   0.05161   0.05159   2.66716
    R5        2.04411   0.00370   0.00000   0.01004   0.01004   2.05415
    R6        2.63373   0.02038   0.00000   0.04216   0.04216   2.67589
    R7        2.04534   0.00334   0.00000   0.00906   0.00906   2.05440
    R8        2.68058   0.03113   0.00000   0.06954   0.06953   2.75011
    R9        2.60126  -0.00196   0.00000  -0.00427  -0.00428   2.59699
   R10        2.64771   0.01355   0.00000   0.02883   0.02885   2.67656
   R11        2.70839  -0.01007   0.00000  -0.02411  -0.02411   2.68427
   R12        2.04526   0.00311   0.00000   0.00844   0.00844   2.05370
   R13        2.60573   0.00884   0.00000   0.01788   0.01790   2.62363
   R14        1.89542   0.00467   0.00000   0.00968   0.00968   1.90510
   R15        2.57870   0.02361   0.00000   0.04505   0.04507   2.62377
   R16        2.03419   0.00409   0.00000   0.01090   0.01090   2.04508
   R17        2.03430   0.00390   0.00000   0.01038   0.01038   2.04469
    A1        2.11420   0.00218   0.00000   0.01217   0.01214   2.12635
    A2        2.07986  -0.00128   0.00000  -0.00721  -0.00720   2.07266
    A3        2.08912  -0.00090   0.00000  -0.00495  -0.00494   2.08418
    A4        2.11523   0.00116   0.00000   0.00731   0.00727   2.12250
    A5        2.08365  -0.00053   0.00000  -0.00339  -0.00337   2.08028
    A6        2.08430  -0.00062   0.00000  -0.00391  -0.00389   2.08041
    A7        2.05144  -0.00492   0.00000  -0.02157  -0.02159   2.02985
    A8        2.11267   0.00270   0.00000   0.01215   0.01216   2.12482
    A9        2.11908   0.00223   0.00000   0.00942   0.00943   2.12851
   A10        2.13389   0.00402   0.00000   0.01452   0.01454   2.14843
   A11        2.27895  -0.00395   0.00000  -0.01288  -0.01287   2.26608
   A12        1.87035  -0.00006   0.00000  -0.00164  -0.00167   1.86868
   A13        2.07274   0.00327   0.00000   0.01158   0.01162   2.08436
   A14        1.86517  -0.00154   0.00000  -0.00663  -0.00667   1.85850
   A15        2.34527  -0.00173   0.00000  -0.00495  -0.00495   2.34032
   A16        2.07887  -0.00570   0.00000  -0.02400  -0.02399   2.05488
   A17        2.10306   0.00352   0.00000   0.01593   0.01592   2.11898
   A18        2.10125   0.00218   0.00000   0.00807   0.00807   2.10932
   A19        1.90743   0.00145   0.00000   0.00548   0.00549   1.91292
   A20        2.19023  -0.00095   0.00000  -0.00406  -0.00407   2.18616
   A21        2.18553  -0.00050   0.00000  -0.00141  -0.00142   2.18411
   A22        1.86968   0.00227   0.00000   0.01062   0.01064   1.88032
   A23        2.21717  -0.00157   0.00000  -0.00783  -0.00784   2.20933
   A24        2.19633  -0.00070   0.00000  -0.00278  -0.00279   2.19354
   A25        1.91215  -0.00212   0.00000  -0.00783  -0.00778   1.90436
   A26        2.10250   0.00079   0.00000   0.00234   0.00232   2.10483
   A27        2.26854   0.00133   0.00000   0.00548   0.00546   2.27400
    D1       -0.00001  -0.00000   0.00000  -0.00003  -0.00003  -0.00004
    D2       -3.14156  -0.00000   0.00000  -0.00006  -0.00006   3.14157
    D3        3.14152   0.00000   0.00000   0.00003   0.00003   3.14156
    D4       -0.00002   0.00000   0.00000   0.00001   0.00001  -0.00001
    D5       -0.00003   0.00000   0.00000   0.00010   0.00010   0.00007
    D6        3.14153   0.00000   0.00000   0.00009   0.00009  -3.14156
    D7       -3.14157   0.00000   0.00000   0.00004   0.00004  -3.14153
    D8       -0.00001   0.00000   0.00000   0.00003   0.00003   0.00002
    D9        0.00003  -0.00000   0.00000  -0.00005  -0.00005  -0.00002
   D10       -3.14154  -0.00000   0.00000  -0.00001  -0.00001  -3.14155
   D11        3.14158  -0.00000   0.00000  -0.00003  -0.00003   3.14155
   D12        0.00001   0.00000   0.00000   0.00002   0.00002   0.00003
   D13       -0.00001   0.00000   0.00000   0.00007   0.00007   0.00006
   D14       -3.14144  -0.00000   0.00000  -0.00002  -0.00002  -3.14146
   D15        3.14156   0.00000   0.00000   0.00002   0.00002   3.14158
   D16        0.00013  -0.00000   0.00000  -0.00006  -0.00006   0.00007
   D17       -0.00004   0.00000   0.00000   0.00000   0.00000  -0.00003
   D18       -3.14151  -0.00000   0.00000  -0.00015  -0.00015   3.14152
   D19        3.14143   0.00000   0.00000   0.00007   0.00007   3.14150
   D20       -0.00005  -0.00000   0.00000  -0.00008  -0.00008  -0.00013
   D21       -3.14124  -0.00001   0.00000  -0.00024  -0.00025  -3.14149
   D22       -0.00113   0.00000   0.00000   0.00005   0.00004  -0.00109
   D23        0.00049  -0.00001   0.00000  -0.00032  -0.00033   0.00017
   D24        3.14060   0.00000   0.00000  -0.00003  -0.00003   3.14057
   D25        0.00005  -0.00000   0.00000  -0.00009  -0.00009  -0.00003
   D26       -3.14151  -0.00000   0.00000  -0.00008  -0.00008  -3.14158
   D27        3.14150   0.00000   0.00000   0.00011   0.00011  -3.14158
   D28       -0.00007   0.00000   0.00000   0.00012   0.00012   0.00006
   D29       -0.00041   0.00001   0.00000   0.00045   0.00045   0.00004
   D30        3.14139   0.00001   0.00000   0.00017   0.00017   3.14155
   D31        3.14132   0.00001   0.00000   0.00027   0.00027   3.14159
   D32       -0.00006  -0.00000   0.00000  -0.00002  -0.00002  -0.00008
   D33       -0.00077   0.00002   0.00000   0.00063   0.00063  -0.00015
   D34        3.14133   0.00001   0.00000   0.00019   0.00019   3.14151
   D35       -3.14089   0.00001   0.00000   0.00034   0.00034  -3.14055
   D36        0.00121  -0.00000   0.00000  -0.00010  -0.00010   0.00111
   D37        0.00072  -0.00002   0.00000  -0.00066  -0.00066   0.00006
   D38       -3.14144  -0.00000   0.00000  -0.00017  -0.00017   3.14158
   D39       -3.14107  -0.00001   0.00000  -0.00038  -0.00038  -3.14145
   D40       -0.00005   0.00000   0.00000   0.00012   0.00012   0.00007
         Item               Value     Threshold  Converged?
 Maximum Force            0.034405     0.000450     NO 
 RMS     Force            0.007797     0.000300     NO 
 Maximum Displacement     0.097183     0.001800     NO 
 RMS     Displacement     0.024547     0.001200     NO 
 Predicted change in Energy=-5.678514D-03
 GradGradGradGradGradGradGradGradGradGradGradGradGradGradGradGradGradGrad

                          Input orientation:                          
 ---------------------------------------------------------------------
 Center     Atomic      Atomic             Coordinates (Angstroms)
 Number     Number       Type             X           Y           Z
 ---------------------------------------------------------------------
      1          6           0       -2.169341    0.702072   -0.000003
      2          6           0       -2.145859   -0.734012    0.000036
      3          6           0       -0.931929   -1.454027    0.000044
      4          6           0        0.255314   -0.682294   -0.000013
      5          6           0        0.257123    0.772999   -0.000008
      6          6           0       -0.975668    1.470380    0.000017
      7          7           0        1.568556   -1.087265   -0.000162
      8          6           0        1.619694    1.174368    0.000018
      9          6           0        2.399064    0.025304   -0.000030
     10          1           0        1.882079   -2.045409    0.000640
     11          1           0        1.992882    2.190199   -0.000005
     12          1           0        3.474852   -0.090479   -0.000042
     13          1           0       -3.086019   -1.279620    0.000040
     14          1           0       -0.911625   -2.540979    0.000031
     15          1           0       -3.130785    1.209361   -0.000042
     16          1           0       -1.001434    2.556848    0.000013
 ---------------------------------------------------------------------
                    Distance matrix (angstroms):
                    1          2          3          4          5
     1  C    0.000000
     2  C    1.436275   0.000000
     3  C    2.485951   1.411400   0.000000
     4  C    2.792028   2.401730   1.416021   0.000000
     5  C    2.427501   2.836443   2.524577   1.455295   0.000000
     6  C    1.419561   2.495735   2.924734   2.479783   1.416373
     7  N    4.144104   3.731175   2.527239   1.374266   2.276058
     8  C    3.818358   4.221529   3.663228   2.304067   1.420457
     9  C    4.618261   4.607916   3.644713   2.257512   2.268691
    10  H    4.895167   4.236042   2.875478   2.122369   3.253293
    11  H    4.420252   5.067562   4.672783   3.357136   2.240829
    12  H    5.699566   5.657431   4.612914   3.273480   3.331573
    13  H    2.183438   1.087009   2.161139   3.394304   3.922989
    14  H    3.478395   2.188256   1.087142   2.194643   3.514033
    15  H    1.087068   2.178710   3.453782   3.878663   3.415894
    16  H    2.191850   3.484174   4.011477   3.474400   2.183136
                    6          7          8          9         10
     6  C    0.000000
     7  N    3.607579   0.000000
     8  C    2.612188   2.262211   0.000000
     9  C    3.671111   1.388364   1.388439   0.000000
    10  H    4.530728   1.008136   3.230450   2.134275   0.000000
    11  H    3.054575   3.304819   1.082212   2.202670   4.237057
    12  H    4.716292   2.151174   2.245317   1.082001   2.521642
    13  H    3.466422   4.658547   5.307145   5.638170   5.026772
    14  H    4.011871   2.874818   4.495707   4.188851   2.837318
    15  H    2.170867   5.230516   4.750608   5.655194   5.976817
    16  H    1.086773   4.459194   2.963370   4.239351   5.430969
                   11         12         13         14         15
    11  H    0.000000
    12  H    2.719876   0.000000
    13  H    6.151006   6.667764   0.000000
    14  H    5.551595   5.024553   2.513765   0.000000
    15  H    5.216704   6.732312   2.489384   4.357721   0.000000
    16  H    3.016680   5.200526   4.366232   5.098619   2.519893
                   16
    16  H    0.000000
 Stoichiometry    C8H7N
 Framework group  C1[X(C8H7N)]
 Deg. of freedom    42
 Full point group                 C1      NOp   1
 Largest Abelian subgroup         C1      NOp   1
 Largest concise Abelian subgroup C1      NOp   1
                         Standard orientation:                         
 ---------------------------------------------------------------------
 Center     Atomic      Atomic             Coordinates (Angstroms)
 Number     Number       Type             X           Y           Z
 ---------------------------------------------------------------------
      1          6           0       -2.170585    0.700118   -0.000001
      2          6           0       -2.146214   -0.735951    0.000038
      3          6           0       -0.931838   -1.455214    0.000046
      4          6           0        0.254927   -0.682746   -0.000011
      5          6           0        0.255834    0.772548   -0.000006
      6          6           0       -0.977388    1.469165    0.000019
      7          7           0        1.568419   -1.086904   -0.000160
      8          6           0        1.618157    1.174760    0.000020
      9          6           0        2.398238    0.026180   -0.000028
     10          1           0        1.882536   -2.044853    0.000642
     11          1           0        1.990715    2.190823   -0.000003
     12          1           0        3.474098   -0.088937   -0.000040
     13          1           0       -3.086035   -1.282142    0.000042
     14          1           0       -0.910860   -2.542154    0.000033
     15          1           0       -3.132343    1.206812   -0.000040
     16          1           0       -1.003827    2.555617    0.000015
 ---------------------------------------------------------------------
 Rotational constants (GHZ):           3.7479583           1.6239186           1.1330080
 Standard basis: 6-31+G(d) (6D, 7F)
 There are   185 symmetry adapted cartesian basis functions of A   symmetry.
 There are   185 symmetry adapted basis functions of A   symmetry.
   185 basis functions,   316 primitive gaussians,   185 cartesian basis functions
    31 alpha electrons       31 beta electrons
       nuclear repulsion energy       396.6885279979 Hartrees.
 NAtoms=   16 NActive=   16 NUniq=   16 SFac= 1.00D+00 NAtFMM=   60 NAOKFM=F Big=F
 Integral buffers will be    131072 words long.
 Regular integral format.
 Two-electron integral symmetry is turned on.
 R6APFD:  NTU= -4 IXU= 1 FactS= 1.050
 Nuclear repulsion after empirical dispersion term =      396.6809514440 Hartrees.
 One-electron integrals computed using PRISM.
 NBasis=   185 RedAO= T EigKep=  1.47D-06  NBF=   185
 NBsUse=   185 1.00D-06 EigRej= -1.00D+00 NBFU=   185
 Initial guess from the checkpoint file:  "FuncsAPFD-V-2nd.chk"
 B after Tr=     0.000000   -0.000000   -0.000000
         Rot=    1.000000    0.000004    0.000001   -0.000274 Ang=   0.03 deg.
 ExpMin= 4.38D-02 ExpMax= 4.17D+03 ExpMxC= 6.27D+02 IAcc=3 IRadAn=         5 AccDes= 0.00D+00
 Harris functional with IExCor= 3731 and IRadAn=       5 diagonalized for initial guess.
 HarFok:  IExCor= 3731 AccDes= 0.00D+00 IRadAn=         5 IDoV= 1 UseB2=F ITyADJ=14
 ICtDFT=  3500011 ScaDFX=  1.000000  1.000000  1.000000  1.000000
 FoFCou: FMM=F IPFlag=           0 FMFlag=      100000 FMFlg1=           0
         NFxFlg=           0 DoJE=T BraDBF=F KetDBF=T FulRan=T
         wScrn=  0.000000 ICntrl=       500 IOpCl=  0 I1Cent=   200000004 NGrid=           0
         NMat0=    1 NMatS0=      1 NMatT0=    0 NMatD0=    1 NMtDS0=    0 NMtDT0=    0
 Petite list used in FoFCou.
 Keep R1 ints in memory in canonical form, NReq=152071459.
 Requested convergence on RMS density matrix=1.00D-08 within 128 cycles.
 Requested convergence on MAX density matrix=1.00D-06.
 Requested convergence on             energy=1.00D-06.
 No special actions if energy rises.
 SCF Done:  E(RAPFD) =  -363.526041517     A.U. after   12 cycles
            NFock= 12  Conv=0.87D-08     -V/T= 2.0104
 DoSCS=F DFT=T ScalE2(SS,OS)=  1.000000  1.000000
 ExpMin= 4.38D-02 ExpMax= 4.17D+03 ExpMxC= 6.27D+02 IAcc=3 IRadAn=         5 AccDes= 0.00D+00
 HarFok:  IExCor=  205 AccDes= 0.00D+00 IRadAn=         5 IDoV=-2 UseB2=F ITyADJ=14
 ICtDFT= 12500011 ScaDFX=  1.000000  1.000000  1.000000  1.000000
 Range of M.O.s used for correlation:    10   185
 NBasis=   185 NAE=    31 NBE=    31 NFC=     9 NFV=     0
 NROrb=    176 NOA=    22 NOB=    22 NVA=   154 NVB=   154

 **** Warning!!: The largest alpha MO coefficient is  0.16566282D+03

 Orbital symmetries:
       Occupied  (A) (A) (A) (A) (A) (A) (A) (A) (A) (A) (A) (A)
                 (A) (A) (A) (A) (A) (A) (A) (A) (A) (A) (A) (A)
                 (A) (A) (A) (A) (A) (A) (A)
       Virtual   (A) (A) (A) (A) (A) (A) (A) (A) (A) (A) (A) (A)
                 (A) (A) (A) (A) (A) (A) (A) (A) (A) (A) (A) (A)
                 (A) (A) (A) (A) (A) (A) (A) (A) (A) (A) (A) (A)
                 (A) (A) (A) (A) (A) (A) (A) (A) (A) (A) (A) (A)
                 (A) (A) (A) (A) (A) (A) (A) (A) (A) (A) (A) (A)
                 (A) (A) (A) (A) (A) (A) (A) (A) (A) (A) (A) (A)
                 (A) (A) (A) (A) (A) (A) (A) (A) (A) (A) (A) (A)
                 (A) (A) (A) (A) (A) (A) (A) (A) (A) (A) (A) (A)
                 (A) (A) (A) (A) (A) (A) (A) (A) (A) (A) (A) (A)
                 (A) (A) (A) (A) (A) (A) (A) (A) (A) (A) (A) (A)
                 (A) (A) (A) (A) (A) (A) (A) (A) (A) (A) (A) (A)
                 (A) (A) (A) (A) (A) (A) (A) (A) (A) (A) (A) (A)
                 (A) (A) (A) (A) (A) (A) (A) (A) (A) (A)
 Generating guess from densities on rwf.
 Convergence on wavefunction:    0.000001000000000
 Iteration     1 Dimension    12 NMult     0 NNew     12
 CISAX will form    12 AO SS matrices at one time.
 Iteration     2 Dimension    24 NMult    12 NNew     12
 Iteration     3 Dimension    36 NMult    24 NNew     12
 Iteration     4 Dimension    48 NMult    36 NNew     12
 Iteration     5 Dimension    60 NMult    48 NNew     12
 Iteration     6 Dimension    72 NMult    60 NNew     12
 Iteration     7 Dimension    84 NMult    72 NNew     12
 Iteration     8 Dimension    96 NMult    84 NNew     12
 Iteration     9 Dimension   108 NMult    96 NNew     12
 Iteration    10 Dimension   118 NMult   108 NNew     10
 Iteration    11 Dimension   122 NMult   118 NNew      4
 ***********************************************************************
 Excited states from <AA,BB:AA,BB> singles matrix:
 ***********************************************************************
 
 Ground to excited state transition densities written to RWF  633
 Ground to excited state transition electric dipole moments (Au):
       state          X           Y           Z        Dip. S.      Osc.
         1        -0.6429      0.6267     -0.0000      0.8060      0.0926
         2        -0.5208     -0.2020     -0.0000      0.3121      0.0363
         3         0.0004     -0.0001     -0.1423      0.0203      0.0025
         4        -0.0003      0.0000     -0.1162      0.0135      0.0018
         5         0.0002      0.0000      0.0021      0.0000      0.0000
         6         0.0005      0.0002      0.1047      0.0110      0.0016
 Ground to excited state transition velocity dipole moments (Au):
       state          X           Y           Z        Dip. S.      Osc.
         1         0.1011     -0.1163      0.0000      0.0237      0.0918
         2         0.0865      0.0370      0.0000      0.0089      0.0338
         3        -0.0001      0.0000      0.0185      0.0003      0.0012
         4         0.0001     -0.0000      0.0258      0.0007      0.0022
         5        -0.0000     -0.0000      0.0008      0.0000      0.0000
         6        -0.0001     -0.0000     -0.0214      0.0005      0.0014
 Ground to excited state transition magnetic dipole moments (Au):
       state          X           Y           Z
         1         0.0001      0.0000      0.1736
         2        -0.0001     -0.0001     -0.0612
         3         0.1192     -0.0911      0.0002
         4         0.0353     -0.2253     -0.0001
         5         0.2959     -0.1977      0.0002
         6         0.1322      0.3479      0.0004
 Ground to excited state transition velocity quadrupole moments (Au):
       state          XX          YY          ZZ          XY          XZ          YZ
         1         0.2092     -0.1327      0.0128      0.0448      0.0000     -0.0000
         2         0.0387     -0.0944      0.0190     -0.0093      0.0000     -0.0000
         3        -0.0001      0.0001      0.0001      0.0001      0.0743      0.0400
         4         0.0000     -0.0000     -0.0000     -0.0000      0.1441     -0.0179
         5         0.0000     -0.0000      0.0000      0.0000      0.2233      0.2558
         6        -0.0000      0.0001      0.0000      0.0002     -0.3032      0.0317
 <0|del|b> * <b|rxdel|0> + <0|del|b> * <b|delr+rdel|0>
 Rotatory Strengths (R) in cgs (10**-40 erg-esu-cm/Gauss)
       state          XX          YY          ZZ    R(velocity)    E-M Angle
         1        -0.0060      0.0118      0.0057      0.0038       90.00
         2        -0.0089     -0.0160     -0.0130     -0.0126       90.00
         3         0.0030     -0.0174     -0.0109     -0.0085       90.00
         4        -0.0022      0.0012      0.0069      0.0019       90.00
         5         0.0009     -0.0329     -0.0024     -0.0115       90.00
         6        -0.0619     -0.0327     -0.0202     -0.0383       90.00
 1/2[<0|r|b>*<b|rxdel|0> + (<0|rxdel|b>*<b|r|0>)*]
 Rotatory Strengths (R) in cgs (10**-40 erg-esu-cm/Gauss)
       state          XX          YY          ZZ     R(length)
         1         0.0339     -0.0198      0.0046      0.0062
         2        -0.0255     -0.0114     -0.0017     -0.0129
         3        -0.0354     -0.0053      0.0173     -0.0078
         4         0.0079      0.0061     -0.0056      0.0028
         5        -0.0377      0.0004     -0.0002     -0.0125
         6        -0.0482     -0.0469     -0.0272     -0.0408
  1/2[<0|del|b>*<b|r|0> + (<0|r|b>*<b|del|0>)*] (Au)
       state          X           Y           Z        Dip. S.   Osc.(frdel)
         1        -0.0650     -0.0729     -0.0000      0.1379      0.0919
         2        -0.0451     -0.0075     -0.0000      0.0525      0.0350
         3        -0.0000     -0.0000     -0.0026      0.0026      0.0018
         4        -0.0000     -0.0000     -0.0030      0.0030      0.0020
         5        -0.0000     -0.0000      0.0000     -0.0000     -0.0000
         6        -0.0000     -0.0000     -0.0022      0.0022      0.0015

 Excitation energies and oscillator strengths:
 
 Excited State   1:      Singlet-A      4.6915 eV  264.28 nm  f=0.0926  <S**2>=0.000
      30 -> 34         0.16568
      31 -> 32         0.66694
 
 Excited State   2:      Singlet-A      4.7464 eV  261.22 nm  f=0.0363  <S**2>=0.000
      30 -> 32         0.58190
      31 -> 34        -0.38583
 This state for optimization and/or second-order correction.
 Total Energy, E(TD-HF/TD-DFT) =  -363.351613009    
 Copying the excited state density for this state as the 1-particle RhoCI density.
 
 Excited State   3:      Singlet-A      5.0966 eV  243.27 nm  f=0.0025  <S**2>=0.000
      31 -> 33         0.70333
 
 Excited State   4:      Singlet-A      5.5047 eV  225.23 nm  f=0.0018  <S**2>=0.000
      30 -> 33         0.69695
 
 Excited State   5:      Singlet-A      5.6855 eV  218.07 nm  f=0.0000  <S**2>=0.000
      31 -> 35         0.69533
 
 Excited State   6:      Singlet-A      5.7933 eV  214.01 nm  f=0.0016  <S**2>=0.000
      31 -> 36         0.69552
 SavETr:  write IOETrn=   770 NScale= 10 NData=  16 NLR=1 NState=    6 LETran=     118.
          IDoAtm=1111111111111111
          Differentiating once with respect to electric field.
                with respect to dipole field.
          Differentiating once with respect to nuclear coordinates.
 Keep R1 ints in memory in canonical form, NReq=152083851.
          There are     1 degrees of freedom in the 1st order CPHF.  IDoFFX=0 NUNeed=     1.
 LinEq1:  Iter=  0 NonCon=     1 RMS=4.96D-03 Max=1.30D-01 NDo=     1
 AX will form     1 AO Fock derivatives at one time.
 LinEq1:  Iter=  1 NonCon=     1 RMS=1.92D-03 Max=5.56D-02 NDo=     1
 LinEq1:  Iter=  2 NonCon=     1 RMS=1.75D-03 Max=6.57D-02 NDo=     1
 LinEq1:  Iter=  3 NonCon=     1 RMS=7.14D-04 Max=1.59D-02 NDo=     1
 LinEq1:  Iter=  4 NonCon=     1 RMS=3.48D-04 Max=1.17D-02 NDo=     1
 LinEq1:  Iter=  5 NonCon=     1 RMS=2.03D-04 Max=4.06D-03 NDo=     1
 LinEq1:  Iter=  6 NonCon=     1 RMS=1.17D-04 Max=1.98D-03 NDo=     1
 LinEq1:  Iter=  7 NonCon=     1 RMS=5.41D-05 Max=1.20D-03 NDo=     1
 LinEq1:  Iter=  8 NonCon=     1 RMS=3.81D-05 Max=8.70D-04 NDo=     1
 LinEq1:  Iter=  9 NonCon=     1 RMS=1.38D-05 Max=3.01D-04 NDo=     1
 LinEq1:  Iter= 10 NonCon=     1 RMS=1.08D-05 Max=2.95D-04 NDo=     1
 LinEq1:  Iter= 11 NonCon=     1 RMS=2.95D-06 Max=7.77D-05 NDo=     1
 LinEq1:  Iter= 12 NonCon=     1 RMS=1.89D-06 Max=3.60D-05 NDo=     1
 LinEq1:  Iter= 13 NonCon=     1 RMS=7.52D-07 Max=1.44D-05 NDo=     1
 LinEq1:  Iter= 14 NonCon=     1 RMS=2.58D-07 Max=3.90D-06 NDo=     1
 LinEq1:  Iter= 15 NonCon=     1 RMS=1.48D-07 Max=2.80D-06 NDo=     1
 LinEq1:  Iter= 16 NonCon=     1 RMS=3.38D-08 Max=6.23D-07 NDo=     1
 LinEq1:  Iter= 17 NonCon=     1 RMS=2.13D-08 Max=4.84D-07 NDo=     1
 LinEq1:  Iter= 18 NonCon=     1 RMS=6.81D-09 Max=9.69D-08 NDo=     1
 LinEq1:  Iter= 19 NonCon=     1 RMS=1.45D-09 Max=2.48D-08 NDo=     1
 LinEq1:  Iter= 20 NonCon=     1 RMS=2.11D-10 Max=3.58D-09 NDo=     1
 LinEq1:  Iter= 21 NonCon=     0 RMS=3.69D-11 Max=4.85D-10 NDo=     1
 Linear equations converged to 1.000D-10 1.000D-09 after    21 iterations.
 End of Minotr F.D. properties file   721 does not exist.
 End of Minotr F.D. properties file   722 does not exist.
 End of Minotr F.D. properties file   788 does not exist.
 R6APFD:  NTU= -4 IXU= 1 FactS= 1.050
 Calling FoFJK, ICntrl=  10005127 FMM=F ISym2X=0 I1Cent= 0 IOpClX= 0 NMat=1 NMatS=1 NMatT=0.
 ***** Axes restored to original set *****
 -------------------------------------------------------------------
 Center     Atomic                   Forces (Hartrees/Bohr)
 Number     Number              X              Y              Z
 -------------------------------------------------------------------
      1        6           0.000154249   -0.004255033    0.000001177
      2        6          -0.000803604    0.000745040    0.000000427
      3        6           0.000347011    0.000012259    0.000001229
      4        6           0.002003285   -0.007081967   -0.000002641
      5        6           0.000596343    0.003845932    0.000000073
      6        6           0.004604466    0.000309834   -0.000001796
      7        7          -0.012571198    0.003499474    0.000006843
      8        6          -0.000857074   -0.004370155   -0.000005546
      9        6           0.007286768    0.007014534    0.000007052
     10        1          -0.000256475   -0.000167494   -0.000005883
     11        1           0.000489784   -0.000139087   -0.000000017
     12        1          -0.000668056    0.000059588   -0.000000667
     13        1           0.000060693    0.000944071   -0.000000003
     14        1          -0.000057301    0.000861127   -0.000000743
     15        1           0.000121697   -0.000326130    0.000000158
     16        1          -0.000450588   -0.000951992    0.000000336
 -------------------------------------------------------------------
 Cartesian Forces:  Max     0.012571198 RMS     0.002908859

 GradGradGradGradGradGradGradGradGradGradGradGradGradGradGradGradGradGrad
 Berny optimization.
 Using GEDIIS/GDIIS optimizer.
 FormGI is forming the generalized inverse of G from B-inverse, IUseBI=4.
 Internal  Forces:  Max     0.007453334 RMS     0.001576942
 Search for a local minimum.
 Step number   2 out of a maximum of   94
 All quantities printed in internal units (Hartrees-Bohrs-Radians)
 Mixed Optimization -- RFO/linear search
 Update second derivatives using D2CorX and points    1    2
 DE= -5.40D-03 DEPred=-5.68D-03 R= 9.51D-01
 TightC=F SS=  1.41D+00  RLast= 1.58D-01 DXNew= 5.0454D-01 4.7286D-01
 Trust test= 9.51D-01 RLast= 1.58D-01 DXMaxT set to 4.73D-01
 ITU=  1  0
 Use linear search instead of GDIIS.
     Eigenvalues ---    0.01853   0.01932   0.01986   0.02011   0.02071
     Eigenvalues ---    0.02113   0.02148   0.02153   0.02171   0.02209
     Eigenvalues ---    0.02234   0.02248   0.02339   0.15984   0.16000
     Eigenvalues ---    0.16000   0.16000   0.16000   0.16000   0.16017
     Eigenvalues ---    0.21043   0.22023   0.22891   0.24053   0.24641
     Eigenvalues ---    0.35714   0.35730   0.35785   0.35855   0.36409
     Eigenvalues ---    0.36467   0.37050   0.38282   0.42249   0.43008
     Eigenvalues ---    0.44412   0.46604   0.46858   0.47174   0.47605
     Eigenvalues ---    0.48485   0.58455
 RFO step:  Lambda=-5.82936437D-04 EMin= 1.85298625D-02
 Quartic linear search produced a step of -0.00662.
 Iteration  1 RMS(Cart)=  0.00635545 RMS(Int)=  0.00002403
 Iteration  2 RMS(Cart)=  0.00003012 RMS(Int)=  0.00000851
 Iteration  3 RMS(Cart)=  0.00000000 RMS(Int)=  0.00000851
 Variable       Old X    -DE/DX   Delta X   Delta X   Delta X     New X
                                 (Linear)    (Quad)   (Total)
    R1        2.71417  -0.00285  -0.00039  -0.00294  -0.00332   2.71084
    R2        2.68258   0.00195  -0.00046   0.00801   0.00755   2.69013
    R3        2.05426  -0.00026  -0.00007  -0.00013  -0.00020   2.05406
    R4        2.66716  -0.00121  -0.00034   0.00056   0.00022   2.66738
    R5        2.05415  -0.00053  -0.00007  -0.00087  -0.00094   2.05321
    R6        2.67589  -0.00071  -0.00028   0.00105   0.00076   2.67665
    R7        2.05440  -0.00086  -0.00006  -0.00186  -0.00192   2.05248
    R8        2.75011   0.00160  -0.00046   0.00747   0.00699   2.75710
    R9        2.59699  -0.00745   0.00003  -0.01545  -0.01542   2.58156
   R10        2.67656  -0.00375  -0.00019  -0.00652  -0.00671   2.66985
   R11        2.68427  -0.00048   0.00016  -0.00243  -0.00229   2.68199
   R12        2.05370  -0.00094  -0.00006  -0.00212  -0.00217   2.05153
   R13        2.62363   0.00600  -0.00012   0.01326   0.01317   2.63679
   R14        1.90510   0.00008  -0.00006   0.00074   0.00067   1.90577
   R15        2.62377  -0.00396  -0.00030  -0.00449  -0.00478   2.61899
   R16        2.04508   0.00004  -0.00007   0.00074   0.00067   2.04576
   R17        2.04469  -0.00067  -0.00007  -0.00122  -0.00129   2.04340
    A1        2.12635   0.00184  -0.00008   0.00856   0.00848   2.13483
    A2        2.07266  -0.00116   0.00005  -0.00582  -0.00577   2.06689
    A3        2.08418  -0.00068   0.00003  -0.00274  -0.00271   2.08147
    A4        2.12250  -0.00112  -0.00005  -0.00484  -0.00490   2.11760
    A5        2.08028  -0.00025   0.00002  -0.00256  -0.00253   2.07775
    A6        2.08041   0.00137   0.00003   0.00740   0.00743   2.08784
    A7        2.02985  -0.00060   0.00014  -0.00392  -0.00379   2.02607
    A8        2.12482   0.00026  -0.00008   0.00178   0.00170   2.12652
    A9        2.12851   0.00034  -0.00006   0.00214   0.00208   2.13059
   A10        2.14843   0.00195  -0.00010   0.00940   0.00930   2.15773
   A11        2.26608   0.00081   0.00009   0.00311   0.00321   2.26929
   A12        1.86868  -0.00276   0.00001  -0.01251  -0.01252   1.85616
   A13        2.08436  -0.00196  -0.00008  -0.00691  -0.00697   2.07739
   A14        1.85850   0.00159   0.00004   0.00542   0.00543   1.86393
   A15        2.34032   0.00037   0.00003   0.00149   0.00154   2.34186
   A16        2.05488  -0.00011   0.00016  -0.00229  -0.00213   2.05275
   A17        2.11898  -0.00043  -0.00011  -0.00163  -0.00174   2.11725
   A18        2.10932   0.00054  -0.00005   0.00392   0.00387   2.11319
   A19        1.91292   0.00387  -0.00004   0.01713   0.01711   1.93003
   A20        2.18616  -0.00222   0.00003  -0.01039  -0.01037   2.17579
   A21        2.18411  -0.00165   0.00001  -0.00674  -0.00674   2.17737
   A22        1.88032   0.00063  -0.00007   0.00444   0.00437   1.88470
   A23        2.20933   0.00021   0.00005   0.00084   0.00089   2.21022
   A24        2.19354  -0.00083   0.00002  -0.00529  -0.00527   2.18827
   A25        1.90436  -0.00333   0.00005  -0.01448  -0.01440   1.88996
   A26        2.10483   0.00165  -0.00002   0.00707   0.00704   2.11186
   A27        2.27400   0.00168  -0.00004   0.00741   0.00736   2.28136
    D1       -0.00004   0.00000   0.00000   0.00001   0.00001  -0.00003
    D2        3.14157   0.00000   0.00000   0.00002   0.00002   3.14159
    D3        3.14156  -0.00000  -0.00000  -0.00000  -0.00000   3.14156
    D4       -0.00001   0.00000  -0.00000   0.00000   0.00000  -0.00001
    D5        0.00007  -0.00000  -0.00000  -0.00003  -0.00003   0.00004
    D6       -3.14156  -0.00000  -0.00000  -0.00000  -0.00000  -3.14157
    D7       -3.14153  -0.00000  -0.00000  -0.00002  -0.00002  -3.14155
    D8        0.00002   0.00000  -0.00000   0.00001   0.00001   0.00003
    D9       -0.00002   0.00000   0.00000   0.00002   0.00002  -0.00000
   D10       -3.14155   0.00000   0.00000   0.00001   0.00001  -3.14154
   D11        3.14155   0.00000   0.00000   0.00001   0.00001   3.14157
   D12        0.00003   0.00000  -0.00000   0.00001   0.00001   0.00003
   D13        0.00006  -0.00000  -0.00000  -0.00003  -0.00003   0.00003
   D14       -3.14146  -0.00000   0.00000  -0.00003  -0.00003  -3.14149
   D15        3.14158  -0.00000  -0.00000  -0.00002  -0.00002   3.14156
   D16        0.00007  -0.00000   0.00000  -0.00002  -0.00002   0.00004
   D17       -0.00003   0.00000  -0.00000   0.00001   0.00001  -0.00002
   D18        3.14152   0.00000   0.00000   0.00001   0.00001   3.14154
   D19        3.14150   0.00000  -0.00000   0.00001   0.00001   3.14151
   D20       -0.00013   0.00000   0.00000   0.00002   0.00002  -0.00011
   D21       -3.14149   0.00000   0.00000   0.00002   0.00002  -3.14147
   D22       -0.00109   0.00000  -0.00000   0.00014   0.00014  -0.00095
   D23        0.00017   0.00000   0.00000   0.00002   0.00002   0.00019
   D24        3.14057   0.00000   0.00000   0.00013   0.00013   3.14070
   D25       -0.00003   0.00000   0.00000   0.00002   0.00002  -0.00001
   D26       -3.14158   0.00000   0.00000  -0.00001  -0.00001  -3.14159
   D27       -3.14158   0.00000  -0.00000   0.00002   0.00002  -3.14156
   D28        0.00006  -0.00000  -0.00000  -0.00001  -0.00001   0.00004
   D29        0.00004  -0.00000  -0.00000  -0.00004  -0.00004   0.00000
   D30        3.14155  -0.00000  -0.00000  -0.00001  -0.00001   3.14154
   D31        3.14159  -0.00000  -0.00000  -0.00004  -0.00004   3.14155
   D32       -0.00008  -0.00000   0.00000  -0.00001  -0.00001  -0.00009
   D33       -0.00015  -0.00000  -0.00000  -0.00004  -0.00005  -0.00019
   D34        3.14151   0.00000  -0.00000   0.00003   0.00003   3.14154
   D35       -3.14055  -0.00000  -0.00000  -0.00016  -0.00016  -3.14071
   D36        0.00111  -0.00000   0.00000  -0.00009  -0.00008   0.00102
   D37        0.00006   0.00000   0.00000   0.00005   0.00005   0.00011
   D38        3.14158  -0.00000   0.00000  -0.00003  -0.00003   3.14155
   D39       -3.14145   0.00000   0.00000   0.00002   0.00002  -3.14143
   D40        0.00007  -0.00000  -0.00000  -0.00006  -0.00006   0.00001
         Item               Value     Threshold  Converged?
 Maximum Force            0.007453     0.000450     NO 
 RMS     Force            0.001577     0.000300     NO 
 Maximum Displacement     0.026049     0.001800     NO 
 RMS     Displacement     0.006357     0.001200     NO 
 Predicted change in Energy=-2.925030D-04
 GradGradGradGradGradGradGradGradGradGradGradGradGradGradGradGradGradGrad

                          Input orientation:                          
 ---------------------------------------------------------------------
 Center     Atomic      Atomic             Coordinates (Angstroms)
 Number     Number       Type             X           Y           Z
 ---------------------------------------------------------------------
      1          6           0       -2.163860    0.695680    0.000008
      2          6           0       -2.148263   -0.738752    0.000046
      3          6           0       -0.934649   -1.459529    0.000038
      4          6           0        0.250451   -0.683772   -0.000011
      5          6           0        0.261161    0.775182   -0.000017
      6          6           0       -0.969147    1.469742   -0.000001
      7          7           0        1.558449   -1.077952   -0.000137
      8          6           0        1.622841    1.175294    0.000006
      9          6           0        2.405034    0.031212    0.000022
     10          1           0        1.868295   -2.037665    0.000572
     11          1           0        1.997741    2.190874   -0.000037
     12          1           0        3.479716   -0.088426    0.000003
     13          1           0       -3.092331   -1.276568    0.000057
     14          1           0       -0.913145   -2.545440    0.000014
     15          1           0       -3.125360    1.202640   -0.000020
[...]
 ! D8    D(15,1,6,16)            0.0008         -DE/DX =    0.0                 !
 ! D9    D(1,2,3,4)             -0.0001         -DE/DX =    0.0                 !
 ! D10   D(1,2,3,14)          -179.9968         -DE/DX =    0.0                 !
 ! D11   D(13,2,3,4)           179.999          -DE/DX =    0.0                 !
 ! D12   D(13,2,3,14)            0.0023         -DE/DX =    0.0                 !
 ! D13   D(2,3,4,5)              0.0015         -DE/DX =    0.0                 !
 ! D14   D(2,3,4,7)           -179.9972         -DE/DX =    0.0                 !
 ! D15   D(14,3,4,5)           179.9982         -DE/DX =    0.0                 !
 ! D16   D(14,3,4,7)            -0.0004         -DE/DX =    0.0                 !
 ! D17   D(3,4,5,6)             -0.002          -DE/DX =    0.0                 !
 ! D18   D(3,4,5,8)            179.9963         -DE/DX =    0.0                 !
 ! D19   D(7,4,5,6)            179.9969         -DE/DX =    0.0                 !
 ! D20   D(7,4,5,8)             -0.0047         -DE/DX =    0.0                 !
 ! D21   D(3,4,7,9)           -179.9941         -DE/DX =    0.0                 !
 ! D22   D(3,4,7,10)            -0.0342         -DE/DX =    0.0                 !
 ! D23   D(5,4,7,9)              0.007          -DE/DX =    0.0                 !
 ! D24   D(5,4,7,10)           179.9669         -DE/DX =    0.0                 !
 ! D25   D(4,5,6,1)              0.001          -DE/DX =    0.0                 !
 ! D26   D(4,5,6,16)          -179.9995         -DE/DX =    0.0                 !
 ! D27   D(8,5,6,1)           -179.9968         -DE/DX =    0.0                 !
 ! D28   D(8,5,6,16)             0.0027         -DE/DX =    0.0                 !
 ! D29   D(4,5,8,9)              0.0007         -DE/DX =    0.0                 !
 ! D30   D(4,5,8,11)           179.9986         -DE/DX =    0.0                 !
 ! D31   D(6,5,8,9)            179.9987         -DE/DX =    0.0                 !
 ! D32   D(6,5,8,11)            -0.0034         -DE/DX =    0.0                 !
 ! D33   D(4,7,9,8)             -0.0067         -DE/DX =    0.0                 !
 ! D34   D(4,7,9,12)           180.0            -DE/DX =    0.0                 !
 ! D35   D(10,7,9,8)          -179.9667         -DE/DX =    0.0                 !
 ! D36   D(10,7,9,12)            0.0401         -DE/DX =    0.0                 !
 ! D37   D(5,8,9,7)              0.0035         -DE/DX =    0.0                 !
 ! D38   D(5,8,9,12)           179.9959         -DE/DX =    0.0                 !
 ! D39   D(11,8,9,7)          -179.9944         -DE/DX =    0.0                 !
 ! D40   D(11,8,9,12)           -0.002          -DE/DX =    0.0                 !
 --------------------------------------------------------------------------------
 GradGradGradGradGradGradGradGradGradGradGradGradGradGradGradGradGradGrad

                          Input orientation:                          
 ---------------------------------------------------------------------
 Center     Atomic      Atomic             Coordinates (Angstroms)
 Number     Number       Type             X           Y           Z
 ---------------------------------------------------------------------
      1          6           0       -2.161573    0.698099   -0.000000
      2          6           0       -2.139913   -0.734438    0.000050
      3          6           0       -0.931045   -1.459288    0.000055
      4          6           0        0.253092   -0.682861    0.000004
      5          6           0        0.258900    0.776777   -0.000018
      6          6           0       -0.972821    1.473862   -0.000032
      7          7           0        1.560466   -1.081547   -0.000057
      8          6           0        1.616296    1.173107    0.000019
      9          6           0        2.401525    0.026929    0.000044
     10          1           0        1.871463   -2.040788    0.000419
     11          1           0        1.993212    2.187873   -0.000007
     12          1           0        3.475709   -0.093359    0.000015
     13          1           0       -3.084930   -1.270788    0.000072
     14          1           0       -0.910359   -2.544706    0.000043
     15          1           0       -3.125539    1.200105   -0.000014
     16          1           0       -1.007583    2.558469   -0.000056
 ---------------------------------------------------------------------
                    Distance matrix (angstroms):
                    1          2          3          4          5
     1  C    0.000000
     2  C    1.432701   0.000000
     3  C    2.483650   1.409528   0.000000
     4  C    2.781665   2.393561   1.415987   0.000000
     5  C    2.421751   2.835149   2.532973   1.459650   0.000000
     6  C    1.419485   2.497737   2.933447   2.480790   1.415297
     7  N    4.125616   3.716623   2.519983   1.366812   2.268797
     8  C    3.807614   4.212818   3.663120   2.302812   1.414073
     9  C    4.612194   4.604817   3.648954   2.262646   2.270048
    10  H    4.875129   4.218730   2.862201   2.112602   3.246388
    11  H    4.413804   5.061880   4.674725   3.356953   2.235852
    12  H    5.692570   5.652096   4.613593   3.276091   3.332416
    13  H    2.174650   1.086613   2.162118   3.389403   3.920933
    14  H    3.475819   2.188349   1.085615   2.195469   3.521280
    15  H    1.086849   2.171155   3.447923   3.867908   3.410811
    16  H    2.189217   3.482156   4.018486   3.477862   2.185956
                    6          7          8          9         10
     6  C    0.000000
     7  N    3.598285   0.000000
     8  C    2.606527   2.255345   0.000000
     9  C    3.671489   1.391438   1.389355   0.000000
    10  H    4.521362   1.008396   3.224008   2.134577   0.000000
    11  H    3.050765   3.297935   1.082504   2.199181   4.230413
    12  H    4.716524   2.155150   2.249744   1.080897   2.523110
    13  H    3.463251   4.649249   5.298505   5.637842   5.015848
    14  H    4.019053   2.871552   4.495122   4.193076   2.827095
    15  H    2.170054   5.211964   4.741912   5.650202   5.955956
    16  H    1.085164   4.454727   2.967148   4.246259   5.426055
                   11         12         13         14         15
    11  H    0.000000
    12  H    2.720627   0.000000
    13  H    6.144092   6.665457   0.000000
    14  H    5.552299   5.024609   2.520244   0.000000
    15  H    5.213185   6.726776   2.471226   4.350934   0.000000
    16  H    3.023593   5.208848   4.356442   5.104101   2.516127
                   16
    16  H    0.000000
 Stoichiometry    C8H7N
 Framework group  C1[X(C8H7N)]
 Deg. of freedom    42
 Full point group                 C1      NOp   1
 Largest Abelian subgroup         C1      NOp   1
 Largest concise Abelian subgroup C1      NOp   1
                         Standard orientation:                         
 ---------------------------------------------------------------------
 Center     Atomic      Atomic             Coordinates (Angstroms)
 Number     Number       Type             X           Y           Z
 ---------------------------------------------------------------------
      1          6           0       -2.161646    0.701010   -0.000013
      2          6           0       -2.142546   -0.731564    0.000038
      3          6           0       -0.934976   -1.458572    0.000042
      4          6           0        0.250547   -0.684263   -0.000009
      5          6           0        0.258963    0.775362   -0.000031
      6          6           0       -0.971510    1.474647   -0.000045
      7          7           0        1.557206   -1.085285   -0.000070
      8          6           0        1.617066    1.169266    0.000006
      9          6           0        2.400245    0.021686    0.000031
     10          1           0        1.866489   -2.045080    0.000406
     11          1           0        1.995795    2.183356   -0.000020
     12          1           0        3.474212   -0.100521    0.000002
     13          1           0       -3.088521   -1.266223    0.000059
     14          1           0       -0.916230   -2.544026    0.000030
     15          1           0       -3.124713    1.204738   -0.000027
     16          1           0       -1.004333    2.559315   -0.000069
 ---------------------------------------------------------------------
 Rotational constants (GHZ):           3.7459424           1.6302403           1.1358963

 **********************************************************************

            Population analysis using the CI Density.

 **********************************************************************

 Orbital symmetries:
       Occupied  (A) (A) (A) (A) (A) (A) (A) (A) (A) (A) (A) (A)
                 (A) (A) (A) (A) (A) (A) (A) (A) (A) (A) (A) (A)
                 (A) (A) (A) (A) (A) (A) (A)
       Virtual   (A) (A) (A) (A) (A) (A) (A) (A) (A) (A) (A) (A)
                 (A) (A) (A) (A) (A) (A) (A) (A) (A) (A) (A) (A)
                 (A) (A) (A) (A) (A) (A) (A) (A) (A) (A) (A) (A)
                 (A) (A) (A) (A) (A) (A) (A) (A) (A) (A) (A) (A)
                 (A) (A) (A) (A) (A) (A) (A) (A) (A) (A) (A) (A)
                 (A) (A) (A) (A) (A) (A) (A) (A) (A) (A) (A) (A)
                 (A) (A) (A) (A) (A) (A) (A) (A) (A) (A) (A) (A)
                 (A) (A) (A) (A) (A) (A) (A) (A) (A) (A) (A) (A)
                 (A) (A) (A) (A) (A) (A) (A) (A) (A) (A) (A) (A)
                 (A) (A) (A) (A) (A) (A) (A) (A) (A) (A) (A) (A)
                 (A) (A) (A) (A) (A) (A) (A) (A) (A) (A) (A) (A)
                 (A) (A) (A) (A) (A) (A) (A) (A) (A) (A) (A) (A)
                 (A) (A) (A) (A) (A) (A) (A) (A) (A) (A)
 The electronic state is 1-A.
 Alpha  occ. eigenvalues --  -14.42544 -10.25232 -10.25203 -10.22244 -10.21779
 Alpha  occ. eigenvalues --  -10.21717 -10.21693 -10.21277 -10.20630  -1.00366
 Alpha  occ. eigenvalues --   -0.84817  -0.80135  -0.74686  -0.73101  -0.63907
 Alpha  occ. eigenvalues --   -0.61131  -0.59250  -0.55032  -0.49976  -0.47957
 Alpha  occ. eigenvalues --   -0.44614  -0.44288  -0.43271  -0.41717  -0.40287
 Alpha  occ. eigenvalues --   -0.36360  -0.34721  -0.33916  -0.29129  -0.22789
 Alpha  occ. eigenvalues --   -0.21434
 Alpha virt. eigenvalues --   -0.02113   0.00601   0.01695   0.02531   0.03063
 Alpha virt. eigenvalues --    0.04546   0.04673   0.04898   0.06775   0.06956
 Alpha virt. eigenvalues --    0.07421   0.07452   0.09332   0.09748   0.11484
 Alpha virt. eigenvalues --    0.11523   0.12042   0.13417   0.14280   0.14599
 Alpha virt. eigenvalues --    0.16120   0.16549   0.17216   0.17231   0.17786
 Alpha virt. eigenvalues --    0.18838   0.19358   0.19417   0.20234   0.20540
 Alpha virt. eigenvalues --    0.20683   0.20720   0.22410   0.23079   0.23740
 Alpha virt. eigenvalues --    0.24269   0.24510   0.24908   0.26233   0.26829
 Alpha virt. eigenvalues --    0.27725   0.27912   0.28514   0.29852   0.30144
 Alpha virt. eigenvalues --    0.31142   0.32181   0.33549   0.34800   0.36893
 Alpha virt. eigenvalues --    0.37702   0.39907   0.43223   0.45464   0.51414
 Alpha virt. eigenvalues --    0.56708   0.60285   0.68432   0.68610   0.71047
 Alpha virt. eigenvalues --    0.71981   0.73231   0.73978   0.74584   0.74873
 Alpha virt. eigenvalues --    0.76313   0.76446   0.78634   0.80008   0.80256
 Alpha virt. eigenvalues --    0.82058   0.86175   0.90114   0.90698   0.92001
 Alpha virt. eigenvalues --    0.94929   0.95530   0.96261   0.96924   0.99605
 Alpha virt. eigenvalues --    1.00417   1.03981   1.05821   1.07055   1.09811
 Alpha virt. eigenvalues --    1.11831   1.11997   1.17695   1.18494   1.20871
 Alpha virt. eigenvalues --    1.23088   1.24148   1.24777   1.32239   1.32586
 Alpha virt. eigenvalues --    1.34831   1.37086   1.40548   1.41248   1.44291
 Alpha virt. eigenvalues --    1.46372   1.47864   1.49836   1.50148   1.54355
 Alpha virt. eigenvalues --    1.59129   1.64776   1.78718   1.82803   1.89383
 Alpha virt. eigenvalues --    1.89786   1.90507   1.92729   1.99129   2.00053
 Alpha virt. eigenvalues --    2.01457   2.04515   2.06002   2.13012   2.14268
 Alpha virt. eigenvalues --    2.15668   2.19090   2.22869   2.24331   2.26339
 Alpha virt. eigenvalues --    2.26973   2.30421   2.37071   2.41137   2.45353
 Alpha virt. eigenvalues --    2.53817   2.55229   2.62895   2.63084   2.65419
 Alpha virt. eigenvalues --    2.68257   2.72024   2.79666   2.83372   2.84106
 Alpha virt. eigenvalues --    2.96537   2.97398   3.09877   3.23087   3.38637
 Alpha virt. eigenvalues --    4.15859   4.25604   4.31152   4.33345   4.37369
 Alpha virt. eigenvalues --    4.41581   4.49206   4.53332   4.78328
          Condensed to atoms (all electrons):
               1          2          3          4          5          6
     1  C    5.859823   0.249598   0.297039  -0.490221  -0.069273  -0.167396
     2  C    0.249598   5.966569  -0.080432   0.175139  -0.675049   0.752018
     3  C    0.297039  -0.080432  12.420218  -1.398821  -3.475376  -2.912160
     4  C   -0.490221   0.175139  -1.398821  12.314086  -3.743057  -0.786738
     5  C   -0.069273  -0.675049  -3.475376  -3.743057  14.051682   0.188617
     6  C   -0.167396   0.752018  -2.912160  -0.786738   0.188617  12.369917
     7  N   -0.037372   0.011626  -0.558622  -0.384878   0.947540   0.172243
     8  C    0.131679  -0.296900   2.885123   1.966931  -4.549361  -3.988258
     9  C   -0.079230   0.024709  -0.994848  -0.730665   1.649747   0.967125
    10  H   -0.003188  -0.006727  -0.137319  -0.054901   0.163896   0.024176
    11  H    0.001756   0.001213   0.002175   0.024241   0.005867   0.008595
    12  H    0.001364   0.000016   0.036632   0.104020  -0.111215  -0.020678
    13  H    0.029571   0.254243   0.014359   0.002764   0.015792  -0.010624
    14  H    0.005450   0.055250   0.210556   0.051794  -0.006141  -0.014526
    15  H    0.268219   0.023237   0.012862  -0.015608   0.025702  -0.015971
    16  H    0.028567   0.003885  -0.018622   0.011698   0.076257   0.216015
               7          8          9         10         11         12
     1  C   -0.037372   0.131679  -0.079230  -0.003188   0.001756   0.001364
     2  C    0.011626  -0.296900   0.024709  -0.006727   0.001213   0.000016
     3  C   -0.558622   2.885123  -0.994848  -0.137319   0.002175   0.036632
     4  C   -0.384878   1.966931  -0.730665  -0.054901   0.024241   0.104020
     5  C    0.947540  -4.549361   1.649747   0.163896   0.005867  -0.111215
     6  C    0.172243  -3.988258   0.967125   0.024176   0.008595  -0.020678
     7  N    7.291389  -0.801195   0.568920   0.275878   0.006250  -0.059582
     8  C   -0.801195  12.008602  -1.742461  -0.012048   0.270030   0.066487
     9  C    0.568920  -1.742461   6.334285  -0.013331  -0.017291   0.297059
    10  H    0.275878  -0.012048  -0.013331   0.323485  -0.000076  -0.002093
    11  H    0.006250   0.270030  -0.017291  -0.000076   0.473480  -0.000712
    12  H   -0.059582   0.066487   0.297059  -0.002093  -0.000712   0.461994
    13  H   -0.000476   0.000934   0.001074  -0.000002   0.000000  -0.000000
    14  H   -0.008438  -0.000662   0.004217   0.001936   0.000002   0.000002
    15  H    0.000273   0.008972  -0.000081  -0.000000  -0.000001  -0.000000
    16  H   -0.000835  -0.021919   0.002985   0.000003   0.001302  -0.000001
              13         14         15         16
     1  C    0.029571   0.005450   0.268219   0.028567
     2  C    0.254243   0.055250   0.023237   0.003885
     3  C    0.014359   0.210556   0.012862  -0.018622
     4  C    0.002764   0.051794  -0.015608   0.011698
     5  C    0.015792  -0.006141   0.025702   0.076257
     6  C   -0.010624  -0.014526  -0.015971   0.216015
     7  N   -0.000476  -0.008438   0.000273  -0.000835
     8  C    0.000934  -0.000662   0.008972  -0.021919
     9  C    0.001074   0.004217  -0.000081   0.002985
    10  H   -0.000002   0.001936  -0.000000   0.000003
    11  H    0.000000   0.000002  -0.000001   0.001302
    12  H   -0.000000   0.000002  -0.000000  -0.000001
    13  H    0.489834  -0.003238  -0.003738  -0.000107
    14  H   -0.003238   0.493914  -0.000113   0.000012
    15  H   -0.003738  -0.000113   0.490362  -0.003052
    16  H   -0.000107   0.000012  -0.003052   0.490338
 Mulliken charges:
               1
     1  C   -0.026385
     2  C   -0.458395
     3  C   -0.302764
     4  C   -1.045784
     5  C    1.504373
     6  C   -0.782355
     7  N   -0.422722
     8  C    0.074045
     9  C   -0.272213
    10  H    0.440313
    11  H    0.223170
    12  H    0.226706
    13  H    0.209615
    14  H    0.209984
    15  H    0.208939
    16  H    0.213474
 Sum of Mulliken charges =  -0.00000
 Mulliken charges with hydrogens summed into heavy atoms:
               1
     1  C    0.182554
     2  C   -0.248780
     3  C   -0.092779
     4  C   -1.045784
     5  C    1.504373
     6  C   -0.568882
     7  N    0.017591
     8  C    0.297215
     9  C   -0.045507
 Electronic spatial extent (au):  <R**2>=           1023.0619
 Charge=             -0.0000 electrons
 Dipole moment (field-independent basis, Debye):
    X=              2.1018    Y=             -1.4406    Z=              0.0004  Tot=              2.5481
 Quadrupole moment (field-independent basis, Debye-Ang):
   XX=            -45.3605   YY=            -45.5595   ZZ=            -60.0255
   XY=             -3.0335   XZ=              0.0009   YZ=             -0.0014
 Traceless Quadrupole moment (field-independent basis, Debye-Ang):
   XX=              4.9547   YY=              4.7557   ZZ=             -9.7103
   XY=             -3.0335   XZ=              0.0009   YZ=             -0.0014
 Octapole moment (field-independent basis, Debye-Ang**2):
  XXX=             16.4384  YYY=             -9.5849  ZZZ=             -0.0015  XYY=             10.9399
  XXY=             -7.2222  XXZ=              0.0008  XZZ=              3.0307  YZZ=             -1.3864
  YYZ=              0.0020  XYZ=             -0.0030
 Hexadecapole moment (field-independent basis, Debye-Ang**3):
 XXXX=           -830.7777 YYYY=           -391.5443 ZZZZ=            -80.9050 XXXY=            -20.1494
 XXXZ=             -0.0022 YYYX=            -18.9774 YYYZ=             -0.0012 ZZZX=             -0.0023
 ZZZY=              0.0066 XXYY=           -199.9550 XXZZ=           -198.9961 YYZZ=           -102.7395
 XXYZ=             -0.0039 YYXZ=              0.0064 ZZXY=             -3.3352
 N-N= 3.970685615901D+02 E-N=-1.636123455450D+03  KE= 3.600290666922D+02
 Unable to Open any file for archive entry.
 1\1\GINC-EXP-1-46\FOpt\RAPFD TD-FC\6-31+G(d)\C8H7N1\SCAPARAS\15-Jun-20
 21\0\\# td= (nstates=6, root=2) APFD/6-31+G* Opt density=current\\Func
 sAPFD-V-2nd\\0,1\C,-2.1615726838,0.6980988121,-0.0000004714\C,-2.13991
 26519,-0.7344382991,0.0000504811\C,-0.9310446047,-1.459287556,0.000055
 0746\C,0.2530923497,-0.6828614039,0.0000044057\C,0.258899612,0.7767767
 018,-0.0000178837\C,-0.9728213535,1.4738618632,-0.0000318846\N,1.56046
 57745,-1.0815467494,-0.0000568526\C,1.6162964826,1.1731068628,0.000018
 5448\C,2.4015254728,0.0269292617,0.0000436964\H,1.871463291,-2.0407878
 78,0.000418794\H,1.9932124244,2.1878726874,-0.0000068493\H,3.475708943
 6,-0.0933586742,0.0000147966\H,-3.0849300315,-1.2707877766,0.000071804
 6\H,-0.9103587109,-2.5447058398,0.0000426007\H,-3.1255387935,1.2001046
 738,-0.0000142396\H,-1.0075825207,2.5584693142,-0.0000560173\\Version=
 AS64L-G16RevC.01\State=1-A\HF=-363.5257038\RMSD=4.183e-09\RMSF=3.233e-
 05\Dipole=0.8268985,-0.5667918,0.0001564\Quadrupole=3.6836668,3.535733
 6,-7.2194003,-2.2553365,0.0006925,-0.001063\PG=C01 [X(C8H7N1)]\\@
 The archive entry for this job was punched.


 THE MEEK SHALL INHERIT THE EARTH.
 (THE REST OF US WILL ESCAPE TO THE STARS)
 Job cpu time:       0 days  2 hours  2 minutes 40.1 seconds.
 Elapsed time:       0 days  0 hours 31 minutes 14.4 seconds.
 File lengths (MBytes):  RWF=    238 Int=      0 D2E=      0 Chk=     11 Scr=      1
 Normal termination of Gaussian 16 at Tue Jun 15 12:16:10 2021.
