 Entering Gaussian System, Link 0=/cm/shared/apps/spack/cpu/opt/spack/linux-centos8-zen/gcc-8.3.1/gaussian-16.C.01-po5bqktfeugvmjyga3v7eigbecnokxng/g16/g16
 Initial command:
 /cm/shared/apps/spack/cpu/opt/spack/linux-centos8-zen/gcc-8.3.1/gaussian-16.C.01-po5bqktfeugvmjyga3v7eigbecnokxng/g16/l1.exe "/scratch/scaparas/job_3318298/Gau-59107.inp" -scrdir="/scratch/scaparas/job_3318298/"
 Entering Link 1 = /cm/shared/apps/spack/cpu/opt/spack/linux-centos8-zen/gcc-8.3.1/gaussian-16.C.01-po5bqktfeugvmjyga3v7eigbecnokxng/g16/l1.exe PID=     59108.
  
 Copyright (c) 1988-2019, Gaussian, Inc.  All Rights Reserved.
  
 This is part of the Gaussian(R) 16 program.  It is based on
 the Gaussian(R) 09 system (copyright 2009, Gaussian, Inc.),
 the Gaussian(R) 03 system (copyright 2003, Gaussian, Inc.),
 the Gaussian(R) 98 system (copyright 1998, Gaussian, Inc.),
 the Gaussian(R) 94 system (copyright 1995, Gaussian, Inc.),
 the Gaussian 92(TM) system (copyright 1992, Gaussian, Inc.),
 the Gaussian 90(TM) system (copyright 1990, Gaussian, Inc.),
 the Gaussian 88(TM) system (copyright 1988, Gaussian, Inc.),
 the Gaussian 86(TM) system (copyright 1986, Carnegie Mellon
 University), and the Gaussian 82(TM) system (copyright 1983,
 Carnegie Mellon University). Gaussian is a federally registered
 trademark of Gaussian, Inc.
  
 This software contains proprietary and confidential information,
 including trade secrets, belonging to Gaussian, Inc.
  
 This software is provided under written license and may be
 used, copied, transmitted, or stored only in accord with that
 written license.
  
 The following legend is applicable only to US Government
 contracts under FAR:
  
                    RESTRICTED RIGHTS LEGEND
  
 Use, reproduction and disclosure by the US Government is
 subject to restrictions as set forth in subparagraphs (a)
 and (c) of the Commercial Computer Software - Restricted
 Rights clause in FAR 52.227-19.
  
 Gaussian, Inc.
 340 Quinnipiac St., Bldg. 40, Wallingford CT 06492
  
  
 ---------------------------------------------------------------
 Warning -- This program may not be used in any manner that
 competes with the business of Gaussian, Inc. or will provide
 assistance to any competitor of Gaussian, Inc.  The licensee
 of this program is prohibited from giving any competitor of
 Gaussian, Inc. access to this program.  By using this program,
 the user acknowledges that Gaussian, Inc. is engaged in the
 business of creating and licensing software in the field of
 computational chemistry and represents and warrants to the
 licensee that it is not a competitor of Gaussian, Inc. and that
 it will not use this program in any manner prohibited above.
 ---------------------------------------------------------------
  

 Cite this work as:
 Gaussian 16, Revision C.01,
 M. J. Frisch, G. W. Trucks, H. B. Schlegel, G. E. Scuseria, 
 M. A. Robb, J. R. Cheeseman, G. Scalmani, V. Barone, 
 G. A. Petersson, H. Nakatsuji, X. Li, M. Caricato, A. V. Marenich, 
 J. Bloino, B. G. Janesko, R. Gomperts, B. Mennucci, H. P. Hratchian, 
 J. V. Ortiz, A. F. Izmaylov, J. L. Sonnenberg, D. Williams-Young, 
 F. Ding, F. Lipparini, F. Egidi, J. Goings, B. Peng, A. Petrone, 
 T. Henderson, D. Ranasinghe, V. G. Zakrzewski, J. Gao, N. Rega, 
 G. Zheng, W. Liang, M. Hada, M. Ehara, K. Toyota, R. Fukuda, 
 J. Hasegawa, M. Ishida, T. Nakajima, Y. Honda, O. Kitao, H. Nakai, 
 T. Vreven, K. Throssell, J. A. Montgomery, Jr., J. E. Peralta, 
 F. Ogliaro, M. J. Bearpark, J. J. Heyd, E. N. Brothers, K. N. Kudin, 
 V. N. Staroverov, T. A. Keith, R. Kobayashi, J. Normand, 
 K. Raghavachari, A. P. Rendell, J. C. Burant, S. S. Iyengar, 
 J. Tomasi, M. Cossi, J. M. Millam, M. Klene, C. Adamo, R. Cammi, 
 J. W. Ochterski, R. L. Martin, K. Morokuma, O. Farkas, 
 J. B. Foresman, and D. J. Fox, Gaussian, Inc., Wallingford CT, 2019.
 
 ******************************************
 Gaussian 16:  AS64L-G16RevC.01  3-Jul-2019
                 9-Jun-2021 
 ******************************************
 %NProcShared=4
 Will use up to    4 processors via shared memory.
 %Chk=FuncsWB97X.chk
 -----------------------------------------------------------
 # td= (nstates=6, root=1) WB97X/6-31+G* Opt density=current
 -----------------------------------------------------------
 1/18=20,19=15,26=3,38=1/1,3;
 2/9=110,12=2,17=6,18=5,40=1/2;
 3/5=1,6=6,7=11,11=9,25=1,30=1,71=1,74=-57/1,2,3,8;
 4//1;
 5/5=2,38=5/2;
 8/6=1,10=2,107=1,108=6/1;
 9/8=1,15=2,41=6,42=1,70=2/14;
 10/5=4,28=1/2;
 6/7=2,8=2,9=2,10=2,22=-1/1;
 7/12=6,13=5,14=1/1,2,3,16;
 1/18=20,19=15,26=3/3(2);
 2/9=110/2;
 99//99;
 2/9=110/2;
 3/5=1,6=6,7=11,11=9,25=1,30=1,71=1,74=-57/1,2,3,8;
 4/5=5,16=3,69=1/1;
 5/5=2,38=5/2;
 8/6=1,10=2,107=1,108=6/1;
 9/8=1,15=2,41=6,42=1,49=4,70=2/14;
 10/5=4,28=1/2;
 7/12=6,13=5,14=1/1,2,3,16;
 1/18=20,19=15,26=3/3(-8);
 2/9=110/2;
 6/7=2,8=2,9=2,10=2,22=-1/1;
 99/9=10/99;
 ----------
 FuncsWB97X
 ----------
 Symbolic Z-matrix:
 Charge =  0 Multiplicity = 1
 C                    -2.15886   0.68918   0.02974 
 C                    -2.1332   -0.71621  -0.0157 
 C                    -0.93572  -1.41751  -0.00819 
 C                     0.2487   -0.67115   0.00319 
 C                     0.25025   0.7522   -0.00266 
 C                    -0.98322   1.4256   -0.0173 
 N                     1.5657   -1.08029   0.00974 
 C                     1.62609   1.16684  -0.00626 
 C                     2.39038   0.03059   0.00688 
 H                     1.87967  -2.03756   0.01447 
 H                     1.9972    2.18233  -0.0192 
 H                     3.46481  -0.08787   0.00753 
 H                    -3.075    -1.264    -0.03434 
 H                    -0.91687  -2.50699  -0.02386 
 H                    -3.12254   1.20382   0.09559 
 H                    -1.01374   2.5151   -0.04664 
 

 GradGradGradGradGradGradGradGradGradGradGradGradGradGradGradGradGradGrad
 Berny optimization.
 Initialization pass.
                           ----------------------------
                           !    Initial Parameters    !
                           ! (Angstroms and Degrees)  !
 --------------------------                            --------------------------
 ! Name  Definition              Value          Derivative Info.                !
 --------------------------------------------------------------------------------
 ! R1    R(1,2)                  1.4064         estimate D2E/DX2                !
 ! R2    R(1,6)                  1.388          estimate D2E/DX2                !
 ! R3    R(1,15)                 1.0945         estimate D2E/DX2                !
 ! R4    R(2,3)                  1.3877         estimate D2E/DX2                !
 ! R5    R(2,13)                 1.0897         estimate D2E/DX2                !
 ! R6    R(3,4)                  1.4            estimate D2E/DX2                !
 ! R7    R(3,14)                 1.0898         estimate D2E/DX2                !
 ! R8    R(4,5)                  1.4234         estimate D2E/DX2                !
 ! R9    R(4,7)                  1.3791         estimate D2E/DX2                !
 ! R10   R(5,6)                  1.4054         estimate D2E/DX2                !
 ! R11   R(5,8)                  1.437          estimate D2E/DX2                !
 ! R12   R(6,16)                 1.0903         estimate D2E/DX2                !
 ! R13   R(7,9)                  1.3835         estimate D2E/DX2                !
 ! R14   R(7,10)                 1.0075         estimate D2E/DX2                !
 ! R15   R(8,9)                  1.3694         estimate D2E/DX2                !
 ! R16   R(8,11)                 1.0813         estimate D2E/DX2                !
 ! R17   R(9,12)                 1.0809         estimate D2E/DX2                !
 ! A1    A(2,1,6)              120.9061         estimate D2E/DX2                !
 ! A2    A(2,1,15)             119.2028         estimate D2E/DX2                !
 ! A3    A(6,1,15)             119.8895         estimate D2E/DX2                !
 ! A4    A(1,2,3)              121.3707         estimate D2E/DX2                !
 ! A5    A(1,2,13)             119.153          estimate D2E/DX2                !
 ! A6    A(3,2,13)             119.4616         estimate D2E/DX2                !
 ! A7    A(2,3,4)              117.4292         estimate D2E/DX2                !
 ! A8    A(2,3,14)             121.3371         estimate D2E/DX2                !
 ! A9    A(4,3,14)             121.2289         estimate D2E/DX2                !
 ! A10   A(3,4,5)              122.2756         estimate D2E/DX2                !
 ! A11   A(3,4,7)              130.5258         estimate D2E/DX2                !
 ! A12   A(5,4,7)              107.1964         estimate D2E/DX2                !
 ! A13   A(4,5,6)              118.5703         estimate D2E/DX2                !
 ! A14   A(4,5,8)              106.8342         estimate D2E/DX2                !
 ! A15   A(6,5,8)              134.5914         estimate D2E/DX2                !
 ! A16   A(1,6,5)              119.2617         estimate D2E/DX2                !
 ! A17   A(1,6,16)             120.4875         estimate D2E/DX2                !
 ! A18   A(5,6,16)             120.2412         estimate D2E/DX2                !
 ! A19   A(4,7,9)              109.3301         estimate D2E/DX2                !
 ! A20   A(4,7,10)             125.4173         estimate D2E/DX2                !
 ! A21   A(9,7,10)             125.2525         estimate D2E/DX2                !
 ! A22   A(5,8,9)              107.1528         estimate D2E/DX2                !
 ! A23   A(5,8,11)             126.8451         estimate D2E/DX2                !
 ! A24   A(9,8,11)             126.002          estimate D2E/DX2                !
 ! A25   A(7,9,8)              109.4848         estimate D2E/DX2                !
 ! A26   A(7,9,12)             120.2971         estimate D2E/DX2                !
 ! A27   A(8,9,12)             130.2163         estimate D2E/DX2                !
 ! D1    D(6,1,2,3)              4.8678         estimate D2E/DX2                !
 ! D2    D(6,1,2,13)          -176.5353         estimate D2E/DX2                !
 ! D3    D(15,1,2,3)          -175.5899         estimate D2E/DX2                !
 ! D4    D(15,1,2,13)            3.0069         estimate D2E/DX2                !
 ! D5    D(2,1,6,5)             -5.0972         estimate D2E/DX2                !
 ! D6    D(2,1,6,16)           176.0299         estimate D2E/DX2                !
 ! D7    D(15,1,6,5)           175.3637         estimate D2E/DX2                !
 ! D8    D(15,1,6,16)           -3.5093         estimate D2E/DX2                !
 ! D9    D(1,2,3,4)             -1.9941         estimate D2E/DX2                !
 ! D10   D(1,2,3,14)           178.7955         estimate D2E/DX2                !
 ! D11   D(13,2,3,4)           179.4132         estimate D2E/DX2                !
 ! D12   D(13,2,3,14)            0.2029         estimate D2E/DX2                !
 ! D13   D(2,3,4,5)             -0.4651         estimate D2E/DX2                !
 ! D14   D(2,3,4,7)           -179.8522         estimate D2E/DX2                !
 ! D15   D(14,3,4,5)           178.7462         estimate D2E/DX2                !
 ! D16   D(14,3,4,7)            -0.641          estimate D2E/DX2                !
 ! D17   D(3,4,5,6)              0.1482         estimate D2E/DX2                !
 ! D18   D(3,4,5,8)           -179.2217         estimate D2E/DX2                !
 ! D19   D(7,4,5,6)            179.6606         estimate D2E/DX2                !
 ! D20   D(7,4,5,8)              0.2907         estimate D2E/DX2                !
 ! D21   D(3,4,7,9)            179.3989         estimate D2E/DX2                !
 ! D22   D(3,4,7,10)            -0.5167         estimate D2E/DX2                !
 ! D23   D(5,4,7,9)             -0.0587         estimate D2E/DX2                !
 ! D24   D(5,4,7,10)          -179.9743         estimate D2E/DX2                !
 ! D25   D(4,5,6,1)              2.618          estimate D2E/DX2                !
 ! D26   D(4,5,6,16)          -178.5062         estimate D2E/DX2                !
 ! D27   D(8,5,6,1)           -178.2289         estimate D2E/DX2                !
 ! D28   D(8,5,6,16)             0.6469         estimate D2E/DX2                !
 ! D29   D(4,5,8,9)             -0.4171         estimate D2E/DX2                !
 ! D30   D(4,5,8,11)           179.4533         estimate D2E/DX2                !
 ! D31   D(6,5,8,9)           -179.64           estimate D2E/DX2                !
 ! D32   D(6,5,8,11)             0.2304         estimate D2E/DX2                !
 ! D33   D(4,7,9,8)             -0.2113         estimate D2E/DX2                !
 ! D34   D(4,7,9,12)          -179.7792         estimate D2E/DX2                !
 ! D35   D(10,7,9,8)           179.7044         estimate D2E/DX2                !
 ! D36   D(10,7,9,12)            0.1366         estimate D2E/DX2                !
 ! D37   D(5,8,9,7)              0.3888         estimate D2E/DX2                !
 ! D38   D(5,8,9,12)           179.9002         estimate D2E/DX2                !
 ! D39   D(11,8,9,7)          -179.483          estimate D2E/DX2                !
 ! D40   D(11,8,9,12)            0.0284         estimate D2E/DX2                !
 --------------------------------------------------------------------------------
 Trust Radius=3.00D-01 FncErr=1.00D-07 GrdErr=1.00D-06 EigMax=2.50D+02 EigMin=1.00D-04
 Number of steps in this run=     94 maximum allowed number of steps=    100.
 GradGradGradGradGradGradGradGradGradGradGradGradGradGradGradGradGradGrad

                          Input orientation:                          
 ---------------------------------------------------------------------
 Center     Atomic      Atomic             Coordinates (Angstroms)
 Number     Number       Type             X           Y           Z
 ---------------------------------------------------------------------
      1          6           0       -2.158860    0.689180    0.029740
      2          6           0       -2.133200   -0.716210   -0.015700
      3          6           0       -0.935720   -1.417510   -0.008190
      4          6           0        0.248700   -0.671150    0.003190
      5          6           0        0.250250    0.752200   -0.002660
      6          6           0       -0.983220    1.425600   -0.017300
      7          7           0        1.565700   -1.080290    0.009740
      8          6           0        1.626090    1.166840   -0.006260
      9          6           0        2.390380    0.030590    0.006880
     10          1           0        1.879670   -2.037560    0.014470
     11          1           0        1.997200    2.182330   -0.019200
     12          1           0        3.464810   -0.087870    0.007530
     13          1           0       -3.075000   -1.264000   -0.034340
     14          1           0       -0.916870   -2.506990   -0.023860
     15          1           0       -3.122540    1.203820    0.095590
     16          1           0       -1.013740    2.515100   -0.046640
 ---------------------------------------------------------------------
                    Distance matrix (angstroms):
                    1          2          3          4          5
     1  C    0.000000
     2  C    1.406359   0.000000
     3  C    2.436320   1.387745   0.000000
     4  C    2.765420   2.382401   1.400012   0.000000
     5  C    2.410152   2.799506   2.472690   1.423363   0.000000
     6  C    1.388041   2.431009   2.843521   2.431955   1.405393
     7  N    4.123563   3.716862   2.524112   1.379104   2.255789
     8  C    3.815141   4.204548   3.638920   2.296846   1.436967
     9  C    4.596721   4.584866   3.627694   2.253718   2.258532
    10  H    4.872891   4.224926   2.882949   2.127737   3.230799
    11  H    4.416416   5.045964   4.643381   3.346655   2.257738
    12  H    5.677144   5.633211   4.597048   3.268577   3.322532
    13  H    2.158317   1.089683   2.144940   3.376368   3.888876
    14  H    3.429419   2.164814   1.089756   2.174763   3.461927
    15  H    1.094472   2.162798   3.415307   3.858667   3.404310
    16  H    2.156645   3.419870   3.933572   3.427598   2.169659
                    6          7          8          9         10
     6  C    0.000000
     7  N    3.574522   0.000000
     8  C    2.622132   2.247998   0.000000
     9  C    3.650728   1.383532   1.369444   0.000000
    10  H    4.493398   1.007455   3.214485   2.130288   0.000000
    11  H    3.074987   3.291158   1.081254   2.187523   4.221661
    12  H    4.698529   2.142784   2.226068   1.080941   2.512769
    13  H    3.407313   4.644544   5.292449   5.616764   5.014931
    14  H    3.933155   2.863522   4.468107   4.168712   2.835925
    15  H    2.153746   5.215757   4.749866   5.637076   5.961143
    16  H    1.090322   4.425327   2.964479   4.214699   5.394652
                   11         12         13         14         15
    11  H    0.000000
    12  H    2.703406   0.000000
    13  H    6.132262   6.644859   0.000000
    14  H    5.521010   5.005222   2.490514   0.000000
    15  H    5.213674   6.713375   2.471695   4.318490   0.000000
    16  H    3.029397   5.180328   4.304711   5.023076   2.487312
                   16
    16  H    0.000000
 Stoichiometry    C8H7N
 Framework group  C1[X(C8H7N)]
 Deg. of freedom    42
 Full point group                 C1      NOp   1
 Largest Abelian subgroup         C1      NOp   1
 Largest concise Abelian subgroup C1      NOp   1
                         Standard orientation:                         
 ---------------------------------------------------------------------
 Center     Atomic      Atomic             Coordinates (Angstroms)
 Number     Number       Type             X           Y           Z
 ---------------------------------------------------------------------
      1          6           0       -2.158858    0.689183    0.029741
      2          6           0       -2.133200   -0.716207   -0.015699
      3          6           0       -0.935722   -1.417509   -0.008189
      4          6           0        0.248700   -0.671151    0.003191
      5          6           0        0.250252    0.752199   -0.002659
      6          6           0       -0.983217    1.425601   -0.017299
      7          7           0        1.565699   -1.080293    0.009741
      8          6           0        1.626093    1.166837   -0.006259
      9          6           0        2.390381    0.030585    0.006881
     10          1           0        1.879667   -2.037564    0.014471
     11          1           0        1.997205    2.182326   -0.019199
     12          1           0        3.464811   -0.087877    0.007531
     13          1           0       -3.075001   -1.263995   -0.034339
     14          1           0       -0.916873   -2.506989   -0.023859
     15          1           0       -3.122537    1.203825    0.095591
     16          1           0       -1.013735    2.515101   -0.046639
 ---------------------------------------------------------------------
 Rotational constants (GHZ):           3.8861076           1.6317910           1.1494058
 Standard basis: 6-31+G(d) (6D, 7F)
 There are   185 symmetry adapted cartesian basis functions of A   symmetry.
 There are   185 symmetry adapted basis functions of A   symmetry.
   185 basis functions,   316 primitive gaussians,   185 cartesian basis functions
    31 alpha electrons       31 beta electrons
       nuclear repulsion energy       400.0099183022 Hartrees.
 NAtoms=   16 NActive=   16 NUniq=   16 SFac= 1.00D+00 NAtFMM=   60 NAOKFM=F Big=F
 Integral buffers will be    131072 words long.
 Raffenetti 1 integral format.
 Two-electron integral symmetry is turned on.
 One-electron integrals computed using PRISM.
 NBasis=   185 RedAO= T EigKep=  1.37D-06  NBF=   185
 NBsUse=   185 1.00D-06 EigRej= -1.00D+00 NBFU=   185
 ExpMin= 4.38D-02 ExpMax= 4.17D+03 ExpMxC= 6.27D+02 IAcc=3 IRadAn=         5 AccDes= 0.00D+00
 Harris functional with IExCor= 4538 and IRadAn=       5 diagonalized for initial guess.
 HarFok:  IExCor= 4538 AccDes= 0.00D+00 IRadAn=         5 IDoV= 1 UseB2=F ITyADJ=14
 ICtDFT=  3500011 ScaDFX=  1.000000  1.000000  1.000000  1.000000
 FoFCou: FMM=F IPFlag=           0 FMFlag=      100000 FMFlg1=           0
         NFxFlg=           0 DoJE=T BraDBF=F KetDBF=T FulRan=T
         wScrn=  0.000000 ICntrl=       500 IOpCl=  0 I1Cent=   200000004 NGrid=           0
         NMat0=    1 NMatS0=      1 NMatT0=    0 NMatD0=    1 NMtDS0=    0 NMtDT0=    0
 Petite list used in FoFCou.
 Requested convergence on RMS density matrix=1.00D-08 within 128 cycles.
 Requested convergence on MAX density matrix=1.00D-06.
 Requested convergence on             energy=1.00D-06.
 No special actions if energy rises.
 SCF Done:  E(RwB97X) =  -363.728590267     A.U. after   16 cycles
            NFock= 16  Conv=0.32D-08     -V/T= 2.0099
 DoSCS=F DFT=T ScalE2(SS,OS)=  1.000000  1.000000
 ExpMin= 4.38D-02 ExpMax= 4.17D+03 ExpMxC= 6.27D+02 IAcc=3 IRadAn=         5 AccDes= 0.00D+00
 HarFok:  IExCor=  205 AccDes= 0.00D+00 IRadAn=         5 IDoV=-2 UseB2=F ITyADJ=14
 ICtDFT= 12500011 ScaDFX=  1.000000  1.000000  1.000000  1.000000
 Range of M.O.s used for correlation:    10   185
 NBasis=   185 NAE=    31 NBE=    31 NFC=     9 NFV=     0
 NROrb=    176 NOA=    22 NOB=    22 NVA=   154 NVB=   154

 **** Warning!!: The largest alpha MO coefficient is  0.19062185D+03

 Orbital symmetries:
       Occupied  (A) (A) (A) (A) (A) (A) (A) (A) (A) (A) (A) (A)
                 (A) (A) (A) (A) (A) (A) (A) (A) (A) (A) (A) (A)
                 (A) (A) (A) (A) (A) (A) (A)
       Virtual   (A) (A) (A) (A) (A) (A) (A) (A) (A) (A) (A) (A)
                 (A) (A) (A) (A) (A) (A) (A) (A) (A) (A) (A) (A)
                 (A) (A) (A) (A) (A) (A) (A) (A) (A) (A) (A) (A)
                 (A) (A) (A) (A) (A) (A) (A) (A) (A) (A) (A) (A)
                 (A) (A) (A) (A) (A) (A) (A) (A) (A) (A) (A) (A)
                 (A) (A) (A) (A) (A) (A) (A) (A) (A) (A) (A) (A)
                 (A) (A) (A) (A) (A) (A) (A) (A) (A) (A) (A) (A)
                 (A) (A) (A) (A) (A) (A) (A) (A) (A) (A) (A) (A)
                 (A) (A) (A) (A) (A) (A) (A) (A) (A) (A) (A) (A)
                 (A) (A) (A) (A) (A) (A) (A) (A) (A) (A) (A) (A)
                 (A) (A) (A) (A) (A) (A) (A) (A) (A) (A) (A) (A)
                 (A) (A) (A) (A) (A) (A) (A) (A) (A) (A) (A) (A)
                 (A) (A) (A) (A) (A) (A) (A) (A) (A) (A)
    24 initial guesses have been made.
 Convergence on wavefunction:    0.000001000000000
 Iteration     1 Dimension    24 NMult     0 NNew     24
 CISAX will form    24 AO SS matrices at one time.
 New state      1 was old state      3
 New state      2 was old state      1
 New state      3 was old state      2
 New state      4 was old state      5
 New state      5 was old state      6
 New state      6 was old state      4
 Iteration     2 Dimension    36 NMult    24 NNew     12
 New state      5 was old state      6
 New state      6 was old state      5
 Iteration     3 Dimension    48 NMult    36 NNew     12
 Iteration     4 Dimension    60 NMult    48 NNew     12
 New state      4 was old state      5
 New state      5 was old state      4
 Iteration     5 Dimension    72 NMult    60 NNew     12
 Iteration     6 Dimension    84 NMult    72 NNew     12
 Iteration     7 Dimension    96 NMult    84 NNew     12
 Iteration     8 Dimension   108 NMult    96 NNew     12
 Iteration     9 Dimension   120 NMult   108 NNew     12
 Iteration    10 Dimension   132 NMult   120 NNew     12
 Iteration    11 Dimension   140 NMult   132 NNew      8
 Iteration    12 Dimension   146 NMult   140 NNew      6
 Iteration    13 Dimension   150 NMult   146 NNew      4
 Iteration    14 Dimension   152 NMult   150 NNew      2
 ***********************************************************************
 Excited states from <AA,BB:AA,BB> singles matrix:
 ***********************************************************************
 
 Ground to excited state transition densities written to RWF  633
 Ground to excited state transition electric dipole moments (Au):
       state          X           Y           Z        Dip. S.      Osc.
         1         0.3724      0.3871     -0.0037      0.2885      0.0362
         2         0.7978     -0.6234      0.0071      1.0252      0.1315
         3        -0.1110     -0.0328     -0.1944      0.0512      0.0075
         4         1.9357      0.6621     -0.0289      4.1862      0.6609
         5        -0.1974     -0.2188     -0.2028      0.1279      0.0203
         6        -0.4919      0.0522      0.0440      0.2467      0.0403
 Ground to excited state transition velocity dipole moments (Au):
       state          X           Y           Z        Dip. S.      Osc.
         1        -0.0679     -0.0773      0.0009      0.0106      0.0375
         2        -0.1420      0.1280     -0.0018      0.0366      0.1267
         3         0.0239      0.0072      0.0342      0.0018      0.0054
         4        -0.4466     -0.1562      0.0065      0.2239      0.6302
         5         0.0461      0.0523      0.0485      0.0072      0.0202
         6         0.1174     -0.0135     -0.0116      0.0141      0.0383
 Ground to excited state transition magnetic dipole moments (Au):
       state          X           Y           Z
         1        -0.0094      0.0086      0.1428
         2        -0.0097     -0.0009     -0.0840
         3         0.1327     -0.1722     -0.0324
         4         0.1140     -0.0557      0.8205
         5         0.1502     -0.3431     -0.1704
         6         0.4701     -0.1290     -0.0786
 Ground to excited state transition velocity quadrupole moments (Au):
       state          XX          YY          ZZ          XY          XZ          YZ
         1         0.0208      0.0745     -0.0160      0.0164     -0.0071     -0.0082
         2        -0.2643      0.1832     -0.0159      0.0178      0.0023     -0.0115
         3         0.0010     -0.0075     -0.0078     -0.0166      0.1416      0.0627
         4        -0.0808      0.1327      0.0446      0.5494      0.0549      0.0856
         5         0.0651     -0.0261      0.0034     -0.1512      0.2532      0.0957
         6        -0.1084     -0.0004     -0.0096      0.0128      0.2172      0.4040
 <0|del|b> * <b|rxdel|0> + <0|del|b> * <b|delr+rdel|0>
 Rotatory Strengths (R) in cgs (10**-40 erg-esu-cm/Gauss)
       state          XX          YY          ZZ    R(velocity)    E-M Angle
         1        -2.0200      2.4601     -0.0620      0.1260       89.61
         2        -0.5446      5.8772     -0.1245      1.7360       84.97
         3        -6.3197      6.6222      2.3303      0.8776       84.94
         4        39.1893   -130.4482    -18.7519    -36.6703       95.38
         5       -69.5433     15.4692     -3.2486    -19.1075      123.48
         6         7.8477    149.3732      9.4673     55.5627        9.39
 1/2[<0|r|b>*<b|rxdel|0> + (<0|rxdel|b>*<b|r|0>)*]
 Rotatory Strengths (R) in cgs (10**-40 erg-esu-cm/Gauss)
       state          XX          YY          ZZ     R(length)
         1         2.4727     -2.3603      0.3700      0.1608
         2         5.4936     -0.4000      0.4242      1.8393
         3        10.4188     -3.9915     -4.4576      0.6566
         4      -156.0709     26.0862     16.7486    -37.7454
         5        20.9642    -53.0791    -24.4339    -18.8496
         6       163.5467      4.7601      2.4431     56.9166
  1/2[<0|del|b>*<b|r|0> + (<0|r|b>*<b|del|0>)*] (Au)
       state          X           Y           Z        Dip. S.   Osc.(frdel)
         1        -0.0253     -0.0299     -0.0000      0.0552      0.0368
         2        -0.1133     -0.0798     -0.0000      0.1931      0.1287
         3        -0.0027     -0.0002     -0.0067      0.0095      0.0064
         4        -0.8644     -0.1034     -0.0002      0.9680      0.6453
         5        -0.0091     -0.0114     -0.0098      0.0304      0.0203
         6        -0.0577     -0.0007     -0.0005      0.0590      0.0393

 Excitation energies and oscillator strengths:
 
 Excited State   1:      Singlet-A      5.1146 eV  242.41 nm  f=0.0362  <S**2>=0.000
      30 -> 32         0.57909
      31 -> 32        -0.12992
      31 -> 36        -0.33541
 This state for optimization and/or second-order correction.
 Total Energy, E(TD-HF/TD-DFT) =  -363.540633085    
 Copying the excited state density for this state as the 1-particle RhoCI density.
 
 Excited State   2:      Singlet-A      5.2344 eV  236.86 nm  f=0.1315  <S**2>=0.000
      30 -> 36         0.21180
      31 -> 32         0.64950
 
 Excited State   3:      Singlet-A      6.0055 eV  206.45 nm  f=0.0075  <S**2>=0.000
      29 -> 33         0.10612
      31 -> 33         0.64778
      31 -> 40         0.15307
 
 Excited State   4:      Singlet-A      6.4439 eV  192.41 nm  f=0.6609  <S**2>=0.000
      30 -> 32         0.33910
      31 -> 34         0.14134
      31 -> 36         0.55806
 
 Excited State   5:      Singlet-A      6.4757 eV  191.46 nm  f=0.0203  <S**2>=0.000
      30 -> 33         0.57192
      30 -> 34        -0.13070
      30 -> 40         0.16985
      31 -> 34         0.20819
      31 -> 35        -0.12478
      31 -> 36        -0.10301
 
 Excited State   6:      Singlet-A      6.6767 eV  185.70 nm  f=0.0403  <S**2>=0.000
      29 -> 33         0.12062
      30 -> 33        -0.17289
      30 -> 36         0.11656
      31 -> 34         0.56965
      31 -> 35         0.10665
      31 -> 36        -0.11393
      31 -> 40        -0.12618
      31 -> 43         0.11980
 SavETr:  write IOETrn=   770 NScale= 10 NData=  16 NLR=1 NState=    6 LETran=     118.
          IDoAtm=1111111111111111
          Differentiating once with respect to electric field.
                with respect to dipole field.
          Differentiating once with respect to nuclear coordinates.
          There are     1 degrees of freedom in the 1st order CPHF.  IDoFFX=0 NUNeed=     1.
 LinEq1:  Iter=  0 NonCon=     1 RMS=3.38D-03 Max=6.80D-02 NDo=     1
 AX will form     1 AO Fock derivatives at one time.
 LinEq1:  Iter=  1 NonCon=     1 RMS=1.33D-03 Max=4.17D-02 NDo=     1
 LinEq1:  Iter=  2 NonCon=     1 RMS=6.01D-04 Max=1.31D-02 NDo=     1
 LinEq1:  Iter=  3 NonCon=     1 RMS=3.23D-04 Max=1.01D-02 NDo=     1
 LinEq1:  Iter=  4 NonCon=     1 RMS=1.24D-04 Max=2.65D-03 NDo=     1
 LinEq1:  Iter=  5 NonCon=     1 RMS=5.94D-05 Max=1.97D-03 NDo=     1
 LinEq1:  Iter=  6 NonCon=     1 RMS=2.44D-05 Max=6.83D-04 NDo=     1
 LinEq1:  Iter=  7 NonCon=     1 RMS=9.44D-06 Max=1.65D-04 NDo=     1
 LinEq1:  Iter=  8 NonCon=     1 RMS=4.56D-06 Max=9.79D-05 NDo=     1
 LinEq1:  Iter=  9 NonCon=     1 RMS=1.47D-06 Max=3.11D-05 NDo=     1
 LinEq1:  Iter= 10 NonCon=     1 RMS=7.17D-07 Max=1.44D-05 NDo=     1
 LinEq1:  Iter= 11 NonCon=     1 RMS=2.79D-07 Max=8.76D-06 NDo=     1
 LinEq1:  Iter= 12 NonCon=     1 RMS=1.31D-07 Max=2.55D-06 NDo=     1
 LinEq1:  Iter= 13 NonCon=     1 RMS=4.44D-08 Max=7.88D-07 NDo=     1
 LinEq1:  Iter= 14 NonCon=     1 RMS=1.88D-08 Max=2.54D-07 NDo=     1
 LinEq1:  Iter= 15 NonCon=     1 RMS=6.18D-09 Max=9.39D-08 NDo=     1
 LinEq1:  Iter= 16 NonCon=     1 RMS=1.46D-09 Max=2.34D-08 NDo=     1
 LinEq1:  Iter= 17 NonCon=     1 RMS=6.65D-10 Max=1.23D-08 NDo=     1
 LinEq1:  Iter= 18 NonCon=     1 RMS=1.98D-10 Max=3.80D-09 NDo=     1
 LinEq1:  Iter= 19 NonCon=     0 RMS=4.44D-11 Max=6.64D-10 NDo=     1
 Linear equations converged to 1.000D-10 1.000D-09 after    19 iterations.
 End of Minotr F.D. properties file   721 does not exist.
 End of Minotr F.D. properties file   722 does not exist.
 End of Minotr F.D. properties file   788 does not exist.

 **********************************************************************

            Population analysis using the CI Density.

 **********************************************************************

 Orbital symmetries:
       Occupied  (A) (A) (A) (A) (A) (A) (A) (A) (A) (A) (A) (A)
                 (A) (A) (A) (A) (A) (A) (A) (A) (A) (A) (A) (A)
                 (A) (A) (A) (A) (A) (A) (A)
       Virtual   (A) (A) (A) (A) (A) (A) (A) (A) (A) (A) (A) (A)
                 (A) (A) (A) (A) (A) (A) (A) (A) (A) (A) (A) (A)
                 (A) (A) (A) (A) (A) (A) (A) (A) (A) (A) (A) (A)
                 (A) (A) (A) (A) (A) (A) (A) (A) (A) (A) (A) (A)
                 (A) (A) (A) (A) (A) (A) (A) (A) (A) (A) (A) (A)
                 (A) (A) (A) (A) (A) (A) (A) (A) (A) (A) (A) (A)
                 (A) (A) (A) (A) (A) (A) (A) (A) (A) (A) (A) (A)
                 (A) (A) (A) (A) (A) (A) (A) (A) (A) (A) (A) (A)
                 (A) (A) (A) (A) (A) (A) (A) (A) (A) (A) (A) (A)
                 (A) (A) (A) (A) (A) (A) (A) (A) (A) (A) (A) (A)
                 (A) (A) (A) (A) (A) (A) (A) (A) (A) (A) (A) (A)
                 (A) (A) (A) (A) (A) (A) (A) (A) (A) (A) (A) (A)
                 (A) (A) (A) (A) (A) (A) (A) (A) (A) (A)
 The electronic state is 1-A.
 Alpha  occ. eigenvalues --  -14.46315 -10.31043 -10.30731 -10.27810 -10.27378
 Alpha  occ. eigenvalues --  -10.27303 -10.27238 -10.26778 -10.26367  -1.11474
 Alpha  occ. eigenvalues --   -0.97367  -0.91437  -0.86524  -0.84691  -0.74717
 Alpha  occ. eigenvalues --   -0.71590  -0.70193  -0.65683  -0.59586  -0.58459
 Alpha  occ. eigenvalues --   -0.54586  -0.54009  -0.53862  -0.51903  -0.49785
 Alpha  occ. eigenvalues --   -0.45955  -0.44549  -0.43613  -0.38109  -0.31171
 Alpha  occ. eigenvalues --   -0.29418
 Alpha virt. eigenvalues --    0.05772   0.06647   0.08376   0.08827   0.09733
 Alpha virt. eigenvalues --    0.10122   0.10477   0.11934   0.12434   0.12931
 Alpha virt. eigenvalues --    0.13051   0.13423   0.15181   0.15920   0.16930
 Alpha virt. eigenvalues --    0.16983   0.17895   0.19487   0.20692   0.20817
 Alpha virt. eigenvalues --    0.22153   0.22545   0.23408   0.23881   0.23956
 Alpha virt. eigenvalues --    0.25365   0.25500   0.25905   0.26530   0.27209
 Alpha virt. eigenvalues --    0.27580   0.28856   0.28942   0.29869   0.30261
 Alpha virt. eigenvalues --    0.30552   0.31286   0.31510   0.32705   0.33280
 Alpha virt. eigenvalues --    0.34335   0.34549   0.36174   0.37455   0.38834
 Alpha virt. eigenvalues --    0.39896   0.39926   0.41406   0.43284   0.45906
 Alpha virt. eigenvalues --    0.46780   0.49271   0.53812   0.54758   0.61497
 Alpha virt. eigenvalues --    0.68369   0.72872   0.77663   0.77920   0.80339
 Alpha virt. eigenvalues --    0.82112   0.82489   0.83849   0.84200   0.84823
 Alpha virt. eigenvalues --    0.85701   0.86468   0.88276   0.89663   0.90608
 Alpha virt. eigenvalues --    0.92214   0.95853   1.00117   1.00960   1.02109
 Alpha virt. eigenvalues --    1.04395   1.04882   1.05891   1.07075   1.09057
 Alpha virt. eigenvalues --    1.10883   1.13484   1.15290   1.17206   1.20033
 Alpha virt. eigenvalues --    1.22024   1.22385   1.27648   1.28674   1.31120
 Alpha virt. eigenvalues --    1.32959   1.34713   1.36130   1.41998   1.43157
 Alpha virt. eigenvalues --    1.44507   1.47298   1.52106   1.52245   1.55707
 Alpha virt. eigenvalues --    1.56857   1.57295   1.60503   1.61586   1.65092
 Alpha virt. eigenvalues --    1.69610   1.75778   1.89408   1.95042   1.98841
 Alpha virt. eigenvalues --    1.99890   2.02143   2.03909   2.09465   2.10410
 Alpha virt. eigenvalues --    2.11430   2.16846   2.20364   2.24598   2.27622
 Alpha virt. eigenvalues --    2.28310   2.30234   2.35824   2.36756   2.37348
 Alpha virt. eigenvalues --    2.38901   2.42304   2.48892   2.51750   2.55096
 Alpha virt. eigenvalues --    2.65227   2.66598   2.74424   2.76519   2.77416
 Alpha virt. eigenvalues --    2.80674   2.84623   2.91597   2.95014   2.96651
 Alpha virt. eigenvalues --    3.06368   3.08105   3.21602   3.35041   3.54345
 Alpha virt. eigenvalues --    4.26566   4.37967   4.41024   4.44454   4.47913
 Alpha virt. eigenvalues --    4.51754   4.59883   4.64060   4.90223
          Condensed to atoms (all electrons):
               1          2          3          4          5          6
     1  C    5.871674   0.380845   0.090117  -0.544854  -0.093370  -0.081874
     2  C    0.380845   5.989809   0.014005   0.182615  -0.641313   0.401328
     3  C    0.090117   0.014005  11.414467  -1.783336  -2.481834  -2.337419
     4  C   -0.544854   0.182615  -1.783336  11.652005  -2.423121  -0.676864
     5  C   -0.093370  -0.641313  -2.481834  -2.423121  12.527449  -0.501095
     6  C   -0.081874   0.401328  -2.337419  -0.676864  -0.501095  11.479023
     7  N   -0.023050   0.011427  -0.445889  -0.203306   0.704956   0.133245
     8  C    0.140249  -0.234102   2.472620   0.877332  -3.626373  -2.781823
     9  C   -0.060604   0.032439  -0.946642  -0.476173   1.427887   0.792984
    10  H   -0.001829  -0.006795  -0.106674  -0.072953   0.143125   0.024097
    11  H    0.002777   0.000701   0.000184   0.033021  -0.001061  -0.019813
    12  H    0.000776   0.000305   0.018877   0.063194  -0.054090  -0.016338
    13  H   -0.015880   0.314850  -0.020720   0.022880   0.004392   0.011928
    14  H    0.015525   0.026044   0.256477   0.013299   0.006536  -0.012518
    15  H    0.308060  -0.002097   0.021347  -0.018327   0.029093  -0.027655
    16  H   -0.003538   0.010963  -0.028528   0.037393   0.070669   0.253810
               7          8          9         10         11         12
     1  C   -0.023050   0.140249  -0.060604  -0.001829   0.002777   0.000776
     2  C    0.011427  -0.234102   0.032439  -0.006795   0.000701   0.000305
     3  C   -0.445889   2.472620  -0.946642  -0.106674   0.000184   0.018877
     4  C   -0.203306   0.877332  -0.476173  -0.072953   0.033021   0.063194
     5  C    0.704956  -3.626373   1.427887   0.143125  -0.001061  -0.054090
     6  C    0.133245  -2.781823   0.792984   0.024097  -0.019813  -0.016338
     7  N    7.253803  -0.647925   0.501975   0.288867   0.006576  -0.050416
     8  C   -0.647925  10.825840  -1.474238  -0.010287   0.319735   0.013584
     9  C    0.501975  -1.474238   6.206950  -0.009503  -0.029356   0.345572
    10  H    0.288867  -0.010287  -0.009503   0.312822  -0.000073  -0.001898
    11  H    0.006576   0.319735  -0.029356  -0.000073   0.464865  -0.000511
    12  H   -0.050416   0.013584   0.345572  -0.001898  -0.000511   0.459116
    13  H   -0.000257  -0.001308   0.001267  -0.000001   0.000000  -0.000000
    14  H   -0.001534  -0.009308   0.010469   0.001473   0.000001   0.000002
    15  H    0.000195   0.004707  -0.000136  -0.000000  -0.000001  -0.000000
    16  H   -0.000648  -0.038595   0.004470   0.000003   0.001127  -0.000001
              13         14         15         16
     1  C   -0.015880   0.015525   0.308060  -0.003538
     2  C    0.314850   0.026044  -0.002097   0.010963
     3  C   -0.020720   0.256477   0.021347  -0.028528
     4  C    0.022880   0.013299  -0.018327   0.037393
     5  C    0.004392   0.006536   0.029093   0.070669
     6  C    0.011928  -0.012518  -0.027655   0.253810
     7  N   -0.000257  -0.001534   0.000195  -0.000648
     8  C   -0.001308  -0.009308   0.004707  -0.038595
     9  C    0.001267   0.010469  -0.000136   0.004470
    10  H   -0.000001   0.001473  -0.000000   0.000003
    11  H    0.000000   0.000001  -0.000001   0.001127
    12  H   -0.000000   0.000002  -0.000000  -0.000001
    13  H    0.488737  -0.003084  -0.003124  -0.000115
    14  H   -0.003084   0.493007  -0.000112   0.000012
    15  H   -0.003124  -0.000112   0.481637  -0.002847
    16  H   -0.000115   0.000012  -0.002847   0.488244
 Mulliken charges:
               1
     1  C    0.014975
     2  C   -0.481024
     3  C   -0.137053
     4  C   -0.682805
     5  C    0.908147
     6  C   -0.641016
     7  N   -0.528020
     8  C    0.169893
     9  C   -0.327361
    10  H    0.439628
    11  H    0.221827
    12  H    0.221827
    13  H    0.200433
    14  H    0.203709
    15  H    0.209259
    16  H    0.207580
 Sum of Mulliken charges =  -0.00000
 Mulliken charges with hydrogens summed into heavy atoms:
               1
     1  C    0.224234
     2  C   -0.280591
     3  C    0.066656
     4  C   -0.682805
     5  C    0.908147
     6  C   -0.433436
     7  N   -0.088392
     8  C    0.391720
     9  C   -0.105533
 Electronic spatial extent (au):  <R**2>=           1012.9211
 Charge=             -0.0000 electrons
 Dipole moment (field-independent basis, Debye):
    X=              1.8833    Y=             -1.2395    Z=              0.0044  Tot=              2.2546
 Quadrupole moment (field-independent basis, Debye-Ang):
   XX=            -45.9001   YY=            -45.4889   ZZ=            -59.6570
   XY=             -4.0030   XZ=             -0.0862   YZ=             -0.0101
 Traceless Quadrupole moment (field-independent basis, Debye-Ang):
   XX=              4.4486   YY=              4.8598   ZZ=             -9.3084
   XY=             -4.0030   XZ=             -0.0862   YZ=             -0.0101
 Octapole moment (field-independent basis, Debye-Ang**2):
  XXX=             15.2968  YYY=             -9.3728  ZZZ=             -0.0166  XYY=             10.9806
  XXY=             -6.3516  XXZ=              0.4097  XZZ=              2.7736  YZZ=             -1.1889
  YYZ=             -0.3131  XYZ=             -0.4491
 Hexadecapole moment (field-independent basis, Debye-Ang**3):
 XXXX=           -834.1845 YYYY=           -379.1346 ZZZZ=            -78.7692 XXXY=            -28.1157
 XXXZ=             -1.1955 YYYX=            -20.2059 YYYZ=             -0.6607 ZZZX=             -0.0492
 ZZZY=             -0.0687 XXYY=           -196.3628 XXZZ=           -196.2718 YYZZ=            -98.5976
 XXYZ=              0.7034 YYXZ=              0.1189 ZZXY=             -4.5156
 N-N= 4.000099183022D+02 E-N=-1.642205977402D+03  KE= 3.603850662765D+02
 Calling FoFJK, ICntrl=  10005127 FMM=F ISym2X=0 I1Cent= 0 IOpClX= 0 NMat=1 NMatS=1 NMatT=0.
 ***** Axes restored to original set *****
 -------------------------------------------------------------------
 Center     Atomic                   Forces (Hartrees/Bohr)
 Number     Number              X              Y              Z
 -------------------------------------------------------------------
      1        6          -0.024216847   -0.005006606   -0.000727051
      2        6          -0.029067669   -0.004117158    0.001657226
      3        6           0.012970403   -0.027183639   -0.001325689
      4        6           0.017913617   -0.022931077    0.001157816
      5        6           0.006583037    0.020522269   -0.001691241
      6        6           0.021865578    0.030315983    0.000310821
      7        7          -0.028475772   -0.001369824    0.000070168
      8        6          -0.002647245   -0.001897723    0.000561753
      9        6           0.017745734    0.012764858   -0.000781904
     10        1          -0.000444881   -0.000699501   -0.000013340
     11        1           0.000311077    0.000660326    0.000294617
     12        1           0.000430073    0.000172049    0.000026119
     13        1           0.002027827    0.001254828    0.000642068
     14        1          -0.000140720    0.002158943    0.000164248
     15        1           0.004784204   -0.002174062   -0.001255401
     16        1           0.000361585   -0.002469666    0.000909791
 -------------------------------------------------------------------
 Cartesian Forces:  Max     0.030315983 RMS     0.011591147

 GradGradGradGradGradGradGradGradGradGradGradGradGradGradGradGradGradGrad
 Berny optimization.
 FormGI is forming the generalized inverse of G from B-inverse, IUseBI=4.
 Internal  Forces:  Max     0.032882503 RMS     0.006709610
 Search for a local minimum.
 Step number   1 out of a maximum of   94
 All quantities printed in internal units (Hartrees-Bohrs-Radians)
 Mixed Optimization -- RFO/linear search
 Second derivative matrix not updated -- first step.
 ITU=  0
     Eigenvalues ---    0.01796   0.01876   0.01936   0.01957   0.02014
     Eigenvalues ---    0.02077   0.02091   0.02104   0.02135   0.02150
     Eigenvalues ---    0.02171   0.02192   0.02277   0.15995   0.15997
     Eigenvalues ---    0.15999   0.15999   0.16000   0.16000   0.16000
     Eigenvalues ---    0.21967   0.22184   0.22640   0.24007   0.24641
     Eigenvalues ---    0.34301   0.34775   0.34841   0.34849   0.35843
     Eigenvalues ---    0.35881   0.36568   0.37979   0.41971   0.43107
     Eigenvalues ---    0.45016   0.46141   0.46401   0.46720   0.46776
     Eigenvalues ---    0.47290   0.50149
 RFO step:  Lambda=-8.87431328D-03 EMin= 1.79641872D-02
 Linear search not attempted -- first point.
 Iteration  1 RMS(Cart)=  0.02318404 RMS(Int)=  0.00025851
 Iteration  2 RMS(Cart)=  0.00027623 RMS(Int)=  0.00011329
 Iteration  3 RMS(Cart)=  0.00000009 RMS(Int)=  0.00011329
 Variable       Old X    -DE/DX   Delta X   Delta X   Delta X     New X
                                 (Linear)    (Quad)   (Total)
    R1        2.65763   0.01560   0.00000   0.03525   0.03520   2.69284
    R2        2.62302   0.03288   0.00000   0.06804   0.06801   2.69103
    R3        2.06825  -0.00531   0.00000  -0.01509  -0.01509   2.05316
    R4        2.62246   0.02548   0.00000   0.05304   0.05302   2.67548
    R5        2.05920  -0.00239   0.00000  -0.00670  -0.00670   2.05250
    R6        2.64564   0.01422   0.00000   0.03026   0.03029   2.67593
    R7        2.05934  -0.00216   0.00000  -0.00605  -0.00605   2.05329
    R8        2.68977   0.02541   0.00000   0.05819   0.05816   2.74792
    R9        2.60613  -0.01544   0.00000  -0.03140  -0.03138   2.57475
   R10        2.65581   0.00433   0.00000   0.00886   0.00887   2.66468
   R11        2.71547   0.00007   0.00000   0.00085   0.00078   2.71626
   R12        2.06041  -0.00250   0.00000  -0.00702  -0.00702   2.05339
   R13        2.61450   0.01882   0.00000   0.03784   0.03793   2.65243
   R14        1.90381   0.00052   0.00000   0.00111   0.00111   1.90492
   R15        2.58787   0.00035   0.00000   0.00108   0.00112   2.58899
   R16        2.04327   0.00072   0.00000   0.00197   0.00197   2.04525
   R17        2.04268   0.00041   0.00000   0.00111   0.00111   2.04379
    A1        2.11021   0.00598   0.00000   0.02946   0.02924   2.13945
    A2        2.08048  -0.00264   0.00000  -0.01262  -0.01259   2.06789
    A3        2.09247  -0.00333   0.00000  -0.01671  -0.01668   2.07579
    A4        2.11832  -0.00383   0.00000  -0.01282  -0.01302   2.10530
    A5        2.07961   0.00184   0.00000   0.00608   0.00614   2.08575
    A6        2.08500   0.00200   0.00000   0.00701   0.00708   2.09208
    A7        2.04953  -0.00404   0.00000  -0.01619  -0.01630   2.03323
    A8        2.11773   0.00191   0.00000   0.00751   0.00755   2.12528
    A9        2.11584   0.00213   0.00000   0.00878   0.00882   2.12466
   A10        2.13411   0.00654   0.00000   0.02472   0.02472   2.15884
   A11        2.27810  -0.00158   0.00000  -0.00429  -0.00423   2.27387
   A12        1.87093  -0.00496   0.00000  -0.02043  -0.02049   1.85044
   A13        2.06944   0.00037   0.00000  -0.00083  -0.00081   2.06863
   A14        1.86461   0.00063   0.00000   0.00368   0.00352   1.86812
   A15        2.34906  -0.00100   0.00000  -0.00274  -0.00264   2.34642
   A16        2.08151  -0.00493   0.00000  -0.02149  -0.02163   2.05988
   A17        2.10290   0.00275   0.00000   0.01247   0.01253   2.11543
   A18        2.09860   0.00218   0.00000   0.00914   0.00920   2.10780
   A19        1.90817   0.00661   0.00000   0.02618   0.02626   1.93443
   A20        2.18895  -0.00391   0.00000  -0.01669  -0.01673   2.17221
   A21        2.18607  -0.00270   0.00000  -0.00949  -0.00953   2.17654
   A22        1.87017   0.00122   0.00000   0.00653   0.00647   1.87664
   A23        2.21386  -0.00055   0.00000  -0.00288  -0.00285   2.21101
   A24        2.19915  -0.00068   0.00000  -0.00366  -0.00364   2.19551
   A25        1.91087  -0.00350   0.00000  -0.01584  -0.01576   1.89511
   A26        2.09958   0.00198   0.00000   0.00929   0.00923   2.10881
   A27        2.27270   0.00153   0.00000   0.00662   0.00656   2.27926
    D1        0.08496  -0.00114   0.00000  -0.03882  -0.03900   0.04596
    D2       -3.08112  -0.00071   0.00000  -0.02571  -0.02598  -3.10710
    D3       -3.06462  -0.00066   0.00000  -0.01988  -0.01982  -3.08444
    D4        0.05248  -0.00022   0.00000  -0.00677  -0.00680   0.04568
    D5       -0.08896   0.00103   0.00000   0.03708   0.03722  -0.05174
    D6        3.07230   0.00075   0.00000   0.02977   0.03004   3.10234
    D7        3.06067   0.00053   0.00000   0.01799   0.01794   3.07861
    D8       -0.06125   0.00026   0.00000   0.01068   0.01076  -0.05049
    D9       -0.03480   0.00069   0.00000   0.01980   0.01949  -0.01532
   D10        3.12057   0.00038   0.00000   0.01166   0.01149   3.13206
   D11        3.13135   0.00025   0.00000   0.00666   0.00643   3.13779
   D12        0.00354  -0.00006   0.00000  -0.00148  -0.00156   0.00198
   D13       -0.00812  -0.00001   0.00000   0.00115   0.00111  -0.00701
   D14       -3.13901  -0.00006   0.00000   0.00071   0.00078  -3.13824
   D15        3.11971   0.00029   0.00000   0.00927   0.00909   3.12880
   D16       -0.01119   0.00024   0.00000   0.00883   0.00876  -0.00243
   D17        0.00259  -0.00013   0.00000  -0.00246  -0.00231   0.00028
   D18       -3.12801  -0.00040   0.00000  -0.01129  -0.01112  -3.13913
   D19        3.13567  -0.00009   0.00000  -0.00209  -0.00202   3.13365
   D20        0.00507  -0.00036   0.00000  -0.01092  -0.01084  -0.00576
   D21        3.13110   0.00020   0.00000   0.00325   0.00309   3.13419
   D22       -0.00902   0.00017   0.00000   0.00320   0.00309  -0.00593
   D23       -0.00102   0.00010   0.00000   0.00266   0.00259   0.00157
   D24       -3.14114   0.00007   0.00000   0.00261   0.00259  -3.13855
   D25        0.04569  -0.00074   0.00000  -0.01790  -0.01755   0.02814
   D26       -3.11552  -0.00046   0.00000  -0.01057  -0.01036  -3.12588
   D27       -3.11068  -0.00036   0.00000  -0.00597  -0.00569  -3.11637
   D28        0.01129  -0.00008   0.00000   0.00136   0.00150   0.01279
   D29       -0.00728   0.00048   0.00000   0.01517   0.01520   0.00792
   D30        3.13205   0.00031   0.00000   0.01030   0.01032  -3.14081
   D31       -3.13531   0.00013   0.00000   0.00424   0.00432  -3.13099
   D32        0.00402  -0.00004   0.00000  -0.00063  -0.00056   0.00346
   D33       -0.00369   0.00023   0.00000   0.00722   0.00716   0.00347
   D34       -3.13774  -0.00007   0.00000  -0.00206  -0.00204  -3.13978
   D35        3.13643   0.00026   0.00000   0.00726   0.00715  -3.13960
   D36        0.00238  -0.00004   0.00000  -0.00202  -0.00205   0.00034
   D37        0.00679  -0.00044   0.00000  -0.01390  -0.01381  -0.00703
   D38        3.13985  -0.00011   0.00000  -0.00341  -0.00341   3.13644
   D39       -3.13257  -0.00028   0.00000  -0.00908  -0.00899  -3.14156
   D40        0.00050   0.00005   0.00000   0.00141   0.00141   0.00191
         Item               Value     Threshold  Converged?
 Maximum Force            0.032883     0.000450     NO 
 RMS     Force            0.006710     0.000300     NO 
 Maximum Displacement     0.072491     0.001800     NO 
 RMS     Displacement     0.023144     0.001200     NO 
 Predicted change in Energy=-4.564511D-03
 GradGradGradGradGradGradGradGradGradGradGradGradGradGradGradGradGradGrad

                          Input orientation:                          
 ---------------------------------------------------------------------
 Center     Atomic      Atomic             Coordinates (Angstroms)
 Number     Number       Type             X           Y           Z
 ---------------------------------------------------------------------
      1          6           0       -2.166227    0.685751    0.013758
      2          6           0       -2.160897   -0.739066   -0.007650
      3          6           0       -0.939963   -1.455871   -0.004244
      4          6           0        0.246435   -0.682825    0.001793
      5          6           0        0.261818    0.771220   -0.003927
      6          6           0       -0.969883    1.457603   -0.015828
      7          7           0        1.551956   -1.072725    0.002646
      8          6           0        1.640490    1.177787    0.001682
      9          6           0        2.405703    0.041372   -0.000118
     10          1           0        1.860614   -2.032349    0.003729
     11          1           0        2.015120    2.193178    0.000272
     12          1           0        3.479982   -0.083636   -0.001574
     13          1           0       -3.104173   -1.277450   -0.015894
     14          1           0       -0.914275   -2.542095   -0.011507
     15          1           0       -3.122158    1.199589    0.064934
     16          1           0       -1.000892    2.543597   -0.035084
 ---------------------------------------------------------------------
                    Distance matrix (angstroms):
                    1          2          3          4          5
     1  C    0.000000
     2  C    1.424988   0.000000
     3  C    2.467912   1.415803   0.000000
     4  C    2.773820   2.408007   1.416042   0.000000
     5  C    2.429613   2.854913   2.530654   1.454138   0.000000
     6  C    1.424032   2.498787   2.913650   2.461945   1.410089
     7  N    4.113057   3.727829   2.521211   1.362501   2.250474
     8  C    3.838403   4.257341   3.687130   2.324924   1.437381
     9  C    4.617137   4.632815   3.665410   2.277478   2.264716
    10  H    4.858355   4.224365   2.859305   2.103995   3.227415
    11  H    4.444792   5.102669   4.695540   3.376336   2.257443
    12  H    5.698409   5.678832   4.628061   3.288596   3.329769
    13  H    2.175955   1.086138   2.171583   3.403008   3.940443
    14  H    3.462227   2.192030   1.086553   2.191873   3.515866
    15  H    1.086486   2.165104   3.437764   3.859389   3.411676
    16  H    2.193623   3.481701   4.000051   3.459333   2.176402
                    6          7          8          9         10
     6  C    0.000000
     7  N    3.572474   0.000000
     8  C    2.625386   2.252253   0.000000
     9  C    3.660675   1.403604   1.370034   0.000000
    10  H    4.493536   1.008042   3.217675   2.144168   0.000000
    11  H    3.074341   3.298583   1.082297   2.186967   4.228352
    12  H    4.709238   2.166933   2.230455   1.081529   2.533745
    13  H    3.469251   4.660664   5.342315   5.665534   5.021889
    14  H    4.000087   2.870809   4.512707   4.206743   2.821362
    15  H    2.169188   5.197559   4.763117   5.648269   5.939460
    16  H    1.086608   4.426765   2.973834   4.226966   5.397130
                   11         12         13         14         15
    11  H    0.000000
    12  H    2.707343   0.000000
    13  H    6.184875   6.691524   0.000000
    14  H    5.568151   5.035237   2.528834   0.000000
    15  H    5.232879   6.726019   2.478422   4.345203   0.000000
    16  H    3.036507   5.194392   4.361715   5.086485   2.513191
                   16
    16  H    0.000000
 Stoichiometry    C8H7N
 Framework group  C1[X(C8H7N)]
 Deg. of freedom    42
 Full point group                 C1      NOp   1
 Largest Abelian subgroup         C1      NOp   1
 Largest concise Abelian subgroup C1      NOp   1
                         Standard orientation:                         
 ---------------------------------------------------------------------
 Center     Atomic      Atomic             Coordinates (Angstroms)
 Number     Number       Type             X           Y           Z
 ---------------------------------------------------------------------
      1          6           0       -2.155259    0.718224    0.014541
      2          6           0       -2.171634   -0.706506   -0.007095
      3          6           0       -0.961763   -1.441829   -0.003604
      4          6           0        0.236274   -0.686950    0.002753
      5          6           0        0.273809    0.766693   -0.002731
      6          6           0       -0.947290    1.471763   -0.014725
      7          7           0        1.535703   -1.096695    0.003759
      8          6           0        1.658515    1.152207    0.003170
      9          6           0        2.406325    0.004266    0.001314
     10          1           0        1.829705   -2.060911    0.004738
     11          1           0        2.048571    2.161772    0.001984
     12          1           0        3.478575   -0.137095    0.000014
     13          1           0       -3.123002   -1.230454   -0.015580
     14          1           0       -0.952626   -2.528318   -0.011036
     15          1           0       -3.103259    1.246558    0.065642
     16          1           0       -0.961746    2.558108   -0.033812
 ---------------------------------------------------------------------
 Rotational constants (GHZ):           3.7782412           1.6173351           1.1325978
 Standard basis: 6-31+G(d) (6D, 7F)
 There are   185 symmetry adapted cartesian basis functions of A   symmetry.
 There are   185 symmetry adapted basis functions of A   symmetry.
   185 basis functions,   316 primitive gaussians,   185 cartesian basis functions
    31 alpha electrons       31 beta electrons
       nuclear repulsion energy       396.8696818860 Hartrees.
 NAtoms=   16 NActive=   16 NUniq=   16 SFac= 1.00D+00 NAtFMM=   60 NAOKFM=F Big=F
 Integral buffers will be    131072 words long.
 Raffenetti 1 integral format.
 Two-electron integral symmetry is turned on.
 One-electron integrals computed using PRISM.
 NBasis=   185 RedAO= T EigKep=  1.49D-06  NBF=   185
 NBsUse=   185 1.00D-06 EigRej= -1.00D+00 NBFU=   185
 Initial guess from the checkpoint file:  "FuncsWB97X.chk"
 B after Tr=     0.000000    0.000000    0.000000
         Rot=    0.999974   -0.000015    0.000005    0.007271 Ang=  -0.83 deg.
 ExpMin= 4.38D-02 ExpMax= 4.17D+03 ExpMxC= 6.27D+02 IAcc=3 IRadAn=         5 AccDes= 0.00D+00
 Harris functional with IExCor= 4538 and IRadAn=       5 diagonalized for initial guess.
 HarFok:  IExCor= 4538 AccDes= 0.00D+00 IRadAn=         5 IDoV= 1 UseB2=F ITyADJ=14
 ICtDFT=  3500011 ScaDFX=  1.000000  1.000000  1.000000  1.000000
 FoFCou: FMM=F IPFlag=           0 FMFlag=      100000 FMFlg1=           0
         NFxFlg=           0 DoJE=T BraDBF=F KetDBF=T FulRan=T
         wScrn=  0.000000 ICntrl=       500 IOpCl=  0 I1Cent=   200000004 NGrid=           0
         NMat0=    1 NMatS0=      1 NMatT0=    0 NMatD0=    1 NMtDS0=    0 NMtDT0=    0
 Petite list used in FoFCou.
 Requested convergence on RMS density matrix=1.00D-08 within 128 cycles.
 Requested convergence on MAX density matrix=1.00D-06.
 Requested convergence on             energy=1.00D-06.
 No special actions if energy rises.
 SCF Done:  E(RwB97X) =  -363.724158099     A.U. after   15 cycles
            NFock= 15  Conv=0.62D-08     -V/T= 2.0107
 DoSCS=F DFT=T ScalE2(SS,OS)=  1.000000  1.000000
 ExpMin= 4.38D-02 ExpMax= 4.17D+03 ExpMxC= 6.27D+02 IAcc=3 IRadAn=         5 AccDes= 0.00D+00
 HarFok:  IExCor=  205 AccDes= 0.00D+00 IRadAn=         5 IDoV=-2 UseB2=F ITyADJ=14
 ICtDFT= 12500011 ScaDFX=  1.000000  1.000000  1.000000  1.000000
 Range of M.O.s used for correlation:    10   185
 NBasis=   185 NAE=    31 NBE=    31 NFC=     9 NFV=     0
 NROrb=    176 NOA=    22 NOB=    22 NVA=   154 NVB=   154

 **** Warning!!: The largest alpha MO coefficient is  0.17367819D+03

 Orbital symmetries:
       Occupied  (A) (A) (A) (A) (A) (A) (A) (A) (A) (A) (A) (A)
                 (A) (A) (A) (A) (A) (A) (A) (A) (A) (A) (A) (A)
                 (A) (A) (A) (A) (A) (A) (A)
       Virtual   (A) (A) (A) (A) (A) (A) (A) (A) (A) (A) (A) (A)
                 (A) (A) (A) (A) (A) (A) (A) (A) (A) (A) (A) (A)
                 (A) (A) (A) (A) (A) (A) (A) (A) (A) (A) (A) (A)
                 (A) (A) (A) (A) (A) (A) (A) (A) (A) (A) (A) (A)
                 (A) (A) (A) (A) (A) (A) (A) (A) (A) (A) (A) (A)
                 (A) (A) (A) (A) (A) (A) (A) (A) (A) (A) (A) (A)
                 (A) (A) (A) (A) (A) (A) (A) (A) (A) (A) (A) (A)
                 (A) (A) (A) (A) (A) (A) (A) (A) (A) (A) (A) (A)
                 (A) (A) (A) (A) (A) (A) (A) (A) (A) (A) (A) (A)
                 (A) (A) (A) (A) (A) (A) (A) (A) (A) (A) (A) (A)
                 (A) (A) (A) (A) (A) (A) (A) (A) (A) (A) (A) (A)
                 (A) (A) (A) (A) (A) (A) (A) (A) (A) (A) (A) (A)
                 (A) (A) (A) (A) (A) (A) (A) (A) (A) (A)
 Generating guess from densities on rwf.
 Convergence on wavefunction:    0.000001000000000
 Iteration     1 Dimension    12 NMult     0 NNew     12
 CISAX will form    12 AO SS matrices at one time.
 Iteration     2 Dimension    24 NMult    12 NNew     12
 New state      4 was old state      5
 New state      5 was old state      4
 Iteration     3 Dimension    36 NMult    24 NNew     12
 Iteration     4 Dimension    48 NMult    36 NNew     12
 Iteration     5 Dimension    60 NMult    48 NNew     12
 Iteration     6 Dimension    72 NMult    60 NNew     12
 Iteration     7 Dimension    84 NMult    72 NNew     12
 Iteration     8 Dimension    96 NMult    84 NNew     12
 Iteration     9 Dimension   108 NMult    96 NNew     12
 Iteration    10 Dimension   118 NMult   108 NNew     10
 Iteration    11 Dimension   128 NMult   118 NNew     10
 Iteration    12 Dimension   136 NMult   128 NNew      8
 Iteration    13 Dimension   142 NMult   136 NNew      6
 Iteration    14 Dimension   148 NMult   142 NNew      6
 Iteration    15 Dimension   150 NMult   148 NNew      2
 Iteration    16 Dimension   152 NMult   150 NNew      2
 ***********************************************************************
 Excited states from <AA,BB:AA,BB> singles matrix:
 ***********************************************************************
 
 Ground to excited state transition densities written to RWF  633
 Ground to excited state transition electric dipole moments (Au):
       state          X           Y           Z        Dip. S.      Osc.
         1         0.4694      0.4798     -0.0019      0.4505      0.0537
         2         0.7173     -0.6217      0.0011      0.9010      0.1131
         3        -0.1194     -0.0174     -0.1682      0.0429      0.0063
         4         0.8083      0.0589     -0.2087      0.7004      0.1091
         5         2.0431      0.5483      0.0675      4.4795      0.6987
         6         0.9068     -1.0074      0.0258      1.8377      0.2945
 Ground to excited state transition velocity dipole moments (Au):
       state          X           Y           Z        Dip. S.      Osc.
         1        -0.0821     -0.0912      0.0005      0.0151      0.0561
         2        -0.1240      0.1238     -0.0005      0.0307      0.1087
         3         0.0257      0.0037      0.0285      0.0015      0.0045
         4        -0.1835     -0.0128      0.0471      0.0361      0.1029
         5        -0.4649     -0.1265     -0.0155      0.2323      0.6620
         6        -0.2115      0.2436     -0.0058      0.1041      0.2887
 Ground to excited state transition magnetic dipole moments (Au):
       state          X           Y           Z
         1        -0.0019      0.0048      0.2125
         2        -0.0040     -0.0021     -0.0280
         3         0.0695     -0.1030     -0.0237
         4         0.1545     -0.3172      0.1820
         5        -0.0125      0.1185      0.6619
         6        -0.0311      0.0934     -0.4525
 Ground to excited state transition velocity quadrupole moments (Au):
       state          XX          YY          ZZ          XY          XZ          YZ
         1         0.0171      0.0755     -0.0155      0.0484     -0.0039     -0.0030
         2        -0.2651      0.1831     -0.0181      0.0193      0.0018     -0.0058
         3        -0.0054     -0.0097     -0.0030     -0.0113      0.1060      0.0156
         4         0.0691      0.0319      0.0261      0.0910      0.2153      0.0832
         5         0.0606      0.0985      0.0529      0.4564     -0.0738      0.0020
         6         0.5556     -0.0659      0.0431     -0.5878     -0.0798     -0.0239
 <0|del|b> * <b|rxdel|0> + <0|del|b> * <b|delr+rdel|0>
 Rotatory Strengths (R) in cgs (10**-40 erg-esu-cm/Gauss)
       state          XX          YY          ZZ    R(velocity)    E-M Angle
         1        -1.2978      0.9726     -0.3598     -0.2284       90.38
         2        -0.9010      2.3345     -0.4945      0.3130       87.12
         3        -2.8231      2.9227      2.2257      0.7751       81.39
         4        29.7377    -59.5259    -17.8126    -15.8669      102.04
         5       -63.0110      2.5883      1.6640    -19.5862       93.44
         6        71.0061     15.9324      7.1072     31.3486       77.64
 1/2[<0|r|b>*<b|rxdel|0> + (<0|rxdel|b>*<b|r|0>)*]
 Rotatory Strengths (R) in cgs (10**-40 erg-esu-cm/Gauss)
       state          XX          YY          ZZ     R(length)
         1         0.6162     -1.6412      0.2908     -0.2447
         2         2.0416     -0.9357      0.0208      0.3756
         3         5.8711     -1.2674     -2.8176      0.5954
         4       -88.3025     13.2055     26.8579    -16.0797
         5        18.1142    -45.9584    -31.5704    -19.8049
         6        19.9292     66.5377      8.2641     31.5770
  1/2[<0|del|b>*<b|r|0> + (<0|r|b>*<b|del|0>)*] (Au)
       state          X           Y           Z        Dip. S.   Osc.(frdel)
         1        -0.0385     -0.0438     -0.0000      0.0823      0.0549
         2        -0.0890     -0.0770     -0.0000      0.1659      0.1106
         3        -0.0031     -0.0001     -0.0048      0.0079      0.0053
         4        -0.1483     -0.0008     -0.0098      0.1589      0.1059
         5        -0.9497     -0.0694     -0.0010      1.0201      0.6801
         6        -0.1917     -0.2454     -0.0002      0.4373      0.2915

 Excitation energies and oscillator strengths:
 
 Excited State   1:      Singlet-A      4.8663 eV  254.78 nm  f=0.0537  <S**2>=0.000
      30 -> 32         0.55927
      31 -> 32         0.25994
      31 -> 36        -0.29124
 This state for optimization and/or second-order correction.
 Total Energy, E(TD-HF/TD-DFT) =  -363.545324233    
 Copying the excited state density for this state as the 1-particle RhoCI density.
 
 Excited State   2:      Singlet-A      5.1253 eV  241.91 nm  f=0.1131  <S**2>=0.000
      30 -> 32         0.22487
      30 -> 36        -0.21133
      31 -> 32        -0.60478
      31 -> 36        -0.16220
 
 Excited State   3:      Singlet-A      6.0302 eV  205.60 nm  f=0.0063  <S**2>=0.000
      31 -> 33         0.64134
      31 -> 40         0.15091
 
 Excited State   4:      Singlet-A      6.3586 eV  194.99 nm  f=0.1091  <S**2>=0.000
      30 -> 32         0.11282
      30 -> 33        -0.56685
      30 -> 40        -0.17120
      31 -> 34         0.18282
      31 -> 36         0.19494
 
 Excited State   5:      Singlet-A      6.3670 eV  194.73 nm  f=0.6987  <S**2>=0.000
      30 -> 32         0.31181
      30 -> 33         0.20551
      31 -> 36         0.56098
 
 Excited State   6:      Singlet-A      6.5414 eV  189.54 nm  f=0.2945  <S**2>=0.000
      30 -> 36         0.62179
      31 -> 32        -0.22507
      31 -> 39        -0.15403
 SavETr:  write IOETrn=   770 NScale= 10 NData=  16 NLR=1 NState=    6 LETran=     118.
          IDoAtm=1111111111111111
          Differentiating once with respect to electric field.
                with respect to dipole field.
          Differentiating once with respect to nuclear coordinates.
          There are     1 degrees of freedom in the 1st order CPHF.  IDoFFX=0 NUNeed=     1.
 LinEq1:  Iter=  0 NonCon=     1 RMS=3.95D-03 Max=6.62D-02 NDo=     1
 AX will form     1 AO Fock derivatives at one time.
 LinEq1:  Iter=  1 NonCon=     1 RMS=1.40D-03 Max=4.25D-02 NDo=     1
 LinEq1:  Iter=  2 NonCon=     1 RMS=6.68D-04 Max=1.91D-02 NDo=     1
 LinEq1:  Iter=  3 NonCon=     1 RMS=3.42D-04 Max=1.06D-02 NDo=     1
 LinEq1:  Iter=  4 NonCon=     1 RMS=1.31D-04 Max=3.43D-03 NDo=     1
 LinEq1:  Iter=  5 NonCon=     1 RMS=6.24D-05 Max=2.00D-03 NDo=     1
 LinEq1:  Iter=  6 NonCon=     1 RMS=2.55D-05 Max=7.84D-04 NDo=     1
 LinEq1:  Iter=  7 NonCon=     1 RMS=9.96D-06 Max=2.18D-04 NDo=     1
 LinEq1:  Iter=  8 NonCon=     1 RMS=5.33D-06 Max=1.56D-04 NDo=     1
 LinEq1:  Iter=  9 NonCon=     1 RMS=1.72D-06 Max=3.28D-05 NDo=     1
 LinEq1:  Iter= 10 NonCon=     1 RMS=8.38D-07 Max=1.43D-05 NDo=     1
 LinEq1:  Iter= 11 NonCon=     1 RMS=3.30D-07 Max=8.85D-06 NDo=     1
 LinEq1:  Iter= 12 NonCon=     1 RMS=1.53D-07 Max=2.46D-06 NDo=     1
 LinEq1:  Iter= 13 NonCon=     1 RMS=5.31D-08 Max=8.07D-07 NDo=     1
 LinEq1:  Iter= 14 NonCon=     1 RMS=2.31D-08 Max=3.65D-07 NDo=     1
 LinEq1:  Iter= 15 NonCon=     1 RMS=7.37D-09 Max=1.06D-07 NDo=     1
 LinEq1:  Iter= 16 NonCon=     1 RMS=1.85D-09 Max=2.49D-08 NDo=     1
 LinEq1:  Iter= 17 NonCon=     1 RMS=8.67D-10 Max=1.12D-08 NDo=     1
 LinEq1:  Iter= 18 NonCon=     1 RMS=2.43D-10 Max=4.22D-09 NDo=     1
 LinEq1:  Iter= 19 NonCon=     0 RMS=5.90D-11 Max=6.21D-10 NDo=     1
 Linear equations converged to 1.000D-10 1.000D-09 after    19 iterations.
 End of Minotr F.D. properties file   721 does not exist.
 End of Minotr F.D. properties file   722 does not exist.
 End of Minotr F.D. properties file   788 does not exist.
 Calling FoFJK, ICntrl=  10005127 FMM=F ISym2X=0 I1Cent= 0 IOpClX= 0 NMat=1 NMatS=1 NMatT=0.
 ***** Axes restored to original set *****
 -------------------------------------------------------------------
 Center     Atomic                   Forces (Hartrees/Bohr)
 Number     Number              X              Y              Z
 -------------------------------------------------------------------
      1        6           0.000934532   -0.007315195   -0.000403732
      2        6          -0.001216861    0.005306410    0.000878097
      3        6           0.001046521   -0.002063554   -0.000715063
      4        6           0.007616640   -0.001208213   -0.000118917
      5        6          -0.002226089    0.002208071    0.000041518
      6        6           0.003080475    0.002362316    0.000470491
      7        7          -0.012558895    0.000105089   -0.000124085
      8        6          -0.001731106   -0.005300458   -0.000555482
      9        6           0.006563929    0.006387872    0.000303363
     10        1           0.000527568   -0.000655347   -0.000043463
     11        1          -0.000271774    0.000121501    0.000014760
     12        1          -0.000691818   -0.000955236    0.000087612
     13        1           0.000302120    0.000715842    0.000482251
     14        1           0.000180836    0.000533352    0.000111816
     15        1          -0.000274438    0.000525172   -0.000986785
     16        1          -0.001281640   -0.000767621    0.000557619
 -------------------------------------------------------------------
 Cartesian Forces:  Max     0.012558895 RMS     0.003081529

 GradGradGradGradGradGradGradGradGradGradGradGradGradGradGradGradGradGrad
 Berny optimization.
 Using GEDIIS/GDIIS optimizer.
 FormGI is forming the generalized inverse of G from B-inverse, IUseBI=4.
 Internal  Forces:  Max     0.007805669 RMS     0.001394165
 Search for a local minimum.
 Step number   2 out of a maximum of   94
 All quantities printed in internal units (Hartrees-Bohrs-Radians)
 Mixed Optimization -- RFO/linear search
 Update second derivatives using D2CorX and points    1    2
 DE= -4.69D-03 DEPred=-4.56D-03 R= 1.03D+00
 TightC=F SS=  1.41D+00  RLast= 1.69D-01 DXNew= 5.0454D-01 5.0766D-01
 Trust test= 1.03D+00 RLast= 1.69D-01 DXMaxT set to 5.05D-01
 ITU=  1  0
 Use linear search instead of GDIIS.
     Eigenvalues ---    0.01795   0.01879   0.01936   0.01956   0.02015
     Eigenvalues ---    0.02064   0.02086   0.02104   0.02133   0.02143
     Eigenvalues ---    0.02167   0.02190   0.02278   0.15934   0.15999
     Eigenvalues ---    0.15999   0.15999   0.16000   0.16000   0.16017
     Eigenvalues ---    0.20575   0.22064   0.22665   0.24267   0.24600
     Eigenvalues ---    0.34349   0.34676   0.34814   0.34845   0.35842
     Eigenvalues ---    0.35876   0.36662   0.37999   0.41225   0.42258
     Eigenvalues ---    0.43997   0.45847   0.46375   0.46505   0.46807
     Eigenvalues ---    0.48582   0.54207
 RFO step:  Lambda=-5.80824097D-04 EMin= 1.79513005D-02
 Quartic linear search produced a step of  0.08343.
 Iteration  1 RMS(Cart)=  0.01016922 RMS(Int)=  0.00009223
 Iteration  2 RMS(Cart)=  0.00010224 RMS(Int)=  0.00004995
 Iteration  3 RMS(Cart)=  0.00000001 RMS(Int)=  0.00004995
 Variable       Old X    -DE/DX   Delta X   Delta X   Delta X     New X
                                 (Linear)    (Quad)   (Total)
    R1        2.69284  -0.00523   0.00294  -0.01367  -0.01076   2.68208
    R2        2.69103   0.00078   0.00567   0.00013   0.00578   2.69682
    R3        2.05316   0.00044  -0.00126   0.00172   0.00046   2.05362
    R4        2.67548   0.00069   0.00442   0.00033   0.00475   2.68023
    R5        2.05250  -0.00062  -0.00056  -0.00178  -0.00234   2.05016
    R6        2.67593  -0.00036   0.00253  -0.00137   0.00118   2.67711
    R7        2.05329  -0.00053  -0.00050  -0.00151  -0.00202   2.05127
    R8        2.74792   0.00012   0.00485  -0.00138   0.00348   2.75140
    R9        2.57475  -0.00781  -0.00262  -0.01685  -0.01948   2.55528
   R10        2.66468  -0.00162   0.00074  -0.00406  -0.00332   2.66136
   R11        2.71626  -0.00113   0.00007  -0.00295  -0.00289   2.71337
   R12        2.05339  -0.00074  -0.00059  -0.00215  -0.00274   2.05066
   R13        2.65243   0.00456   0.00316   0.00962   0.01280   2.66523
   R14        1.90492   0.00079   0.00009   0.00181   0.00190   1.90682
   R15        2.58899  -0.00175   0.00009  -0.00315  -0.00303   2.58596
   R16        2.04525   0.00002   0.00016   0.00002   0.00018   2.04543
   R17        2.04379  -0.00058   0.00009  -0.00176  -0.00167   2.04212
    A1        2.13945   0.00178   0.00244   0.00744   0.00976   2.14921
    A2        2.06789  -0.00054  -0.00105  -0.00143  -0.00243   2.06547
    A3        2.07579  -0.00123  -0.00139  -0.00600  -0.00735   2.06844
    A4        2.10530   0.00018  -0.00109   0.00064  -0.00055   2.10475
    A5        2.08575  -0.00058   0.00051  -0.00359  -0.00304   2.08271
    A6        2.09208   0.00040   0.00059   0.00301   0.00364   2.09572
    A7        2.03323  -0.00097  -0.00136  -0.00426  -0.00568   2.02755
    A8        2.12528   0.00069   0.00063   0.00350   0.00414   2.12943
    A9        2.12466   0.00029   0.00074   0.00080   0.00155   2.12621
   A10        2.15884   0.00020   0.00206   0.00184   0.00390   2.16273
   A11        2.27387  -0.00148  -0.00035  -0.00575  -0.00608   2.26780
   A12        1.85044   0.00129  -0.00171   0.00396   0.00221   1.85265
   A13        2.06863   0.00017  -0.00007   0.00163   0.00155   2.07018
   A14        1.86812  -0.00124   0.00029  -0.00647  -0.00619   1.86193
   A15        2.34642   0.00107  -0.00022   0.00483   0.00464   2.35107
   A16        2.05988  -0.00133  -0.00180  -0.00625  -0.00814   2.05174
   A17        2.11543  -0.00068   0.00105  -0.00594  -0.00486   2.11057
   A18        2.10780   0.00201   0.00077   0.01225   0.01306   2.12086
   A19        1.93443   0.00126   0.00219   0.00541   0.00759   1.94202
   A20        2.17221  -0.00034  -0.00140  -0.00069  -0.00209   2.17012
   A21        2.17654  -0.00092  -0.00080  -0.00471  -0.00550   2.17104
   A22        1.87664   0.00162   0.00054   0.00935   0.00989   1.88652
   A23        2.21101  -0.00111  -0.00024  -0.00670  -0.00695   2.20406
   A24        2.19551  -0.00051  -0.00030  -0.00260  -0.00291   2.19260
   A25        1.89511  -0.00293  -0.00132  -0.01218  -0.01347   1.88164
   A26        2.10881   0.00041   0.00077  -0.00103  -0.00027   2.10854
   A27        2.27926   0.00252   0.00055   0.01321   0.01374   2.29300
    D1        0.04596  -0.00052  -0.00325  -0.02686  -0.03020   0.01576
    D2       -3.10710  -0.00036  -0.00217  -0.01986  -0.02214  -3.12925
    D3       -3.08444  -0.00055  -0.00165  -0.02721  -0.02885  -3.11330
    D4        0.04568  -0.00039  -0.00057  -0.02020  -0.02079   0.02488
    D5       -0.05174   0.00048   0.00311   0.02441   0.02753  -0.02421
    D6        3.10234   0.00033   0.00251   0.01818   0.02081   3.12315
    D7        3.07861   0.00051   0.00150   0.02478   0.02621   3.10483
    D8       -0.05049   0.00037   0.00090   0.01855   0.01949  -0.03100
    D9       -0.01532   0.00028   0.00163   0.01294   0.01447  -0.00085
   D10        3.13206   0.00010   0.00096   0.00507   0.00600   3.13806
   D11        3.13779   0.00013   0.00054   0.00596   0.00639  -3.13901
   D12        0.00198  -0.00004  -0.00013  -0.00191  -0.00208  -0.00010
   D13       -0.00701   0.00003   0.00009   0.00210   0.00221  -0.00480
   D14       -3.13824  -0.00012   0.00006  -0.00499  -0.00485   3.14010
   D15        3.12880   0.00020   0.00076   0.00998   0.01067   3.13947
   D16       -0.00243   0.00005   0.00073   0.00288   0.00361   0.00118
   D17        0.00028  -0.00009  -0.00019  -0.00409  -0.00424  -0.00397
   D18       -3.13913  -0.00006  -0.00093  -0.00207  -0.00295   3.14110
   D19        3.13365   0.00002  -0.00017   0.00150   0.00134   3.13499
   D20       -0.00576   0.00005  -0.00090   0.00351   0.00263  -0.00313
   D21        3.13419   0.00018   0.00026   0.00805   0.00823  -3.14077
   D22       -0.00593   0.00008   0.00026   0.00382   0.00402  -0.00191
   D23        0.00157   0.00005   0.00022   0.00191   0.00211   0.00368
   D24       -3.13855  -0.00004   0.00022  -0.00232  -0.00210  -3.14065
   D25        0.02814  -0.00023  -0.00146  -0.00907  -0.01040   0.01775
   D26       -3.12588  -0.00010  -0.00086  -0.00301  -0.00377  -3.12965
   D27       -3.11637  -0.00027  -0.00047  -0.01179  -0.01216  -3.12853
   D28        0.01279  -0.00014   0.00013  -0.00572  -0.00553   0.00726
   D29        0.00792  -0.00013   0.00127  -0.00766  -0.00645   0.00147
   D30       -3.14081   0.00000   0.00086  -0.00035   0.00046  -3.14035
   D31       -3.13099  -0.00009   0.00036  -0.00517  -0.00484  -3.13583
   D32        0.00346   0.00004  -0.00005   0.00214   0.00207   0.00553
   D33        0.00347  -0.00014   0.00060  -0.00692  -0.00631  -0.00284
   D34       -3.13978  -0.00008  -0.00017  -0.00380  -0.00397   3.13944
   D35       -3.13960  -0.00004   0.00060  -0.00267  -0.00210   3.14149
   D36        0.00034   0.00002  -0.00017   0.00045   0.00025   0.00058
   D37       -0.00703   0.00017  -0.00115   0.00887   0.00773   0.00070
   D38        3.13644   0.00010  -0.00028   0.00535   0.00507   3.14151
   D39       -3.14156   0.00004  -0.00075   0.00167   0.00089  -3.14067
   D40        0.00191  -0.00002   0.00012  -0.00185  -0.00177   0.00014
         Item               Value     Threshold  Converged?
 Maximum Force            0.007806     0.000450     NO 
 RMS     Force            0.001394     0.000300     NO 
 Maximum Displacement     0.053922     0.001800     NO 
 RMS     Displacement     0.010177     0.001200     NO 
 Predicted change in Energy=-3.096756D-04
 GradGradGradGradGradGradGradGradGradGradGradGradGradGradGradGradGradGrad

                          Input orientation:                          
 ---------------------------------------------------------------------
 Center     Atomic      Atomic             Coordinates (Angstroms)
 Number     Number       Type             X           Y           Z
 ---------------------------------------------------------------------
      1          6           0       -2.161177    0.680079    0.006357
      2          6           0       -2.158337   -0.739198   -0.000418
      3          6           0       -0.936006   -1.458578   -0.004528
      4          6           0        0.247350   -0.679729   -0.002550
      5          6           0        0.261677    0.776178   -0.002484
      6          6           0       -0.967952    1.462741   -0.009398
      7          7           0        1.542425   -1.068588   -0.003851
[...]
 ! D9    D(1,2,3,4)              0.0086         -DE/DX =    0.0                 !
 ! D10   D(1,2,3,14)           179.9952         -DE/DX =    0.0                 !
 ! D11   D(13,2,3,4)          -179.9833         -DE/DX =    0.0                 !
 ! D12   D(13,2,3,14)            0.0034         -DE/DX =    0.0                 !
 ! D13   D(2,3,4,5)             -0.0005         -DE/DX =    0.0                 !
 ! D14   D(2,3,4,7)           -179.9892         -DE/DX =    0.0                 !
 ! D15   D(14,3,4,5)          -179.9873         -DE/DX =    0.0                 !
 ! D16   D(14,3,4,7)             0.0241         -DE/DX =    0.0                 !
 ! D17   D(3,4,5,6)             -0.0208         -DE/DX =    0.0                 !
 ! D18   D(3,4,5,8)           -179.9933         -DE/DX =    0.0                 !
 ! D19   D(7,4,5,6)            179.9701         -DE/DX =    0.0                 !
 ! D20   D(7,4,5,8)             -0.0024         -DE/DX =    0.0                 !
 ! D21   D(3,4,7,9)            179.9875         -DE/DX =    0.0                 !
 ! D22   D(3,4,7,10)             0.0243         -DE/DX =    0.0                 !
 ! D23   D(5,4,7,9)             -0.0027         -DE/DX =    0.0                 !
 ! D24   D(5,4,7,10)          -179.9659         -DE/DX =    0.0                 !
 ! D25   D(4,5,6,1)              0.0326         -DE/DX =    0.0                 !
 ! D26   D(4,5,6,16)          -179.9715         -DE/DX =    0.0                 !
 ! D27   D(8,5,6,1)            179.9954         -DE/DX =    0.0                 !
 ! D28   D(8,5,6,16)            -0.0087         -DE/DX =    0.0                 !
 ! D29   D(4,5,8,9)              0.0067         -DE/DX =    0.0                 !
 ! D30   D(4,5,8,11)          -179.9907         -DE/DX =    0.0                 !
 ! D31   D(6,5,8,9)           -179.9592         -DE/DX =    0.0                 !
 ! D32   D(6,5,8,11)             0.0434         -DE/DX =    0.0                 !
 ! D33   D(4,7,9,8)              0.007          -DE/DX =    0.0                 !
 ! D34   D(4,7,9,12)           179.9896         -DE/DX =    0.0                 !
 ! D35   D(10,7,9,8)           179.9703         -DE/DX =    0.0                 !
 ! D36   D(10,7,9,12)           -0.0472         -DE/DX =    0.0                 !
 ! D37   D(5,8,9,7)             -0.0083         -DE/DX =    0.0                 !
 ! D38   D(5,8,9,12)          -179.988          -DE/DX =    0.0                 !
 ! D39   D(11,8,9,7)           179.9892         -DE/DX =    0.0                 !
 ! D40   D(11,8,9,12)            0.0095         -DE/DX =    0.0                 !
 --------------------------------------------------------------------------------
 GradGradGradGradGradGradGradGradGradGradGradGradGradGradGradGradGradGrad

                          Input orientation:                          
 ---------------------------------------------------------------------
 Center     Atomic      Atomic             Coordinates (Angstroms)
 Number     Number       Type             X           Y           Z
 ---------------------------------------------------------------------
      1          6           0       -2.160373    0.675149    0.003117
      2          6           0       -2.159278   -0.738219    0.002155
      3          6           0       -0.935943   -1.455527   -0.000172
      4          6           0        0.247568   -0.674932   -0.001230
      5          6           0        0.262422    0.776684   -0.000089
      6          6           0       -0.967080    1.460432    0.001758
      7          7           0        1.538830   -1.067004   -0.003587
      8          6           0        1.643842    1.174862   -0.001897
      9          6           0        2.414772    0.045122   -0.004143
     10          1           0        1.842417   -2.029711   -0.005335
     11          1           0        2.013928    2.192405   -0.001510
     12          1           0        3.485086   -0.099686   -0.005790
     13          1           0       -3.103979   -1.272309    0.003346
     14          1           0       -0.902852   -2.540820   -0.000883
     15          1           0       -3.116662    1.193161    0.005034
     16          1           0       -1.019048    2.544473    0.002219
 ---------------------------------------------------------------------
                    Distance matrix (angstroms):
                    1          2          3          4          5
     1  C    0.000000
     2  C    1.413369   0.000000
     3  C    2.457441   1.418127   0.000000
     4  C    2.760601   2.407681   1.417755   0.000000
     5  C    2.424924   2.856496   2.533544   1.451693   0.000000
     6  C    1.428502   2.501081   2.916126   2.456657   1.406837
     7  N    4.088917   3.712700   2.505088   1.349475   2.242413
     8  C    3.836899   4.257185   3.684324   2.317611   1.437662
     9  C    4.618327   4.640647   3.671411   2.283694   2.273282
    10  H    4.831011   4.204946   2.837076   2.092602   3.220600
    11  H    4.441495   5.099433   4.691391   3.367736   2.252119
    12  H    5.698391   5.680373   4.624266   3.288229   3.339704
    13  H    2.164020   1.085224   2.175766   3.404372   3.940944
    14  H    3.453091   2.197268   1.085798   2.192032   3.516206
    15  H    1.087579   2.155648   3.430905   3.848097   3.404656
    16  H    2.190205   3.475082   4.000864   3.459610   2.183403
                    6          7          8          9         10
     6  C    0.000000
     7  N    3.559150   0.000000
     8  C    2.626496   2.244325   0.000000
     9  C    3.666070   1.415662   1.367718   0.000000
    10  H    4.480449   1.009442   3.210722   2.152329   0.000000
    11  H    3.069561   3.293853   1.082754   2.184378   4.225599
    12  H    4.717607   2.173390   2.239346   1.080067   2.534435
    13  H    3.469036   4.647351   5.341393   5.673825   5.004055
    14  H    4.001769   2.852009   4.504659   4.206393   2.792446
    15  H    2.166136   5.175135   4.760544   5.649322   5.914344
    16  H    1.085286   4.425556   2.994467   4.247107   5.395480
                   11         12         13         14         15
    11  H    0.000000
    12  H    2.723601   0.000000
    13  H    6.180391   6.692601   0.000000
    14  H    5.559769   5.021271   2.540492   0.000000
    15  H    5.226995   6.727157   2.465503   4.340922   0.000000
    16  H    3.053344   5.222918   4.349111   5.086622   2.495203
                   16
    16  H    0.000000
 Stoichiometry    C8H7N
 Framework group  C1[X(C8H7N)]
 Deg. of freedom    42
 Full point group                 C1      NOp   1
 Largest Abelian subgroup         C1      NOp   1
 Largest concise Abelian subgroup C1      NOp   1
                         Standard orientation:                         
 ---------------------------------------------------------------------
 Center     Atomic      Atomic             Coordinates (Angstroms)
 Number     Number       Type             X           Y           Z
 ---------------------------------------------------------------------
      1          6           0       -2.148718    0.712121   -0.000043
      2          6           0       -2.172925   -0.701041    0.000019
      3          6           0       -0.962627   -1.440136    0.000008
      4          6           0        0.234671   -0.680854    0.000122
      5          6           0        0.275509    0.770264    0.000235
      6          6           0       -0.941556    1.475914   -0.000218
      7          7           0        1.518708   -1.095981   -0.000055
      8          6           0        1.663837    1.143647    0.000167
      9          6           0        2.414421    0.000284   -0.000129
     10          1           0        1.805013   -2.063970   -0.000660
     11          1           0        2.052081    2.154401    0.000362
     12          1           0        3.481972   -0.163662   -0.000100
     13          1           0       -3.127037   -1.218132    0.000209
     14          1           0       -0.948970   -2.525848    0.000131
     15          1           0       -3.095581    1.247171    0.000095
     16          1           0       -0.974109    2.560712   -0.000618
 ---------------------------------------------------------------------
 Rotational constants (GHZ):           3.7910665           1.6199006           1.1349452

 **********************************************************************

            Population analysis using the CI Density.

 **********************************************************************

 Orbital symmetries:
       Occupied  (A) (A) (A) (A) (A) (A) (A) (A) (A) (A) (A) (A)
                 (A) (A) (A) (A) (A) (A) (A) (A) (A) (A) (A) (A)
                 (A) (A) (A) (A) (A) (A) (A)
       Virtual   (A) (A) (A) (A) (A) (A) (A) (A) (A) (A) (A) (A)
                 (A) (A) (A) (A) (A) (A) (A) (A) (A) (A) (A) (A)
                 (A) (A) (A) (A) (A) (A) (A) (A) (A) (A) (A) (A)
                 (A) (A) (A) (A) (A) (A) (A) (A) (A) (A) (A) (A)
                 (A) (A) (A) (A) (A) (A) (A) (A) (A) (A) (A) (A)
                 (A) (A) (A) (A) (A) (A) (A) (A) (A) (A) (A) (A)
                 (A) (A) (A) (A) (A) (A) (A) (A) (A) (A) (A) (A)
                 (A) (A) (A) (A) (A) (A) (A) (A) (A) (A) (A) (A)
                 (A) (A) (A) (A) (A) (A) (A) (A) (A) (A) (A) (A)
                 (A) (A) (A) (A) (A) (A) (A) (A) (A) (A) (A) (A)
                 (A) (A) (A) (A) (A) (A) (A) (A) (A) (A) (A) (A)
                 (A) (A) (A) (A) (A) (A) (A) (A) (A) (A) (A) (A)
                 (A) (A) (A) (A) (A) (A) (A) (A) (A) (A)
 The electronic state is 1-A.
 Alpha  occ. eigenvalues --  -14.46272 -10.31403 -10.31146 -10.28226 -10.27960
 Alpha  occ. eigenvalues --  -10.27864 -10.27654 -10.27069 -10.26796  -1.11399
 Alpha  occ. eigenvalues --   -0.96322  -0.91596  -0.85707  -0.84759  -0.74851
 Alpha  occ. eigenvalues --   -0.71417  -0.69995  -0.65318  -0.60202  -0.58173
 Alpha  occ. eigenvalues --   -0.54174  -0.53849  -0.53783  -0.51893  -0.50124
 Alpha  occ. eigenvalues --   -0.45495  -0.43990  -0.43895  -0.38371  -0.30590
 Alpha  occ. eigenvalues --   -0.29451
 Alpha virt. eigenvalues --    0.05087   0.06660   0.08399   0.08773   0.09583
 Alpha virt. eigenvalues --    0.10066   0.10423   0.11913   0.12427   0.12903
 Alpha virt. eigenvalues --    0.12919   0.13384   0.15299   0.15958   0.16706
 Alpha virt. eigenvalues --    0.16880   0.17932   0.19501   0.20613   0.20704
 Alpha virt. eigenvalues --    0.22124   0.22459   0.23387   0.23760   0.23799
 Alpha virt. eigenvalues --    0.25448   0.25564   0.25816   0.26541   0.27122
 Alpha virt. eigenvalues --    0.27302   0.28510   0.28796   0.29781   0.29998
 Alpha virt. eigenvalues --    0.30791   0.31108   0.31336   0.32785   0.33209
 Alpha virt. eigenvalues --    0.33824   0.34493   0.36472   0.37122   0.38467
 Alpha virt. eigenvalues --    0.39404   0.39686   0.41060   0.42820   0.45716
 Alpha virt. eigenvalues --    0.46284   0.48752   0.52608   0.55273   0.61003
 Alpha virt. eigenvalues --    0.67032   0.70577   0.77664   0.77782   0.80291
 Alpha virt. eigenvalues --    0.81191   0.82490   0.83757   0.84131   0.84154
 Alpha virt. eigenvalues --    0.85621   0.86032   0.88047   0.89620   0.89880
 Alpha virt. eigenvalues --    0.91909   0.95593   0.99928   1.00956   1.01940
 Alpha virt. eigenvalues --    1.04589   1.05305   1.06060   1.06885   1.09386
 Alpha virt. eigenvalues --    1.10222   1.13502   1.15710   1.17400   1.19643
 Alpha virt. eigenvalues --    1.21739   1.22467   1.27369   1.28484   1.31216
 Alpha virt. eigenvalues --    1.32919   1.34296   1.35035   1.41858   1.43191
 Alpha virt. eigenvalues --    1.44903   1.47235   1.50969   1.51347   1.54304
 Alpha virt. eigenvalues --    1.57224   1.57804   1.60261   1.60535   1.63897
 Alpha virt. eigenvalues --    1.69974   1.74579   1.89895   1.93552   1.98255
 Alpha virt. eigenvalues --    1.99790   2.01634   2.03958   2.09410   2.10424
 Alpha virt. eigenvalues --    2.11100   2.14789   2.15756   2.22546   2.24374
 Alpha virt. eigenvalues --    2.25465   2.30564   2.33469   2.34145   2.36674
 Alpha virt. eigenvalues --    2.37595   2.40785   2.47398   2.51236   2.54676
 Alpha virt. eigenvalues --    2.64686   2.65751   2.72731   2.73868   2.75590
 Alpha virt. eigenvalues --    2.78502   2.82540   2.89791   2.93736   2.94924
 Alpha virt. eigenvalues --    3.06729   3.07615   3.19745   3.33688   3.49293
 Alpha virt. eigenvalues --    4.25488   4.36169   4.40660   4.44525   4.47883
 Alpha virt. eigenvalues --    4.51467   4.59623   4.63711   4.88671
          Condensed to atoms (all electrons):
               1          2          3          4          5          6
     1  C    5.441495   0.433671   0.089361  -0.282185  -0.148569   0.141550
     2  C    0.433671   5.707408   0.018768   0.045157  -0.335189   0.376819
     3  C    0.089361   0.018768  10.791767  -1.199654  -2.514100  -2.078190
     4  C   -0.282185   0.045157  -1.199654  10.525784  -2.185778  -0.703952
     5  C   -0.148569  -0.335189  -2.514100  -2.185778  11.871536  -0.242929
     6  C    0.141550   0.376819  -2.078190  -0.703952  -0.242929  10.820945
     7  N   -0.023715   0.013864  -0.466447  -0.146259   0.682979   0.131080
     8  C    0.064946  -0.188349   2.229839   1.128399  -3.630451  -2.794510
     9  C   -0.046597   0.023218  -0.812915  -0.593429   1.386418   0.792504
    10  H   -0.003398  -0.005078  -0.124525  -0.065678   0.152340   0.025748
    11  H    0.001936   0.000477   0.000253   0.033516   0.006714  -0.020440
    12  H    0.000943  -0.000134   0.017608   0.055357  -0.044529  -0.015185
    13  H   -0.013081   0.322612  -0.025366   0.022361   0.002210   0.010765
    14  H    0.017980   0.017229   0.278365  -0.000216   0.005907  -0.011323
    15  H    0.303289   0.007950   0.016342  -0.014304   0.024669  -0.029561
    16  H   -0.004495   0.007656  -0.023214   0.028277   0.063930   0.268986
               7          8          9         10         11         12
     1  C   -0.023715   0.064946  -0.046597  -0.003398   0.001936   0.000943
     2  C    0.013864  -0.188349   0.023218  -0.005078   0.000477  -0.000134
     3  C   -0.466447   2.229839  -0.812915  -0.124525   0.000253   0.017608
     4  C   -0.146259   1.128399  -0.593429  -0.065678   0.033516   0.055357
     5  C    0.682979  -3.630451   1.386418   0.152340   0.006714  -0.044529
     6  C    0.131080  -2.794510   0.792504   0.025748  -0.020440  -0.015185
     7  N    7.220049  -0.641648   0.506702   0.284565   0.006438  -0.048140
     8  C   -0.641648  10.823865  -1.431883  -0.013772   0.309243   0.009293
     9  C    0.506702  -1.431883   6.181931  -0.005124  -0.026078   0.348123
    10  H    0.284565  -0.013772  -0.005124   0.315063  -0.000072  -0.001754
    11  H    0.006438   0.309243  -0.026078  -0.000072   0.464465  -0.000414
    12  H   -0.048140   0.009293   0.348123  -0.001754  -0.000414   0.454080
    13  H   -0.000228  -0.001648   0.001230  -0.000002   0.000000  -0.000000
    14  H   -0.000877  -0.009417   0.009882   0.001685   0.000001   0.000002
    15  H    0.000158   0.005176  -0.000134  -0.000000  -0.000001  -0.000000
    16  H   -0.000552  -0.034135   0.003161   0.000003   0.001037  -0.000001
              13         14         15         16
     1  C   -0.013081   0.017980   0.303289  -0.004495
     2  C    0.322612   0.017229   0.007950   0.007656
     3  C   -0.025366   0.278365   0.016342  -0.023214
     4  C    0.022361  -0.000216  -0.014304   0.028277
     5  C    0.002210   0.005907   0.024669   0.063930
     6  C    0.010765  -0.011323  -0.029561   0.268986
     7  N   -0.000228  -0.000877   0.000158  -0.000552
     8  C   -0.001648  -0.009417   0.005176  -0.034135
     9  C    0.001230   0.009882  -0.000134   0.003161
    10  H   -0.000002   0.001685  -0.000000   0.000003
    11  H    0.000000   0.000001  -0.000001   0.001037
    12  H   -0.000000   0.000002  -0.000000  -0.000001
    13  H    0.484803  -0.002329  -0.003141  -0.000092
    14  H   -0.002329   0.487544  -0.000103   0.000010
    15  H   -0.003141  -0.000103   0.486696  -0.002631
    16  H   -0.000092   0.000010  -0.002631   0.481010
 Mulliken charges:
               1
     1  C    0.026870
     2  C   -0.446078
     3  C   -0.197891
     4  C   -0.647399
     5  C    0.904843
     6  C   -0.672308
     7  N   -0.517970
     8  C    0.175054
     9  C   -0.337008
    10  H    0.439999
    11  H    0.222923
    12  H    0.224752
    13  H    0.201905
    14  H    0.205660
    15  H    0.205596
    16  H    0.211051
 Sum of Mulliken charges =  -0.00000
 Mulliken charges with hydrogens summed into heavy atoms:
               1
     1  C    0.232466
     2  C   -0.244173
     3  C    0.007769
     4  C   -0.647399
     5  C    0.904843
     6  C   -0.461257
     7  N   -0.077971
     8  C    0.397978
     9  C   -0.112256
 Electronic spatial extent (au):  <R**2>=           1024.0426
 Charge=              0.0000 electrons
 Dipole moment (field-independent basis, Debye):
    X=              1.8460    Y=             -1.1952    Z=             -0.0003  Tot=              2.1991
 Quadrupole moment (field-independent basis, Debye-Ang):
   XX=            -46.1388   YY=            -45.2237   ZZ=            -60.0443
   XY=             -4.0429   XZ=             -0.0018   YZ=              0.0012
 Traceless Quadrupole moment (field-independent basis, Debye-Ang):
   XX=              4.3301   YY=              5.2452   ZZ=             -9.5754
   XY=             -4.0429   XZ=             -0.0018   YZ=              0.0012
 Octapole moment (field-independent basis, Debye-Ang**2):
  XXX=             13.7097  YYY=             -9.2014  ZZZ=              0.0025  XYY=             11.0485
  XXY=             -5.6763  XXZ=              0.0003  XZZ=              2.8309  YZZ=             -0.9855
  YYZ=             -0.0041  XYZ=              0.0073
 Hexadecapole moment (field-independent basis, Debye-Ang**3):
 XXXX=           -841.7529 YYYY=           -386.0749 ZZZZ=            -80.0948 XXXY=            -27.1253
 XXXZ=             -0.0094 YYYX=            -19.7570 YYYZ=              0.0015 ZZZX=              0.0010
 ZZZY=              0.0000 XXYY=           -198.5221 XXZZ=           -198.8087 YYZZ=           -101.0782
 XXYZ=              0.0095 YYXZ=             -0.0075 ZZXY=             -4.3880
 N-N= 3.972762115180D+02 E-N=-1.636462585996D+03  KE= 3.601001989731D+02
 Unable to Open any file for archive entry.
 1\1\GINC-EXP-2-41\FOpt\RwB97X TD-FC\6-31+G(d)\C8H7N1\SCAPARAS\09-Jun-2
 021\0\\# td= (nstates=6, root=1) WB97X/6-31+G* Opt density=current\\Fu
 ncsWB97X\\0,1\C,-2.1603730644,0.6751489576,0.0031165306\C,-2.159278281
 2,-0.7382193085,0.0021545895\C,-0.9359434352,-1.4555269709,-0.00017186
 14\C,0.2475682582,-0.6749323799,-0.0012304972\C,0.2624217726,0.7766844
 546,-0.0000893169\C,-0.9670804036,1.4604321043,0.001758438\N,1.5388300
 646,-1.0670038969,-0.0035873129\C,1.6438419544,1.1748624656,-0.0018973
 815\C,2.4147723182,0.0451218147,-0.0041429446\H,1.842416958,-2.0297107
 285,-0.0053352773\H,2.0139279504,2.1924047946,-0.0015098899\H,3.485086
 2492,-0.0996858903,-0.0057904408\H,-3.103978664,-1.2723091009,0.003345
 5031\H,-0.902851883,-2.5408204839,-0.000882606\H,-3.1166616413,1.19316
 08239,0.0050338576\H,-1.0190481529,2.5444733445,0.0022186097\\Version=
 AS64L-G16RevC.01\State=1-A\HF=-363.7231215\RMSD=8.575e-09\RMSF=1.413e-
 05\Dipole=0.7262544,-0.470224,-0.0001203\Quadrupole=3.2193601,3.899687
 6,-7.1190477,-3.0058026,-0.0013121,0.0009188\PG=C01 [X(C8H7N1)]\\@
 The archive entry for this job was punched.


 A SOLDIER'S LIFE IS A LIFE OF HONOR, BUT A DOG WOULD NOT LEAD IT.
 -- PRINCE RUPERT, FOUNDER OF THE HUDSON'S BAY COMPANY
 Job cpu time:       0 days  3 hours 20 minutes 48.3 seconds.
 Elapsed time:       0 days  1 hours 44 minutes 41.0 seconds.
 File lengths (MBytes):  RWF=    238 Int=      0 D2E=      0 Chk=     16 Scr=      1
 Normal termination of Gaussian 16 at Wed Jun  9 09:22:22 2021.
