 Entering Gaussian System, Link 0=/cm/shared/apps/spack/cpu/opt/spack/linux-centos8-zen/gcc-8.3.1/gaussian-16.C.01-po5bqktfeugvmjyga3v7eigbecnokxng/g16/g16
 Initial command:
 /cm/shared/apps/spack/cpu/opt/spack/linux-centos8-zen/gcc-8.3.1/gaussian-16.C.01-po5bqktfeugvmjyga3v7eigbecnokxng/g16/l1.exe "/scratch/scaparas/job_3404241/Gau-79039.inp" -scrdir="/scratch/scaparas/job_3404241/"
 Entering Link 1 = /cm/shared/apps/spack/cpu/opt/spack/linux-centos8-zen/gcc-8.3.1/gaussian-16.C.01-po5bqktfeugvmjyga3v7eigbecnokxng/g16/l1.exe PID=     79040.
  
 Copyright (c) 1988-2019, Gaussian, Inc.  All Rights Reserved.
  
 This is part of the Gaussian(R) 16 program.  It is based on
 the Gaussian(R) 09 system (copyright 2009, Gaussian, Inc.),
 the Gaussian(R) 03 system (copyright 2003, Gaussian, Inc.),
 the Gaussian(R) 98 system (copyright 1998, Gaussian, Inc.),
 the Gaussian(R) 94 system (copyright 1995, Gaussian, Inc.),
 the Gaussian 92(TM) system (copyright 1992, Gaussian, Inc.),
 the Gaussian 90(TM) system (copyright 1990, Gaussian, Inc.),
 the Gaussian 88(TM) system (copyright 1988, Gaussian, Inc.),
 the Gaussian 86(TM) system (copyright 1986, Carnegie Mellon
 University), and the Gaussian 82(TM) system (copyright 1983,
 Carnegie Mellon University). Gaussian is a federally registered
 trademark of Gaussian, Inc.
  
 This software contains proprietary and confidential information,
 including trade secrets, belonging to Gaussian, Inc.
  
 This software is provided under written license and may be
 used, copied, transmitted, or stored only in accord with that
 written license.
  
 The following legend is applicable only to US Government
 contracts under FAR:
  
                    RESTRICTED RIGHTS LEGEND
  
 Use, reproduction and disclosure by the US Government is
 subject to restrictions as set forth in subparagraphs (a)
 and (c) of the Commercial Computer Software - Restricted
 Rights clause in FAR 52.227-19.
  
 Gaussian, Inc.
 340 Quinnipiac St., Bldg. 40, Wallingford CT 06492
  
  
 ---------------------------------------------------------------
 Warning -- This program may not be used in any manner that
 competes with the business of Gaussian, Inc. or will provide
 assistance to any competitor of Gaussian, Inc.  The licensee
 of this program is prohibited from giving any competitor of
 Gaussian, Inc. access to this program.  By using this program,
 the user acknowledges that Gaussian, Inc. is engaged in the
 business of creating and licensing software in the field of
 computational chemistry and represents and warrants to the
 licensee that it is not a competitor of Gaussian, Inc. and that
 it will not use this program in any manner prohibited above.
 ---------------------------------------------------------------
  

 Cite this work as:
 Gaussian 16, Revision C.01,
 M. J. Frisch, G. W. Trucks, H. B. Schlegel, G. E. Scuseria, 
 M. A. Robb, J. R. Cheeseman, G. Scalmani, V. Barone, 
 G. A. Petersson, H. Nakatsuji, X. Li, M. Caricato, A. V. Marenich, 
 J. Bloino, B. G. Janesko, R. Gomperts, B. Mennucci, H. P. Hratchian, 
 J. V. Ortiz, A. F. Izmaylov, J. L. Sonnenberg, D. Williams-Young, 
 F. Ding, F. Lipparini, F. Egidi, J. Goings, B. Peng, A. Petrone, 
 T. Henderson, D. Ranasinghe, V. G. Zakrzewski, J. Gao, N. Rega, 
 G. Zheng, W. Liang, M. Hada, M. Ehara, K. Toyota, R. Fukuda, 
 J. Hasegawa, M. Ishida, T. Nakajima, Y. Honda, O. Kitao, H. Nakai, 
 T. Vreven, K. Throssell, J. A. Montgomery, Jr., J. E. Peralta, 
 F. Ogliaro, M. J. Bearpark, J. J. Heyd, E. N. Brothers, K. N. Kudin, 
 V. N. Staroverov, T. A. Keith, R. Kobayashi, J. Normand, 
 K. Raghavachari, A. P. Rendell, J. C. Burant, S. S. Iyengar, 
 J. Tomasi, M. Cossi, J. M. Millam, M. Klene, C. Adamo, R. Cammi, 
 J. W. Ochterski, R. L. Martin, K. Morokuma, O. Farkas, 
 J. B. Foresman, and D. J. Fox, Gaussian, Inc., Wallingford CT, 2019.
 
 ******************************************
 Gaussian 16:  AS64L-G16RevC.01  3-Jul-2019
                14-Jun-2021 
 ******************************************
 %nprocshared=4
 Will use up to    4 processors via shared memory.
 %chk=FuncsHSEH1PBE-V-3rd.chk
 %Mem=3GB
 --------------------------------------------------------------
 # td= (nstates=6, root=3) HSEH1PBE/6-31+G* Opt density=current
 --------------------------------------------------------------
 1/18=20,19=15,26=3,38=1/1,3;
 2/9=110,12=2,17=6,18=5,40=1/2;
 3/5=1,6=6,7=11,11=9,25=1,30=1,71=1,74=-51/1,2,3,8;
 4//1;
 5/5=2,38=5/2;
 8/6=1,10=2,107=3,108=6/1;
 9/8=3,15=2,41=6,42=1,70=2/14;
 10/5=4,28=3/2;
 6/7=2,8=2,9=2,10=2,22=-1/1;
 7/12=6,13=5,14=3/1,2,3,16;
 1/18=20,19=15,26=3/3(2);
 2/9=110/2;
 99//99;
 2/9=110/2;
 3/5=1,6=6,7=11,11=9,25=1,30=1,71=1,74=-51/1,2,3,8;
 4/5=5,16=3,69=1/1;
 5/5=2,38=5/2;
 8/6=1,10=2,107=3,108=6/1;
 9/8=3,15=2,41=6,42=1,49=4,70=2/14;
 10/5=4,28=3/2;
 7/12=6,13=5,14=3/1,2,3,16;
 1/18=20,19=15,26=3/3(-8);
 2/9=110/2;
 6/7=2,8=2,9=2,10=2,22=-1/1;
 99/9=10/99;
 -------------------
 FuncsHSEH1PBE-V-3rd
 -------------------
 Symbolic Z-matrix:
 Charge =  0 Multiplicity = 1
 C                    -2.15106   0.68921   0.00009 
 C                    -2.12793  -0.71582   0.00008 
 C                    -0.9323   -1.4131   -0.00001 
 C                     0.24691  -0.6702   -0.00004 
 C                     0.24819   0.7483    0. 
 C                    -0.97947   1.42353   0.00003 
 N                     1.56177  -1.07759  -0.00029 
 C                     1.62013   1.1629   -0.00016 
 C                     2.38201   0.03081   0.00025 
 H                     1.87632  -2.03001   0.00044 
 H                     1.99217   2.17301  -0.00035 
 H                     3.45255  -0.08243   0.00041 
 H                    -3.06159  -1.26202   0.00009 
 H                    -0.91725  -2.49534  -0.00007 
 H                    -3.1042    1.20079   0.00009 
 H                    -1.00935   2.50542  -0.00002 
 

 GradGradGradGradGradGradGradGradGradGradGradGradGradGradGradGradGradGrad
 Berny optimization.
 Initialization pass.
                           ----------------------------
                           !    Initial Parameters    !
                           ! (Angstroms and Degrees)  !
 --------------------------                            --------------------------
 ! Name  Definition              Value          Derivative Info.                !
 --------------------------------------------------------------------------------
 ! R1    R(1,2)                  1.4052         estimate D2E/DX2                !
 ! R2    R(1,6)                  1.3827         estimate D2E/DX2                !
 ! R3    R(1,15)                 1.0818         estimate D2E/DX2                !
 ! R4    R(2,3)                  1.3841         estimate D2E/DX2                !
 ! R5    R(2,13)                 1.0817         estimate D2E/DX2                !
 ! R6    R(3,4)                  1.3937         estimate D2E/DX2                !
 ! R7    R(3,14)                 1.0823         estimate D2E/DX2                !
 ! R8    R(4,5)                  1.4185         estimate D2E/DX2                !
 ! R9    R(4,7)                  1.3765         estimate D2E/DX2                !
 ! R10   R(5,6)                  1.4011         estimate D2E/DX2                !
 ! R11   R(5,8)                  1.4332         estimate D2E/DX2                !
 ! R12   R(6,16)                 1.0823         estimate D2E/DX2                !
 ! R13   R(7,9)                  1.3789         estimate D2E/DX2                !
 ! R14   R(7,10)                 1.003          estimate D2E/DX2                !
 ! R15   R(8,9)                  1.3646         estimate D2E/DX2                !
 ! R16   R(8,11)                 1.0764         estimate D2E/DX2                !
 ! R17   R(9,12)                 1.0765         estimate D2E/DX2                !
 ! A1    A(2,1,6)              121.1349         estimate D2E/DX2                !
 ! A2    A(2,1,15)             119.1671         estimate D2E/DX2                !
 ! A3    A(6,1,15)             119.698          estimate D2E/DX2                !
 ! A4    A(1,2,3)              121.1938         estimate D2E/DX2                !
 ! A5    A(1,2,13)             119.3846         estimate D2E/DX2                !
 ! A6    A(3,2,13)             119.4217         estimate D2E/DX2                !
 ! A7    A(2,3,4)              117.5387         estimate D2E/DX2                !
 ! A8    A(2,3,14)             121.0469         estimate D2E/DX2                !
 ! A9    A(4,3,14)             121.4144         estimate D2E/DX2                !
 ! A10   A(3,4,5)              122.2626         estimate D2E/DX2                !
 ! A11   A(3,4,7)              130.5743         estimate D2E/DX2                !
 ! A12   A(5,4,7)              107.163          estimate D2E/DX2                !
 ! A13   A(4,5,6)              118.7594         estimate D2E/DX2                !
 ! A14   A(4,5,8)              106.8666         estimate D2E/DX2                !
 ! A15   A(6,5,8)              134.374          estimate D2E/DX2                !
 ! A16   A(1,6,5)              119.1105         estimate D2E/DX2                !
 ! A17   A(1,6,16)             120.4966         estimate D2E/DX2                !
 ! A18   A(5,6,16)             120.3928         estimate D2E/DX2                !
 ! A19   A(4,7,9)              109.2874         estimate D2E/DX2                !
 ! A20   A(4,7,10)             125.4909         estimate D2E/DX2                !
 ! A21   A(9,7,10)             125.2217         estimate D2E/DX2                !
 ! A22   A(5,8,9)              107.125          estimate D2E/DX2                !
 ! A23   A(5,8,11)             127.0344         estimate D2E/DX2                !
 ! A24   A(9,8,11)             125.8405         estimate D2E/DX2                !
 ! A25   A(7,9,8)              109.5578         estimate D2E/DX2                !
 ! A26   A(7,9,12)             120.4645         estimate D2E/DX2                !
 ! A27   A(8,9,12)             129.9776         estimate D2E/DX2                !
 ! D1    D(6,1,2,3)             -0.0008         estimate D2E/DX2                !
 ! D2    D(6,1,2,13)          -179.9981         estimate D2E/DX2                !
 ! D3    D(15,1,2,3)           179.996          estimate D2E/DX2                !
 ! D4    D(15,1,2,13)           -0.0013         estimate D2E/DX2                !
 ! D5    D(2,1,6,5)             -0.0018         estimate D2E/DX2                !
 ! D6    D(2,1,6,16)           179.9965         estimate D2E/DX2                !
 ! D7    D(15,1,6,5)          -179.9986         estimate D2E/DX2                !
 ! D8    D(15,1,6,16)           -0.0003         estimate D2E/DX2                !
 ! D9    D(1,2,3,4)              0.002          estimate D2E/DX2                !
 ! D10   D(1,2,3,14)          -179.9968         estimate D2E/DX2                !
 ! D11   D(13,2,3,4)           179.9992         estimate D2E/DX2                !
 ! D12   D(13,2,3,14)            0.0005         estimate D2E/DX2                !
 ! D13   D(2,3,4,5)             -0.0005         estimate D2E/DX2                !
 ! D14   D(2,3,4,7)           -179.9911         estimate D2E/DX2                !
 ! D15   D(14,3,4,5)           179.9982         estimate D2E/DX2                !
 ! D16   D(14,3,4,7)             0.0076         estimate D2E/DX2                !
 ! D17   D(3,4,5,6)             -0.002          estimate D2E/DX2                !
 ! D18   D(3,4,5,8)           -179.9955         estimate D2E/DX2                !
 ! D19   D(7,4,5,6)            179.9905         estimate D2E/DX2                !
 ! D20   D(7,4,5,8)             -0.003          estimate D2E/DX2                !
 ! D21   D(3,4,7,9)           -179.98           estimate D2E/DX2                !
 ! D22   D(3,4,7,10)            -0.0649         estimate D2E/DX2                !
 ! D23   D(5,4,7,9)              0.0284         estimate D2E/DX2                !
 ! D24   D(5,4,7,10)           179.9434         estimate D2E/DX2                !
 ! D25   D(4,5,6,1)              0.0031         estimate D2E/DX2                !
 ! D26   D(4,5,6,16)          -179.9951         estimate D2E/DX2                !
 ! D27   D(8,5,6,1)            179.9944         estimate D2E/DX2                !
 ! D28   D(8,5,6,16)            -0.0038         estimate D2E/DX2                !
 ! D29   D(4,5,8,9)             -0.0234         estimate D2E/DX2                !
 ! D30   D(4,5,8,11)           179.9883         estimate D2E/DX2                !
 ! D31   D(6,5,8,9)            179.9846         estimate D2E/DX2                !
 ! D32   D(6,5,8,11)            -0.0037         estimate D2E/DX2                !
 ! D33   D(4,7,9,8)             -0.0444         estimate D2E/DX2                !
 ! D34   D(4,7,9,12)           179.9847         estimate D2E/DX2                !
 ! D35   D(10,7,9,8)          -179.9597         estimate D2E/DX2                !
 ! D36   D(10,7,9,12)            0.0693         estimate D2E/DX2                !
 ! D37   D(5,8,9,7)              0.0414         estimate D2E/DX2                !
 ! D38   D(5,8,9,12)          -179.9913         estimate D2E/DX2                !
 ! D39   D(11,8,9,7)          -179.9702         estimate D2E/DX2                !
 ! D40   D(11,8,9,12)           -0.0029         estimate D2E/DX2                !
 --------------------------------------------------------------------------------
 Trust Radius=3.00D-01 FncErr=1.00D-07 GrdErr=1.00D-06 EigMax=2.50D+02 EigMin=1.00D-04
 Number of steps in this run=     94 maximum allowed number of steps=    100.
 GradGradGradGradGradGradGradGradGradGradGradGradGradGradGradGradGradGrad

                          Input orientation:                          
 ---------------------------------------------------------------------
 Center     Atomic      Atomic             Coordinates (Angstroms)
 Number     Number       Type             X           Y           Z
 ---------------------------------------------------------------------
      1          6           0       -2.151063    0.689208    0.000088
      2          6           0       -2.127927   -0.715818    0.000075
      3          6           0       -0.932297   -1.413100   -0.000011
      4          6           0        0.246911   -0.670201   -0.000042
      5          6           0        0.248193    0.748299    0.000000
      6          6           0       -0.979474    1.423526    0.000032
      7          7           0        1.561774   -1.077592   -0.000285
      8          6           0        1.620133    1.162900   -0.000157
      9          6           0        2.382013    0.030806    0.000248
     10          1           0        1.876315   -2.030011    0.000438
     11          1           0        1.992173    2.173010   -0.000348
     12          1           0        3.452549   -0.082425    0.000408
     13          1           0       -3.061594   -1.262020    0.000088
     14          1           0       -0.917252   -2.495342   -0.000073
     15          1           0       -3.104203    1.200785    0.000090
     16          1           0       -1.009348    2.505421   -0.000015
 ---------------------------------------------------------------------
                    Distance matrix (angstroms):
                    1          2          3          4          5
     1  C    0.000000
     2  C    1.405216   0.000000
     3  C    2.430039   1.384100   0.000000
     4  C    2.756496   2.375276   1.393711   0.000000
     5  C    2.399984   2.790983   2.462763   1.418501   0.000000
     6  C    1.382694   2.428114   2.837018   2.426461   1.401106
     7  N    4.111781   3.707395   2.516536   1.376529   2.249305
     8  C    3.800829   4.192557   3.626386   2.290414   1.433218
     9  C    4.580641   4.571324   3.615178   2.247236   2.251218
    10  H    4.859416   4.214387   2.875566   2.122273   3.220216
    11  H    4.400917   5.031953   4.627387   3.336134   2.251948
    12  H    5.656491   5.616307   4.582311   3.259079   3.310287
    13  H    2.153220   1.081698   2.134650   3.361020   3.872476
    14  H    3.415208   2.152310   1.082347   2.164813   3.446661
    15  H    1.081752   2.150926   3.398466   3.838040   3.382795
    16  H    2.145261   3.409927   3.919278   3.415079   2.160761
                    6          7          8          9         10
     6  C    0.000000
     7  N    3.565604   0.000000
     8  C    2.612639   2.241252   0.000000
     9  C    3.638580   1.378890   1.364587   0.000000
    10  H    4.481345   1.003015   3.203172   2.121956   0.000000
    11  H    3.064704   3.278972   1.076446   2.177387   4.204618
    12  H    4.680888   2.136677   2.215532   1.076508   2.505515
    13  H    3.398144   4.627045   5.272457   5.595021   4.997275
    14  H    3.919362   2.855798   4.452085   4.155307   2.832058
    15  H    2.136372   5.192528   4.724488   5.609583   5.936632
    16  H    1.082307   4.410062   2.952378   4.198220   5.375611
                   11         12         13         14         15
    11  H    0.000000
    12  H    2.686947   0.000000
    13  H    6.110646   6.620083   0.000000
    14  H    5.500751   4.991726   2.473719   0.000000
    15  H    5.188282   6.681139   2.463174   4.294661   0.000000
    16  H    3.019872   5.158049   4.290143   5.001611   2.467892
                   16
    16  H    0.000000
 Stoichiometry    C8H7N
 Framework group  C1[X(C8H7N)]
 Deg. of freedom    42
 Full point group                 C1      NOp   1
 Largest Abelian subgroup         C1      NOp   1
 Largest concise Abelian subgroup C1      NOp   1
                         Standard orientation:                         
 ---------------------------------------------------------------------
 Center     Atomic      Atomic             Coordinates (Angstroms)
 Number     Number       Type             X           Y           Z
 ---------------------------------------------------------------------
      1          6           0       -2.151063    0.689208    0.000088
      2          6           0       -2.127927   -0.715818    0.000075
      3          6           0       -0.932297   -1.413100   -0.000011
      4          6           0        0.246911   -0.670201   -0.000042
      5          6           0        0.248193    0.748299    0.000000
      6          6           0       -0.979474    1.423526    0.000032
      7          7           0        1.561774   -1.077592   -0.000285
      8          6           0        1.620133    1.162900   -0.000157
      9          6           0        2.382013    0.030806    0.000248
     10          1           0        1.876315   -2.030011    0.000438
     11          1           0        1.992173    2.173010   -0.000348
     12          1           0        3.452549   -0.082425    0.000408
     13          1           0       -3.061594   -1.262020    0.000088
     14          1           0       -0.917252   -2.495342   -0.000073
     15          1           0       -3.104203    1.200785    0.000090
     16          1           0       -1.009348    2.505421   -0.000015
 ---------------------------------------------------------------------
 Rotational constants (GHZ):           3.9080822           1.6429452           1.1566805
 Standard basis: 6-31+G(d) (6D, 7F)
 There are   185 symmetry adapted cartesian basis functions of A   symmetry.
 There are   185 symmetry adapted basis functions of A   symmetry.
   185 basis functions,   316 primitive gaussians,   185 cartesian basis functions
    31 alpha electrons       31 beta electrons
       nuclear repulsion energy       401.3368668897 Hartrees.
 NAtoms=   16 NActive=   16 NUniq=   16 SFac= 1.00D+00 NAtFMM=   60 NAOKFM=F Big=F
 Integral buffers will be    131072 words long.
 Regular integral format.
 Two-electron integral symmetry is turned on.
 One-electron integrals computed using PRISM.
 NBasis=   185 RedAO= T EigKep=  1.26D-06  NBF=   185
 NBsUse=   185 1.00D-06 EigRej= -1.00D+00 NBFU=   185
 ExpMin= 4.38D-02 ExpMax= 4.17D+03 ExpMxC= 6.27D+02 IAcc=3 IRadAn=         5 AccDes= 0.00D+00
 Harris functional with IExCor= 1009 and IRadAn=       5 diagonalized for initial guess.
 HarFok:  IExCor= 1009 AccDes= 0.00D+00 IRadAn=         5 IDoV= 1 UseB2=F ITyADJ=14
 ICtDFT=  3500011 ScaDFX=  1.000000  1.000000  1.000000  1.000000
 FoFCou: FMM=F IPFlag=           0 FMFlag=      100000 FMFlg1=           0
         NFxFlg=           0 DoJE=T BraDBF=F KetDBF=T FulRan=T
         wScrn=  0.000000 ICntrl=       500 IOpCl=  0 I1Cent=   200000004 NGrid=           0
         NMat0=    1 NMatS0=      1 NMatT0=    0 NMatD0=    1 NMtDS0=    0 NMtDT0=    0
 Petite list used in FoFCou.
 Keep R1 ints in memory in canonical form, NReq=303303409.
 Requested convergence on RMS density matrix=1.00D-08 within 128 cycles.
 Requested convergence on MAX density matrix=1.00D-06.
 Requested convergence on             energy=1.00D-06.
 No special actions if energy rises.
 SCF Done:  E(RHSEH1PBE) =  -363.433772147     A.U. after   14 cycles
            NFock= 14  Conv=0.71D-08     -V/T= 2.0088
 DoSCS=F DFT=T ScalE2(SS,OS)=  1.000000  1.000000
 ExpMin= 4.38D-02 ExpMax= 4.17D+03 ExpMxC= 6.27D+02 IAcc=3 IRadAn=         5 AccDes= 0.00D+00
 HarFok:  IExCor=  205 AccDes= 0.00D+00 IRadAn=         5 IDoV=-2 UseB2=F ITyADJ=14
 ICtDFT= 12500011 ScaDFX=  1.000000  1.000000  1.000000  1.000000
 Range of M.O.s used for correlation:    10   185
 NBasis=   185 NAE=    31 NBE=    31 NFC=     9 NFV=     0
 NROrb=    176 NOA=    22 NOB=    22 NVA=   154 NVB=   154

 **** Warning!!: The largest alpha MO coefficient is  0.17295505D+03

 Orbital symmetries:
       Occupied  (A) (A) (A) (A) (A) (A) (A) (A) (A) (A) (A) (A)
                 (A) (A) (A) (A) (A) (A) (A) (A) (A) (A) (A) (A)
                 (A) (A) (A) (A) (A) (A) (A)
       Virtual   (A) (A) (A) (A) (A) (A) (A) (A) (A) (A) (A) (A)
                 (A) (A) (A) (A) (A) (A) (A) (A) (A) (A) (A) (A)
                 (A) (A) (A) (A) (A) (A) (A) (A) (A) (A) (A) (A)
                 (A) (A) (A) (A) (A) (A) (A) (A) (A) (A) (A) (A)
                 (A) (A) (A) (A) (A) (A) (A) (A) (A) (A) (A) (A)
                 (A) (A) (A) (A) (A) (A) (A) (A) (A) (A) (A) (A)
                 (A) (A) (A) (A) (A) (A) (A) (A) (A) (A) (A) (A)
                 (A) (A) (A) (A) (A) (A) (A) (A) (A) (A) (A) (A)
                 (A) (A) (A) (A) (A) (A) (A) (A) (A) (A) (A) (A)
                 (A) (A) (A) (A) (A) (A) (A) (A) (A) (A) (A) (A)
                 (A) (A) (A) (A) (A) (A) (A) (A) (A) (A) (A) (A)
                 (A) (A) (A) (A) (A) (A) (A) (A) (A) (A) (A) (A)
                 (A) (A) (A) (A) (A) (A) (A) (A) (A) (A)
    24 initial guesses have been made.
 Convergence on wavefunction:    0.000001000000000
 Iteration     1 Dimension    24 NMult     0 NNew     24
 CISAX will form    24 AO SS matrices at one time.
 New state      1 was old state      3
 New state      3 was old state      1
 New state      4 was old state      5
 New state      5 was old state      6
 New state      6 was old state      7
 Iteration     2 Dimension    36 NMult    24 NNew     12
 New state      1 was old state      3
 New state      3 was old state      1
 Iteration     3 Dimension    48 NMult    36 NNew     12
 Iteration     4 Dimension    60 NMult    48 NNew     12
 Iteration     5 Dimension    72 NMult    60 NNew     12
 Iteration     6 Dimension    84 NMult    72 NNew     12
 Iteration     7 Dimension    96 NMult    84 NNew     12
 Iteration     8 Dimension   108 NMult    96 NNew     12
 Iteration     9 Dimension   120 NMult   108 NNew     12
 Iteration    10 Dimension   130 NMult   120 NNew     10
 Iteration    11 Dimension   134 NMult   130 NNew      4
 ***********************************************************************
 Excited states from <AA,BB:AA,BB> singles matrix:
 ***********************************************************************
 
 Ground to excited state transition densities written to RWF  633
 Ground to excited state transition electric dipole moments (Au):
       state          X           Y           Z        Dip. S.      Osc.
         1        -0.5502      0.6237     -0.0002      0.6917      0.0822
         2        -0.5490     -0.1062     -0.0002      0.3127      0.0383
         3         0.0012     -0.0005     -0.1303      0.0170      0.0021
         4        -0.0004      0.0001     -0.1436      0.0206      0.0028
         5         0.0005     -0.0000      0.0238      0.0006      0.0001
         6         0.0006      0.0002      0.1034      0.0107      0.0015
 Ground to excited state transition velocity dipole moments (Au):
       state          X           Y           Z        Dip. S.      Osc.
         1         0.0889     -0.1203      0.0000      0.0224      0.0837
         2         0.0951      0.0202      0.0000      0.0094      0.0343
         3        -0.0002      0.0001      0.0158      0.0002      0.0009
         4         0.0001     -0.0000      0.0306      0.0009      0.0031
         5        -0.0001      0.0000     -0.0038      0.0000      0.0000
         6        -0.0001     -0.0000     -0.0221      0.0005      0.0015
 Ground to excited state transition magnetic dipole moments (Au):
       state          X           Y           Z
         1         0.0003     -0.0001      0.1852
         2         0.0000     -0.0002     -0.0283
         3         0.1190     -0.0652      0.0001
         4         0.0491     -0.2336     -0.0000
         5         0.3186     -0.1230      0.0002
         6         0.0825      0.3752      0.0005
 Ground to excited state transition velocity quadrupole moments (Au):
       state          XX          YY          ZZ          XY          XZ          YZ
         1         0.1938     -0.1112      0.0109      0.0490      0.0001      0.0001
         2         0.0738     -0.1119      0.0260      0.0008      0.0001      0.0000
         3        -0.0003      0.0002      0.0001      0.0000      0.0575      0.0519
         4        -0.0001      0.0000      0.0000     -0.0000      0.1639     -0.0086
         5        -0.0002     -0.0001      0.0000      0.0002      0.1574      0.2622
         6         0.0001     -0.0001      0.0000      0.0002     -0.3339     -0.0078
 <0|del|b> * <b|rxdel|0> + <0|del|b> * <b|delr+rdel|0>
 Rotatory Strengths (R) in cgs (10**-40 erg-esu-cm/Gauss)
       state          XX          YY          ZZ    R(velocity)    E-M Angle
         1         0.0511      0.0764      0.0268      0.0514       90.00
         2        -0.0169      0.0045      0.0016     -0.0036       90.00
         3        -0.0232     -0.0613     -0.0260     -0.0368       90.00
         4         0.0149      0.0062      0.0109      0.0107       90.00
         5        -0.0044     -0.0928     -0.0087     -0.0353       90.00
         6        -0.0667     -0.0237     -0.0196     -0.0367       90.00
 1/2[<0|r|b>*<b|rxdel|0> + (<0|rxdel|b>*<b|r|0>)*]
 Rotatory Strengths (R) in cgs (10**-40 erg-esu-cm/Gauss)
       state          XX          YY          ZZ     R(length)
         1         0.1207      0.0263      0.0240      0.0570
         2         0.0125     -0.0186     -0.0041     -0.0034
         3        -0.0969     -0.0243      0.0047     -0.0388
         4         0.0131      0.0172     -0.0003      0.0100
         5        -0.1057     -0.0016     -0.0039     -0.0370
         6        -0.0333     -0.0576     -0.0351     -0.0420
  1/2[<0|del|b>*<b|r|0> + (<0|r|b>*<b|del|0>)*] (Au)
       state          X           Y           Z        Dip. S.   Osc.(frdel)
         1        -0.0489     -0.0750     -0.0000      0.1240      0.0826
         2        -0.0522     -0.0021     -0.0000      0.0543      0.0362
         3        -0.0000     -0.0000     -0.0021      0.0021      0.0014
         4        -0.0000     -0.0000     -0.0044      0.0044      0.0029
         5        -0.0000     -0.0000     -0.0001      0.0001      0.0001
         6        -0.0000     -0.0000     -0.0023      0.0023      0.0015

 Excitation energies and oscillator strengths:
 
 Excited State   1:      Singlet-A      4.8531 eV  255.47 nm  f=0.0822  <S**2>=0.000
      30 -> 32        -0.13553
      30 -> 34         0.15405
      31 -> 32         0.66298
 
 Excited State   2:      Singlet-A      4.9973 eV  248.10 nm  f=0.0383  <S**2>=0.000
      30 -> 32         0.56498
      31 -> 32         0.11432
      31 -> 34        -0.39951
 
 Excited State   3:      Singlet-A      5.0849 eV  243.83 nm  f=0.0021  <S**2>=0.000
      31 -> 33         0.70415
 This state for optimization and/or second-order correction.
 Total Energy, E(TD-HF/TD-DFT) =  -363.246905799    
 Copying the excited state density for this state as the 1-particle RhoCI density.
 
 Excited State   4:      Singlet-A      5.5531 eV  223.27 nm  f=0.0028  <S**2>=0.000
      30 -> 33         0.69254
      31 -> 35         0.11458
 
 Excited State   5:      Singlet-A      5.6515 eV  219.38 nm  f=0.0001  <S**2>=0.000
      30 -> 33        -0.11690
      31 -> 35         0.69297
 
 Excited State   6:      Singlet-A      5.7809 eV  214.47 nm  f=0.0015  <S**2>=0.000
      31 -> 36         0.69833
 SavETr:  write IOETrn=   770 NScale= 10 NData=  16 NLR=1 NState=    6 LETran=     118.
          IDoAtm=1111111111111111
          Differentiating once with respect to electric field.
                with respect to dipole field.
          Differentiating once with respect to nuclear coordinates.
 Keep R1 ints in memory in canonical form, NReq=303315801.
          There are     1 degrees of freedom in the 1st order CPHF.  IDoFFX=0 NUNeed=     1.
 LinEq1:  Iter=  0 NonCon=     1 RMS=1.26D-02 Max=3.40D-01 NDo=     1
 AX will form     1 AO Fock derivatives at one time.
 LinEq1:  Iter=  1 NonCon=     1 RMS=7.37D-03 Max=1.61D-01 NDo=     1
 LinEq1:  Iter=  2 NonCon=     1 RMS=5.70D-03 Max=1.16D-01 NDo=     1
 LinEq1:  Iter=  3 NonCon=     1 RMS=2.62D-03 Max=7.89D-02 NDo=     1
 LinEq1:  Iter=  4 NonCon=     1 RMS=1.60D-03 Max=2.62D-02 NDo=     1
 LinEq1:  Iter=  5 NonCon=     1 RMS=6.98D-04 Max=1.75D-02 NDo=     1
 LinEq1:  Iter=  6 NonCon=     1 RMS=4.78D-04 Max=1.16D-02 NDo=     1
 LinEq1:  Iter=  7 NonCon=     1 RMS=2.22D-04 Max=5.57D-03 NDo=     1
 LinEq1:  Iter=  8 NonCon=     1 RMS=1.52D-04 Max=3.23D-03 NDo=     1
 LinEq1:  Iter=  9 NonCon=     1 RMS=4.42D-05 Max=9.69D-04 NDo=     1
 LinEq1:  Iter= 10 NonCon=     1 RMS=3.23D-05 Max=8.21D-04 NDo=     1
 LinEq1:  Iter= 11 NonCon=     1 RMS=1.11D-05 Max=2.54D-04 NDo=     1
 LinEq1:  Iter= 12 NonCon=     1 RMS=6.65D-06 Max=1.89D-04 NDo=     1
 LinEq1:  Iter= 13 NonCon=     1 RMS=2.16D-06 Max=3.59D-05 NDo=     1
 LinEq1:  Iter= 14 NonCon=     1 RMS=7.75D-07 Max=1.49D-05 NDo=     1
 LinEq1:  Iter= 15 NonCon=     1 RMS=4.36D-07 Max=9.38D-06 NDo=     1
 LinEq1:  Iter= 16 NonCon=     1 RMS=9.68D-08 Max=9.59D-07 NDo=     1
 LinEq1:  Iter= 17 NonCon=     1 RMS=2.09D-08 Max=3.23D-07 NDo=     1
 LinEq1:  Iter= 18 NonCon=     1 RMS=1.18D-08 Max=1.82D-07 NDo=     1
 LinEq1:  Iter= 19 NonCon=     1 RMS=3.59D-09 Max=4.27D-08 NDo=     1
 LinEq1:  Iter= 20 NonCon=     1 RMS=5.90D-10 Max=5.34D-09 NDo=     1
 LinEq1:  Iter= 21 NonCon=     1 RMS=9.51D-11 Max=1.45D-09 NDo=     1
 LinEq1:  Iter= 22 NonCon=     0 RMS=2.21D-11 Max=2.87D-10 NDo=     1
 Linear equations converged to 1.000D-10 1.000D-09 after    22 iterations.
 End of Minotr F.D. properties file   721 does not exist.
 End of Minotr F.D. properties file   722 does not exist.
 End of Minotr F.D. properties file   788 does not exist.

 **********************************************************************

            Population analysis using the CI Density.

 **********************************************************************

 Orbital symmetries:
       Occupied  (A) (A) (A) (A) (A) (A) (A) (A) (A) (A) (A) (A)
                 (A) (A) (A) (A) (A) (A) (A) (A) (A) (A) (A) (A)
                 (A) (A) (A) (A) (A) (A) (A)
       Virtual   (A) (A) (A) (A) (A) (A) (A) (A) (A) (A) (A) (A)
                 (A) (A) (A) (A) (A) (A) (A) (A) (A) (A) (A) (A)
                 (A) (A) (A) (A) (A) (A) (A) (A) (A) (A) (A) (A)
                 (A) (A) (A) (A) (A) (A) (A) (A) (A) (A) (A) (A)
                 (A) (A) (A) (A) (A) (A) (A) (A) (A) (A) (A) (A)
                 (A) (A) (A) (A) (A) (A) (A) (A) (A) (A) (A) (A)
                 (A) (A) (A) (A) (A) (A) (A) (A) (A) (A) (A) (A)
                 (A) (A) (A) (A) (A) (A) (A) (A) (A) (A) (A) (A)
                 (A) (A) (A) (A) (A) (A) (A) (A) (A) (A) (A) (A)
                 (A) (A) (A) (A) (A) (A) (A) (A) (A) (A) (A) (A)
                 (A) (A) (A) (A) (A) (A) (A) (A) (A) (A) (A) (A)
                 (A) (A) (A) (A) (A) (A) (A) (A) (A) (A) (A) (A)
                 (A) (A) (A) (A) (A) (A) (A) (A) (A) (A)
 The electronic state is 1-A.
 Alpha  occ. eigenvalues --  -14.43659 -10.25747 -10.25556 -10.22524 -10.22140
 Alpha  occ. eigenvalues --  -10.21985 -10.21978 -10.21469 -10.21245  -0.99778
 Alpha  occ. eigenvalues --   -0.85176  -0.79369  -0.74505  -0.72645  -0.63078
 Alpha  occ. eigenvalues --   -0.60077  -0.58710  -0.54410  -0.48545  -0.47299
 Alpha  occ. eigenvalues --   -0.43888  -0.43005  -0.42437  -0.41175  -0.39188
 Alpha  occ. eigenvalues --   -0.35425  -0.33460  -0.33349  -0.27787  -0.22090
 Alpha  occ. eigenvalues --   -0.20396
 Alpha virt. eigenvalues --   -0.02533  -0.00505   0.01125   0.01381   0.01973
 Alpha virt. eigenvalues --    0.03518   0.03649   0.03970   0.05514   0.05736
 Alpha virt. eigenvalues --    0.06429   0.06485   0.08234   0.08564   0.10434
 Alpha virt. eigenvalues --    0.10598   0.10852   0.12331   0.13219   0.13588
 Alpha virt. eigenvalues --    0.15258   0.15408   0.16390   0.16468   0.16993
 Alpha virt. eigenvalues --    0.17926   0.18433   0.18621   0.19501   0.19724
 Alpha virt. eigenvalues --    0.19911   0.20067   0.21669   0.22199   0.22921
 Alpha virt. eigenvalues --    0.23357   0.23572   0.24424   0.25452   0.25842
 Alpha virt. eigenvalues --    0.26914   0.27164   0.27647   0.29440   0.29934
 Alpha virt. eigenvalues --    0.30707   0.31360   0.33020   0.34933   0.36530
 Alpha virt. eigenvalues --    0.37713   0.39809   0.43354   0.44882   0.51304
 Alpha virt. eigenvalues --    0.58110   0.62638   0.67463   0.67538   0.70045
 Alpha virt. eigenvalues --    0.71742   0.72233   0.73186   0.73834   0.74395
 Alpha virt. eigenvalues --    0.75469   0.75961   0.77942   0.79422   0.80213
 Alpha virt. eigenvalues --    0.81644   0.85525   0.89588   0.90346   0.91492
 Alpha virt. eigenvalues --    0.93797   0.94547   0.95447   0.96173   0.98571
 Alpha virt. eigenvalues --    1.00510   1.03213   1.04861   1.06612   1.09447
 Alpha virt. eigenvalues --    1.11364   1.11726   1.17114   1.17987   1.20553
 Alpha virt. eigenvalues --    1.22496   1.23079   1.25314   1.31720   1.31930
 Alpha virt. eigenvalues --    1.33737   1.36964   1.41167   1.41809   1.45346
 Alpha virt. eigenvalues --    1.45754   1.46457   1.49555   1.50123   1.54029
 Alpha virt. eigenvalues --    1.59065   1.65136   1.78847   1.84605   1.88566
 Alpha virt. eigenvalues --    1.89221   1.92450   1.94579   1.99824   2.00087
 Alpha virt. eigenvalues --    2.00644   2.06652   2.10337   2.14535   2.17586
 Alpha virt. eigenvalues --    2.17629   2.20241   2.25150   2.26317   2.26842
 Alpha virt. eigenvalues --    2.28941   2.31842   2.38442   2.41232   2.45102
 Alpha virt. eigenvalues --    2.55356   2.56315   2.64281   2.66448   2.67500
 Alpha virt. eigenvalues --    2.70680   2.74329   2.81696   2.85389   2.86569
 Alpha virt. eigenvalues --    2.96251   2.98702   3.12128   3.25223   3.45788
 Alpha virt. eigenvalues --    4.16676   4.27763   4.30738   4.34201   4.37798
 Alpha virt. eigenvalues --    4.41363   4.49683   4.53608   4.80607
          Condensed to atoms (all electrons):
               1          2          3          4          5          6
     1  C   23.864478   6.132860  -1.829135 -17.345177  -9.998470 -10.425261
     2  C    6.132860  28.253260   4.313029 -28.629055  11.167565 -25.917880
     3  C   -1.829135   4.313029  23.080039  -1.492511  -5.860808 -12.246861
     4  C  -17.345177 -28.629055  -1.492511  97.741341 -25.514785  26.954163
     5  C   -9.998470  11.167565  -5.860808 -25.514785  88.970337 -24.627322
     6  C  -10.425261 -25.917880 -12.246861  26.954163 -24.627322  59.702635
     7  N   -0.324600  -0.939583   1.750993   5.718767  -4.792449   0.589088
     8  C   24.550612  20.009179  -6.390989 -92.243915 -41.616860  -8.181546
     9  C   -8.924320  -7.828117   4.452701  41.676979  16.425614   0.257250
    10  H   -0.008702  -0.034891  -0.728263  -0.175231   1.160488   0.082056
    11  H    0.002079   0.003574   0.005029   0.034163   0.005199  -0.018180
    12  H    0.007201   0.002715   0.045783   0.122934  -0.304377   0.017166
    13  H    0.082859   0.108027   0.022417   0.098530  -0.060129   0.066044
    14  H   -0.028535   0.177315  -0.002440   0.073529   0.104681  -0.009970
    15  H    0.280544   0.107544   0.029921  -0.066686   0.056522  -0.115116
    16  H    0.045862  -0.011177  -0.035794   0.006614   0.115373   0.244699
               7          8          9         10         11         12
     1  C   -0.324600  24.550612  -8.924320  -0.008702   0.002079   0.007201
     2  C   -0.939583  20.009179  -7.828117  -0.034891   0.003574   0.002715
     3  C    1.750993  -6.390989   4.452701  -0.728263   0.005029   0.045783
     4  C    5.718767 -92.243915  41.676979  -0.175231   0.034163   0.122934
     5  C   -4.792449 -41.616860  16.425614   1.160488   0.005199  -0.304377
     6  C    0.589088  -8.181546   0.257250   0.082056  -0.018180   0.017166
     7  N   12.550973 -19.761697  12.298436  -0.686532   0.002999  -0.078461
     8  C  -19.761697 257.349591-125.687509   1.780926   0.289208   0.747229
     9  C   12.298436-125.687509  71.979053  -1.203908  -0.015099  -0.229114
    10  H   -0.686532   1.780926  -1.203908   0.407872  -0.000015   0.002590
    11  H    0.002999   0.289208  -0.015099  -0.000015   0.426094  -0.000790
    12  H   -0.078461   0.747229  -0.229114   0.002590  -0.000790   0.366360
    13  H    0.002167  -0.021517   0.009915  -0.000016   0.000000  -0.000000
    14  H   -0.019765   0.024877  -0.007037   0.001025   0.000001   0.000002
    15  H   -0.000366   0.026402  -0.005056   0.000001  -0.000001  -0.000000
    16  H    0.000099  -0.103282   0.031105  -0.000000   0.001123  -0.000002
              13         14         15         16
     1  C    0.082859  -0.028535   0.280544   0.045862
     2  C    0.108027   0.177315   0.107544  -0.011177
     3  C    0.022417  -0.002440   0.029921  -0.035794
     4  C    0.098530   0.073529  -0.066686   0.006614
     5  C   -0.060129   0.104681   0.056522   0.115373
     6  C    0.066044  -0.009970  -0.115116   0.244699
     7  N    0.002167  -0.019765  -0.000366   0.000099
     8  C   -0.021517   0.024877   0.026402  -0.103282
     9  C    0.009915  -0.007037  -0.005056   0.031105
    10  H   -0.000016   0.001025   0.000001  -0.000000
    11  H    0.000000   0.000001  -0.000001   0.001123
    12  H   -0.000000   0.000002  -0.000000  -0.000002
    13  H    0.453794  -0.003056  -0.003676  -0.000115
    14  H   -0.003056   0.397131  -0.000097   0.000013
    15  H   -0.003676  -0.000097   0.462164  -0.003463
    16  H   -0.000115   0.000013  -0.003463   0.462719
 Mulliken charges:
               1
     1  C   -0.082296
     2  C   -0.914366
     3  C    0.886888
     4  C   -0.959660
     5  C    0.769421
     6  C   -0.370965
     7  N    0.689930
     8  C   -4.770710
     9  C    2.769107
    10  H    0.402601
    11  H    0.264614
    12  H    0.300765
    13  H    0.244754
    14  H    0.292326
    15  H    0.231364
    16  H    0.246228
 Sum of Mulliken charges =  -0.00000
 Mulliken charges with hydrogens summed into heavy atoms:
               1
     1  C    0.149068
     2  C   -0.669612
     3  C    1.179214
     4  C   -0.959660
     5  C    0.769421
     6  C   -0.124737
     7  N    1.092531
     8  C   -4.506096
     9  C    3.069872
 Electronic spatial extent (au):  <R**2>=           1039.0027
 Charge=             -0.0000 electrons
 Dipole moment (field-independent basis, Debye):
    X=             -5.8790    Y=              6.6014    Z=              0.0008  Tot=              8.8397
 Quadrupole moment (field-independent basis, Debye-Ang):
   XX=            -63.1419   YY=            -65.7372   ZZ=            -65.2274
   XY=             15.2923   XZ=             -0.0005   YZ=             -0.0011
 Traceless Quadrupole moment (field-independent basis, Debye-Ang):
   XX=              1.5603   YY=             -1.0350   ZZ=             -0.5252
   XY=             15.2923   XZ=             -0.0005   YZ=             -0.0011
 Octapole moment (field-independent basis, Debye-Ang**2):
  XXX=           -110.1312  YYY=             81.9688  ZZZ=              0.0001  XYY=            -45.8045
  XXY=             49.5959  XXZ=             -0.0046  XZZ=            -17.8431  YZZ=             18.4615
  YYZ=              0.0061  XYZ=              0.0043
 Hexadecapole moment (field-independent basis, Debye-Ang**3):
 XXXX=          -1315.9827 YYYY=           -722.2818 ZZZZ=           -133.8207 XXXY=            196.6558
 XXXZ=             -0.0112 YYYX=            135.4026 YYYZ=             -0.0100 ZZZX=             -0.0068
 ZZZY=              0.0022 XXYY=           -348.8170 XXZZ=           -246.9581 YYZZ=           -151.4308
 XXYZ=              0.0111 YYXZ=             -0.0207 ZZXY=             34.2911
 N-N= 4.013368668897D+02 E-N=-1.641216514938D+03  KE= 3.602163460691D+02
 Calling FoFJK, ICntrl=  10005127 FMM=F ISym2X=0 I1Cent= 0 IOpClX= 0 NMat=1 NMatS=1 NMatT=0.
 ***** Axes restored to original set *****
 -------------------------------------------------------------------
 Center     Atomic                   Forces (Hartrees/Bohr)
 Number     Number              X              Y              Z
 -------------------------------------------------------------------
      1        6          -0.012073896   -0.014888360    0.000002882
      2        6          -0.015081549    0.025364924   -0.000000843
      3        6           0.029392823   -0.006059696   -0.000014160
      4        6          -0.007835680   -0.000307586    0.000005913
      5        6           0.007842328   -0.002139295   -0.000038717
      6        6           0.007312861    0.008537401   -0.000016607
      7        7           0.019750045    0.067700925    0.000088155
      8        6          -0.039616259    0.022281477    0.000045119
      9        6          -0.009278846   -0.069635784   -0.000096600
     10        1           0.014400087   -0.033017807   -0.000000899
     11        1           0.001991433    0.004943282    0.000005169
     12        1           0.006316621   -0.003936893    0.000006559
     13        1          -0.002404959   -0.001417560    0.000000982
     14        1           0.002098725   -0.001762323    0.000003106
     15        1          -0.002499560    0.001514499    0.000004373
     16        1          -0.000314174    0.002822797    0.000005568
 -------------------------------------------------------------------
 Cartesian Forces:  Max     0.069635784 RMS     0.018131908

 GradGradGradGradGradGradGradGradGradGradGradGradGradGradGradGradGradGrad
 Berny optimization.
 FormGI is forming the generalized inverse of G from B-inverse, IUseBI=4.
 Internal  Forces:  Max     0.048153129 RMS     0.009185417
 Search for a local minimum.
 Step number   1 out of a maximum of   94
 All quantities printed in internal units (Hartrees-Bohrs-Radians)
 Mixed Optimization -- RFO/linear search
 Second derivative matrix not updated -- first step.
 ITU=  0
     Eigenvalues ---    0.01853   0.01931   0.01986   0.02012   0.02070
     Eigenvalues ---    0.02113   0.02148   0.02153   0.02172   0.02209
     Eigenvalues ---    0.02233   0.02248   0.02338   0.16000   0.16000
     Eigenvalues ---    0.16000   0.16000   0.16000   0.16000   0.16000
     Eigenvalues ---    0.22000   0.22188   0.22662   0.24011   0.24651
     Eigenvalues ---    0.35712   0.35717   0.35783   0.35790   0.36420
     Eigenvalues ---    0.36427   0.37009   0.38432   0.42633   0.43465
     Eigenvalues ---    0.45769   0.46692   0.47162   0.47468   0.47567
     Eigenvalues ---    0.48125   0.50955
 RFO step:  Lambda=-1.46933245D-02 EMin= 1.85287394D-02
 Linear search not attempted -- first point.
 Iteration  1 RMS(Cart)=  0.02711314 RMS(Int)=  0.00014384
 Iteration  2 RMS(Cart)=  0.00018447 RMS(Int)=  0.00002458
 Iteration  3 RMS(Cart)=  0.00000003 RMS(Int)=  0.00002458
 Variable       Old X    -DE/DX   Delta X   Delta X   Delta X     New X
                                 (Linear)    (Quad)   (Total)
    R1        2.65547  -0.00871   0.00000  -0.01766  -0.01766   2.63781
    R2        2.61291   0.01117   0.00000   0.02338   0.02338   2.63630
    R3        2.04421   0.00292   0.00000   0.00783   0.00783   2.05205
    R4        2.61557   0.02643   0.00000   0.05309   0.05309   2.66866
    R5        2.04411   0.00279   0.00000   0.00749   0.00749   2.05161
    R6        2.63373  -0.01215   0.00000  -0.02636  -0.02636   2.60737
    R7        2.04534   0.00179   0.00000   0.00482   0.00482   2.05016
    R8        2.68058  -0.00161   0.00000  -0.00507  -0.00501   2.67557
    R9        2.60126   0.00869   0.00000   0.01380   0.01386   2.61512
   R10        2.64771   0.00616   0.00000   0.01311   0.01311   2.66082
   R11        2.70839  -0.01506   0.00000  -0.03210  -0.03212   2.67627
   R12        2.04526   0.00283   0.00000   0.00761   0.00761   2.05288
   R13        2.60573  -0.04815   0.00000  -0.09666  -0.09669   2.50903
   R14        1.89542   0.03587   0.00000   0.07375   0.07375   1.96918
   R15        2.57870   0.04103   0.00000   0.07856   0.07849   2.65719
   R16        2.03419   0.00533   0.00000   0.01406   0.01406   2.04825
   R17        2.03430   0.00670   0.00000   0.01767   0.01767   2.05198
    A1        2.11420  -0.00505   0.00000  -0.01687  -0.01686   2.09735
    A2        2.07986   0.00268   0.00000   0.00932   0.00932   2.08917
    A3        2.08912   0.00237   0.00000   0.00754   0.00754   2.09666
    A4        2.11523   0.00266   0.00000   0.01373   0.01374   2.12897
    A5        2.08365  -0.00132   0.00000  -0.00681  -0.00681   2.07684
    A6        2.08430  -0.00134   0.00000  -0.00692  -0.00693   2.07737
    A7        2.05144   0.00035   0.00000  -0.00074  -0.00072   2.05071
    A8        2.11267   0.00195   0.00000   0.01251   0.01251   2.12517
    A9        2.11908  -0.00229   0.00000  -0.01177  -0.01178   2.10730
   A10        2.13389  -0.00326   0.00000  -0.01299  -0.01303   2.12086
   A11        2.27895  -0.00321   0.00000  -0.00678  -0.00684   2.27211
   A12        1.87035   0.00647   0.00000   0.01977   0.01987   1.89022
   A13        2.07274   0.00765   0.00000   0.02454   0.02453   2.09727
   A14        1.86517  -0.00759   0.00000  -0.02305  -0.02302   1.84216
   A15        2.34527  -0.00006   0.00000  -0.00149  -0.00151   2.34375
   A16        2.07887  -0.00235   0.00000  -0.00767  -0.00766   2.07121
   A17        2.10306   0.00093   0.00000   0.00245   0.00245   2.10551
   A18        2.10125   0.00142   0.00000   0.00522   0.00522   2.10647
   A19        1.90743   0.00336   0.00000   0.00369   0.00371   1.91114
   A20        2.19023   0.00147   0.00000   0.01617   0.01616   2.20638
   A21        2.18553  -0.00483   0.00000  -0.01985  -0.01987   2.16567
   A22        1.86968  -0.00138   0.00000   0.00361   0.00354   1.87322
   A23        2.21717   0.00085   0.00000  -0.00088  -0.00084   2.21633
   A24        2.19633   0.00053   0.00000  -0.00274  -0.00270   2.19363
   A25        1.91215  -0.00086   0.00000  -0.00402  -0.00410   1.90804
   A26        2.10250  -0.00287   0.00000  -0.01691  -0.01687   2.08563
   A27        2.26854   0.00374   0.00000   0.02093   0.02098   2.28951
    D1       -0.00001   0.00000   0.00000   0.00007   0.00007   0.00005
    D2       -3.14156   0.00000   0.00000  -0.00000  -0.00000  -3.14156
    D3        3.14152   0.00000   0.00000   0.00011   0.00011  -3.14155
    D4       -0.00002   0.00000   0.00000   0.00004   0.00004   0.00002
    D5       -0.00003  -0.00000   0.00000  -0.00007  -0.00007  -0.00010
    D6        3.14153   0.00000   0.00000   0.00009   0.00009  -3.14156
    D7       -3.14157  -0.00000   0.00000  -0.00011  -0.00011   3.14151
    D8       -0.00001   0.00000   0.00000   0.00005   0.00005   0.00004
    D9        0.00003   0.00000   0.00000   0.00002   0.00002   0.00006
   D10       -3.14154  -0.00000   0.00000  -0.00007  -0.00007   3.14158
   D11        3.14158   0.00000   0.00000   0.00009   0.00009  -3.14152
   D12        0.00001  -0.00000   0.00000  -0.00001  -0.00001   0.00000
   D13       -0.00001  -0.00001   0.00000  -0.00011  -0.00011  -0.00012
   D14       -3.14144  -0.00000   0.00000  -0.00001  -0.00000  -3.14144
   D15        3.14156  -0.00000   0.00000  -0.00001  -0.00001   3.14155
   D16        0.00013   0.00000   0.00000   0.00009   0.00009   0.00022
   D17       -0.00004   0.00001   0.00000   0.00011   0.00011   0.00007
   D18       -3.14151   0.00000   0.00000  -0.00005  -0.00006  -3.14157
   D19        3.14143   0.00000   0.00000   0.00003   0.00002   3.14145
   D20       -0.00005  -0.00000   0.00000  -0.00014  -0.00014  -0.00019
   D21       -3.14124  -0.00001   0.00000  -0.00048  -0.00049   3.14145
   D22       -0.00113   0.00001   0.00000   0.00029   0.00029  -0.00084
   D23        0.00049  -0.00001   0.00000  -0.00038  -0.00039   0.00010
   D24        3.14060   0.00002   0.00000   0.00039   0.00039   3.14100
   D25        0.00005  -0.00000   0.00000  -0.00002  -0.00002   0.00004
   D26       -3.14151  -0.00001   0.00000  -0.00018  -0.00018   3.14150
   D27        3.14150   0.00001   0.00000   0.00020   0.00020  -3.14149
   D28       -0.00007   0.00000   0.00000   0.00004   0.00004  -0.00002
   D29       -0.00041   0.00003   0.00000   0.00064   0.00062   0.00021
   D30        3.14139   0.00001   0.00000   0.00015   0.00014   3.14153
   D31        3.14132   0.00002   0.00000   0.00043   0.00042  -3.14144
   D32       -0.00006   0.00000   0.00000  -0.00005  -0.00006  -0.00012
   D33       -0.00077   0.00003   0.00000   0.00082   0.00081   0.00004
   D34        3.14133   0.00001   0.00000   0.00025   0.00025   3.14157
   D35       -3.14089   0.00000   0.00000   0.00001   0.00001  -3.14088
   D36        0.00121  -0.00002   0.00000  -0.00056  -0.00055   0.00066
   D37        0.00072  -0.00003   0.00000  -0.00088  -0.00088  -0.00016
   D38       -3.14144  -0.00001   0.00000  -0.00025  -0.00024   3.14150
   D39       -3.14107  -0.00001   0.00000  -0.00040  -0.00041  -3.14148
   D40       -0.00005   0.00001   0.00000   0.00023   0.00023   0.00018
         Item               Value     Threshold  Converged?
 Maximum Force            0.048153     0.000450     NO 
 RMS     Force            0.009185     0.000300     NO 
 Maximum Displacement     0.118768     0.001800     NO 
 RMS     Displacement     0.027146     0.001200     NO 
 Predicted change in Energy=-7.580401D-03
 GradGradGradGradGradGradGradGradGradGradGradGradGradGradGradGradGradGrad

                          Input orientation:                          
 ---------------------------------------------------------------------
 Center     Atomic      Atomic             Coordinates (Angstroms)
 Number     Number       Type             X           Y           Z
 ---------------------------------------------------------------------
      1          6           0       -2.175999    0.699078   -0.000013
      2          6           0       -2.127099   -0.695935    0.000005
      3          6           0       -0.903774   -1.401465    0.000029
      4          6           0        0.259525   -0.659524    0.000105
      5          6           0        0.234490    0.756105    0.000015
      6          6           0       -0.995201    1.441997   -0.000068
      7          7           0        1.580864   -1.070784   -0.000016
      8          6           0        1.591961    1.159779    0.000101
      9          6           0        2.375989   -0.007474   -0.000050
     10          1           0        1.922320   -2.055295    0.000510
     11          1           0        1.970223    2.175517    0.000016
     12          1           0        3.453068   -0.145274   -0.000124
     13          1           0       -3.057676   -1.255122    0.000017
     14          1           0       -0.869886   -2.485832    0.000057
     15          1           0       -3.137505    1.203736    0.000006
     16          1           0       -1.024395    2.527940   -0.000053
 ---------------------------------------------------------------------
                    Distance matrix (angstroms):
                    1          2          3          4          5
     1  C    0.000000
     2  C    1.395870   0.000000
     3  C    2.455777   1.412196   0.000000
     4  C    2.788831   2.386902   1.379761   0.000000
     5  C    2.411164   2.772277   2.439417   1.415850   0.000000
     6  C    1.395067   2.419080   2.844932   2.447597   1.408045
     7  N    4.152882   3.726862   2.506546   1.383861   2.269415
     8  C    3.796020   4.156330   3.576124   2.255049   1.416220
     9  C    4.606496   4.555412   3.563713   2.214630   2.273558
    10  H    4.937894   4.271494   2.900742   2.170960   3.279137
    11  H    4.401253   5.003327   4.588535   3.311184   2.242208
    12  H    5.692041   5.607272   4.534324   3.234683   3.342414
    13  H    2.143887   1.085663   2.158868   3.370246   3.857900
    14  H    3.442322   2.187308   1.084896   2.147317   3.424880
    15  H    1.085898   2.151667   3.431709   3.874474   3.401577
    16  H    2.161233   3.407246   3.931256   3.436332   2.173521
                    6          7          8          9         10
     6  C    0.000000
     7  N    3.598636   0.000000
     8  C    2.602509   2.230590   0.000000
     9  C    3.669590   1.327724   1.406122   0.000000
    10  H    4.554447   1.042044   3.232002   2.097471   0.000000
    11  H    3.054798   3.269567   1.083885   2.220382   4.231083
    12  H    4.722979   2.088473   2.273078   1.085859   2.447728
    13  H    3.395328   4.642201   5.239358   5.575064   5.043872
    14  H    3.929828   2.829936   4.398996   4.083866   2.825204
    15  H    2.155513   5.237981   4.729670   5.644966   6.018564
    16  H    1.086335   4.442768   2.952488   4.241572   5.448778
                   11         12         13         14         15
    11  H    0.000000
    12  H    2.754070   0.000000
    13  H    6.086793   6.604662   0.000000
    14  H    5.458424   4.915908   2.510194   0.000000
    15  H    5.199350   6.727220   2.460153   4.330705   0.000000
    16  H    3.015284   5.214763   4.294856   5.016152   2.493742
                   16
    16  H    0.000000
 Stoichiometry    C8H7N
 Framework group  C1[X(C8H7N)]
 Deg. of freedom    42
 Full point group                 C1      NOp   1
 Largest Abelian subgroup         C1      NOp   1
 Largest concise Abelian subgroup C1      NOp   1
                         Standard orientation:                         
 ---------------------------------------------------------------------
 Center     Atomic      Atomic             Coordinates (Angstroms)
 Number     Number       Type             X           Y           Z
 ---------------------------------------------------------------------
      1          6           0       -2.192051    0.636562   -0.000030
      2          6           0       -2.105551   -0.756625   -0.000012
      3          6           0       -0.863646   -1.428911    0.000012
      4          6           0        0.279223   -0.655871    0.000088
      5          6           0        0.216024    0.758568   -0.000002
      6          6           0       -1.031715    1.411052   -0.000085
      7          7           0        1.611171   -1.031351   -0.000033
      8          6           0        1.562116    1.198700    0.000084
      9          6           0        2.377334    0.053013   -0.000067
     10          1           0        1.979051   -2.006297    0.000493
     11          1           0        1.912850    2.224269   -0.000001
     12          1           0        3.457738   -0.055693   -0.000141
     13          1           0       -3.020711   -1.340702   -0.000000
     14          1           0       -0.800530   -2.511970    0.000040
     15          1           0       -3.166815    1.115109   -0.000011
     16          1           0       -1.090182    2.495812   -0.000070
 ---------------------------------------------------------------------
 Rotational constants (GHZ):           3.9142500           1.6389210           1.1552222
 Standard basis: 6-31+G(d) (6D, 7F)
 There are   185 symmetry adapted cartesian basis functions of A   symmetry.
 There are   185 symmetry adapted basis functions of A   symmetry.
   185 basis functions,   316 primitive gaussians,   185 cartesian basis functions
    31 alpha electrons       31 beta electrons
       nuclear repulsion energy       401.0424019939 Hartrees.
 NAtoms=   16 NActive=   16 NUniq=   16 SFac= 1.00D+00 NAtFMM=   60 NAOKFM=F Big=F
 Integral buffers will be    131072 words long.
 Regular integral format.
 Two-electron integral symmetry is turned on.
 One-electron integrals computed using PRISM.
 NBasis=   185 RedAO= T EigKep=  1.18D-06  NBF=   185
 NBsUse=   185 1.00D-06 EigRej= -1.00D+00 NBFU=   185
 Initial guess from the checkpoint file:  "FuncsHSEH1PBE-V-3rd.chk"
 B after Tr=     0.000000    0.000000   -0.000000
         Rot=    0.999911    0.000011    0.000010   -0.013339 Ang=   1.53 deg.
 ExpMin= 4.38D-02 ExpMax= 4.17D+03 ExpMxC= 6.27D+02 IAcc=3 IRadAn=         5 AccDes= 0.00D+00
 Harris functional with IExCor= 1009 and IRadAn=       5 diagonalized for initial guess.
 HarFok:  IExCor= 1009 AccDes= 0.00D+00 IRadAn=         5 IDoV= 1 UseB2=F ITyADJ=14
 ICtDFT=  3500011 ScaDFX=  1.000000  1.000000  1.000000  1.000000
 FoFCou: FMM=F IPFlag=           0 FMFlag=      100000 FMFlg1=           0
         NFxFlg=           0 DoJE=T BraDBF=F KetDBF=T FulRan=T
         wScrn=  0.000000 ICntrl=       500 IOpCl=  0 I1Cent=   200000004 NGrid=           0
         NMat0=    1 NMatS0=      1 NMatT0=    0 NMatD0=    1 NMtDS0=    0 NMtDT0=    0
 Petite list used in FoFCou.
 Keep R1 ints in memory in canonical form, NReq=303303409.
 Requested convergence on RMS density matrix=1.00D-08 within 128 cycles.
 Requested convergence on MAX density matrix=1.00D-06.
 Requested convergence on             energy=1.00D-06.
 No special actions if energy rises.
 SCF Done:  E(RHSEH1PBE) =  -363.428071784     A.U. after   13 cycles
            NFock= 13  Conv=0.96D-08     -V/T= 2.0091
 DoSCS=F DFT=T ScalE2(SS,OS)=  1.000000  1.000000
 ExpMin= 4.38D-02 ExpMax= 4.17D+03 ExpMxC= 6.27D+02 IAcc=3 IRadAn=         5 AccDes= 0.00D+00
 HarFok:  IExCor=  205 AccDes= 0.00D+00 IRadAn=         5 IDoV=-2 UseB2=F ITyADJ=14
 ICtDFT= 12500011 ScaDFX=  1.000000  1.000000  1.000000  1.000000
 Range of M.O.s used for correlation:    10   185
 NBasis=   185 NAE=    31 NBE=    31 NFC=     9 NFV=     0
 NROrb=    176 NOA=    22 NOB=    22 NVA=   154 NVB=   154

 **** Warning!!: The largest alpha MO coefficient is  0.19628388D+03

 Orbital symmetries:
       Occupied  (A) (A) (A) (A) (A) (A) (A) (A) (A) (A) (A) (A)
                 (A) (A) (A) (A) (A) (A) (A) (A) (A) (A) (A) (A)
                 (A) (A) (A) (A) (A) (A) (A)
       Virtual   (A) (A) (A) (A) (A) (A) (A) (A) (A) (A) (A) (A)
                 (A) (A) (A) (A) (A) (A) (A) (A) (A) (A) (A) (A)
                 (A) (A) (A) (A) (A) (A) (A) (A) (A) (A) (A) (A)
                 (A) (A) (A) (A) (A) (A) (A) (A) (A) (A) (A) (A)
                 (A) (A) (A) (A) (A) (A) (A) (A) (A) (A) (A) (A)
                 (A) (A) (A) (A) (A) (A) (A) (A) (A) (A) (A) (A)
                 (A) (A) (A) (A) (A) (A) (A) (A) (A) (A) (A) (A)
                 (A) (A) (A) (A) (A) (A) (A) (A) (A) (A) (A) (A)
                 (A) (A) (A) (A) (A) (A) (A) (A) (A) (A) (A) (A)
                 (A) (A) (A) (A) (A) (A) (A) (A) (A) (A) (A) (A)
                 (A) (A) (A) (A) (A) (A) (A) (A) (A) (A) (A) (A)
                 (A) (A) (A) (A) (A) (A) (A) (A) (A) (A) (A) (A)
                 (A) (A) (A) (A) (A) (A) (A) (A) (A) (A)
 Generating guess from densities on rwf.
 Convergence on wavefunction:    0.000001000000000
 Iteration     1 Dimension    12 NMult     0 NNew     12
 CISAX will form    12 AO SS matrices at one time.
 New state      4 was old state      5
 New state      5 was old state      6
 New state      6 was old state      4
 Iteration     2 Dimension    24 NMult    12 NNew     12
 New state      2 was old state      3
 New state      3 was old state      2
 Iteration     3 Dimension    36 NMult    24 NNew     12
 Iteration     4 Dimension    48 NMult    36 NNew     12
 Iteration     5 Dimension    60 NMult    48 NNew     12
 Iteration     6 Dimension    72 NMult    60 NNew     12
 Iteration     7 Dimension    84 NMult    72 NNew     12
 Iteration     8 Dimension    96 NMult    84 NNew     12
 Iteration     9 Dimension   108 NMult    96 NNew     12
 Iteration    10 Dimension   120 NMult   108 NNew     12
 Iteration    11 Dimension   128 NMult   120 NNew      8
 Iteration    12 Dimension   132 NMult   128 NNew      4
 ***********************************************************************
 Excited states from <AA,BB:AA,BB> singles matrix:
 ***********************************************************************
 
 Ground to excited state transition densities written to RWF  633
 Ground to excited state transition electric dipole moments (Au):
       state          X           Y           Z        Dip. S.      Osc.
         1        -0.8354      0.5912     -0.0000      1.0474      0.1170
         2        -0.0405     -0.1708      0.0000      0.0308      0.0038
         3         0.0003     -0.0002     -0.1248      0.0156      0.0018
         4         0.0001      0.0000      0.0184      0.0003      0.0000
         5         0.0001     -0.0000      0.1740      0.0303      0.0041
         6        -0.0001     -0.0000     -0.0796      0.0063      0.0009
 Ground to excited state transition velocity dipole moments (Au):
       state          X           Y           Z        Dip. S.      Osc.
         1         0.1288     -0.1086      0.0000      0.0284      0.1129
         2         0.0061      0.0336     -0.0000      0.0012      0.0043
         3        -0.0000      0.0000      0.0139      0.0002      0.0007
         4        -0.0000     -0.0000     -0.0006      0.0000      0.0000
         5        -0.0000      0.0000     -0.0338      0.0011      0.0038
         6         0.0000      0.0000      0.0197      0.0004      0.0013
 Ground to excited state transition magnetic dipole moments (Au):
       state          X           Y           Z
         1         0.0000      0.0001      0.1911
         2        -0.0001     -0.0000      0.1008
         3         0.1450     -0.0774      0.0001
         4         0.2904     -0.1700      0.0001
         5         0.0562      0.3868      0.0000
         6        -0.0146     -0.1165     -0.0001
 Ground to excited state transition velocity quadrupole moments (Au):
       state          XX          YY          ZZ          XY          XZ          YZ
         1         0.1874     -0.1398      0.0184      0.0661     -0.0000      0.0000
         2        -0.0226     -0.0513      0.0204      0.0231      0.0000      0.0000
         3        -0.0000      0.0000      0.0000      0.0001      0.0560      0.0607
         4         0.0001     -0.0000     -0.0000      0.0000      0.1841      0.2198
         5        -0.0000      0.0000      0.0000      0.0001     -0.3379     -0.0217
         6         0.0001     -0.0000     -0.0000     -0.0001      0.0524     -0.0665
 <0|del|b> * <b|rxdel|0> + <0|del|b> * <b|delr+rdel|0>
 Rotatory Strengths (R) in cgs (10**-40 erg-esu-cm/Gauss)
       state          XX          YY          ZZ    R(velocity)    E-M Angle
         1        -0.0201      0.0139     -0.0097     -0.0053       90.00
         2        -0.0030     -0.0015     -0.0019     -0.0021       90.00
         3        -0.0069     -0.0185     -0.0095     -0.0116       90.00
         4         0.0043     -0.0220     -0.0032     -0.0070       90.00
         5         0.0044     -0.0001     -0.0016      0.0009       90.00
         6        -0.0061     -0.0031      0.0010     -0.0027       90.00
 1/2[<0|r|b>*<b|rxdel|0> + (<0|rxdel|b>*<b|r|0>)*]
 Rotatory Strengths (R) in cgs (10**-40 erg-esu-cm/Gauss)
       state          XX          YY          ZZ     R(length)
         1         0.0198     -0.0327      0.0028     -0.0034
         2        -0.0019     -0.0027     -0.0023     -0.0023
         3        -0.0296     -0.0132      0.0071     -0.0119
         4        -0.0252      0.0031     -0.0011     -0.0077
         5        -0.0041      0.0097     -0.0052      0.0001
         6        -0.0010     -0.0009     -0.0035     -0.0018
  1/2[<0|del|b>*<b|r|0> + (<0|r|b>*<b|del|0>)*] (Au)
       state          X           Y           Z        Dip. S.   Osc.(frdel)
         1        -0.1076     -0.0642     -0.0000      0.1718      0.1145
         2        -0.0002     -0.0057     -0.0000      0.0060      0.0040
         3        -0.0000     -0.0000     -0.0017      0.0017      0.0012
         4        -0.0000     -0.0000     -0.0000      0.0000      0.0000
         5        -0.0000     -0.0000     -0.0059      0.0059      0.0039
         6        -0.0000     -0.0000     -0.0016      0.0016      0.0010

 Excitation energies and oscillator strengths:
 
 Excited State   1:      Singlet-A      4.5595 eV  271.93 nm  f=0.1170  <S**2>=0.000
      30 -> 34         0.12381
      31 -> 32         0.67853
 
 Excited State   2:      Singlet-A      4.9747 eV  249.23 nm  f=0.0038  <S**2>=0.000
      30 -> 32         0.52678
      31 -> 34        -0.45949
 
 Excited State   3:      Singlet-A      4.6838 eV  264.71 nm  f=0.0018  <S**2>=0.000
      31 -> 33         0.70479
 This state for optimization and/or second-order correction.
 Total Energy, E(TD-HF/TD-DFT) =  -363.255944818    
 Copying the excited state density for this state as the 1-particle RhoCI density.
 
 Excited State   4:      Singlet-A      5.3790 eV  230.50 nm  f=0.0000  <S**2>=0.000
      31 -> 35         0.70182
 
 Excited State   5:      Singlet-A      5.5261 eV  224.36 nm  f=0.0041  <S**2>=0.000
      31 -> 36        -0.69338
 
 Excited State   6:      Singlet-A      5.6095 eV  221.02 nm  f=0.0009  <S**2>=0.000
      30 -> 33         0.69608
 SavETr:  write IOETrn=   770 NScale= 10 NData=  16 NLR=1 NState=    6 LETran=     118.
          IDoAtm=1111111111111111
          Differentiating once with respect to electric field.
                with respect to dipole field.
          Differentiating once with respect to nuclear coordinates.
 Keep R1 ints in memory in canonical form, NReq=303315801.
          There are     1 degrees of freedom in the 1st order CPHF.  IDoFFX=0 NUNeed=     1.
 LinEq1:  Iter=  0 NonCon=     1 RMS=1.43D-02 Max=4.24D-01 NDo=     1
 AX will form     1 AO Fock derivatives at one time.
 LinEq1:  Iter=  1 NonCon=     1 RMS=8.73D-03 Max=1.89D-01 NDo=     1
 LinEq1:  Iter=  2 NonCon=     1 RMS=6.48D-03 Max=1.38D-01 NDo=     1
 LinEq1:  Iter=  3 NonCon=     1 RMS=3.55D-03 Max=9.15D-02 NDo=     1
 LinEq1:  Iter=  4 NonCon=     1 RMS=2.13D-03 Max=4.28D-02 NDo=     1
 LinEq1:  Iter=  5 NonCon=     1 RMS=1.01D-03 Max=2.47D-02 NDo=     1
 LinEq1:  Iter=  6 NonCon=     1 RMS=5.89D-04 Max=1.05D-02 NDo=     1
 LinEq1:  Iter=  7 NonCon=     1 RMS=3.20D-04 Max=7.60D-03 NDo=     1
 LinEq1:  Iter=  8 NonCon=     1 RMS=1.94D-04 Max=3.18D-03 NDo=     1
 LinEq1:  Iter=  9 NonCon=     1 RMS=8.08D-05 Max=2.18D-03 NDo=     1
 LinEq1:  Iter= 10 NonCon=     1 RMS=4.82D-05 Max=8.54D-04 NDo=     1
 LinEq1:  Iter= 11 NonCon=     1 RMS=1.56D-05 Max=3.07D-04 NDo=     1
 LinEq1:  Iter= 12 NonCon=     1 RMS=8.62D-06 Max=9.10D-05 NDo=     1
 LinEq1:  Iter= 13 NonCon=     1 RMS=2.71D-06 Max=4.68D-05 NDo=     1
 LinEq1:  Iter= 14 NonCon=     1 RMS=1.37D-06 Max=2.92D-05 NDo=     1
 LinEq1:  Iter= 15 NonCon=     1 RMS=5.29D-07 Max=7.25D-06 NDo=     1
 LinEq1:  Iter= 16 NonCon=     1 RMS=1.12D-07 Max=1.16D-06 NDo=     1
 LinEq1:  Iter= 17 NonCon=     1 RMS=3.58D-08 Max=6.59D-07 NDo=     1
 LinEq1:  Iter= 18 NonCon=     1 RMS=2.09D-08 Max=3.75D-07 NDo=     1
 LinEq1:  Iter= 19 NonCon=     1 RMS=3.86D-09 Max=5.43D-08 NDo=     1
 LinEq1:  Iter= 20 NonCon=     1 RMS=6.56D-10 Max=1.20D-08 NDo=     1
 LinEq1:  Iter= 21 NonCon=     1 RMS=1.22D-10 Max=1.41D-09 NDo=     1
 LinEq1:  Iter= 22 NonCon=     0 RMS=4.74D-11 Max=7.25D-10 NDo=     1
 Linear equations converged to 1.000D-10 1.000D-09 after    22 iterations.
 End of Minotr F.D. properties file   721 does not exist.
 End of Minotr F.D. properties file   722 does not exist.
 End of Minotr F.D. properties file   788 does not exist.
 Calling FoFJK, ICntrl=  10005127 FMM=F ISym2X=0 I1Cent= 0 IOpClX= 0 NMat=1 NMatS=1 NMatT=0.
 ***** Axes restored to original set *****
 -------------------------------------------------------------------
 Center     Atomic                   Forces (Hartrees/Bohr)
 Number     Number              X              Y              Z
 -------------------------------------------------------------------
      1        6           0.002729687    0.000626976   -0.000007516
      2        6          -0.000420479    0.001105572    0.000003798
      3        6           0.004717729   -0.001332845    0.000004782
      4        6          -0.011506472   -0.007490168   -0.000016074
      5        6           0.010371321    0.002385627    0.000009533
      6        6          -0.002867229    0.001790692    0.000014728
      7        7           0.004184098    0.025323283    0.000019226
      8        6          -0.012346652    0.014864210   -0.000032694
      9        6          -0.004346795   -0.021871181    0.000011775
     10        1           0.005958900   -0.014170724   -0.000012050
     11        1           0.000985706   -0.000416194    0.000004064
     12        1           0.002080203    0.000137607    0.000004358
     13        1           0.000474126   -0.000969098    0.000000084
     14        1          -0.000956392    0.000237297   -0.000000669
     15        1           0.000540606    0.000142659   -0.000001656
     16        1           0.000401642   -0.000363712   -0.000001690
 -------------------------------------------------------------------
 Cartesian Forces:  Max     0.025323283 RMS     0.006646454

 GradGradGradGradGradGradGradGradGradGradGradGradGradGradGradGradGradGrad
 Berny optimization.
 Using GEDIIS/GDIIS optimizer.
 FormGI is forming the generalized inverse of G from B-inverse, IUseBI=4.
 Internal  Forces:  Max     0.015340784 RMS     0.002921301
 Search for a local minimum.
 Step number   2 out of a maximum of   94
 All quantities printed in internal units (Hartrees-Bohrs-Radians)
 Mixed Optimization -- RFO/linear search
 Update second derivatives using D2CorX and points    1    2
 DE= -9.04D-03 DEPred=-7.58D-03 R= 1.19D+00
 TightC=F SS=  1.41D+00  RLast= 1.78D-01 DXNew= 5.0454D-01 5.3439D-01
 Trust test= 1.19D+00 RLast= 1.78D-01 DXMaxT set to 5.05D-01
 ITU=  1  0
 Use linear search instead of GDIIS.
     Eigenvalues ---    0.01855   0.01932   0.01987   0.02011   0.02069
     Eigenvalues ---    0.02113   0.02148   0.02158   0.02172   0.02210
     Eigenvalues ---    0.02234   0.02248   0.02344   0.15815   0.16000
     Eigenvalues ---    0.16000   0.16000   0.16000   0.16000   0.16201
     Eigenvalues ---    0.21918   0.22218   0.22394   0.24315   0.24867
     Eigenvalues ---    0.33277   0.35714   0.35736   0.35792   0.35835
     Eigenvalues ---    0.36459   0.36685   0.37422   0.39489   0.42670
     Eigenvalues ---    0.43847   0.45795   0.46777   0.47557   0.47767
     Eigenvalues ---    0.49609   0.52099
 RFO step:  Lambda=-1.55246660D-03 EMin= 1.85480852D-02
 Quartic linear search produced a step of  0.28115.
 Iteration  1 RMS(Cart)=  0.00999146 RMS(Int)=  0.00006953
 Iteration  2 RMS(Cart)=  0.00008051 RMS(Int)=  0.00002271
 Iteration  3 RMS(Cart)=  0.00000001 RMS(Int)=  0.00002271
 Variable       Old X    -DE/DX   Delta X   Delta X   Delta X     New X
                                 (Linear)    (Quad)   (Total)
    R1        2.63781   0.00137  -0.00497   0.00677   0.00179   2.63960
    R2        2.63630  -0.00191   0.00657  -0.00950  -0.00293   2.63336
    R3        2.05205  -0.00041   0.00220  -0.00298  -0.00078   2.05127
    R4        2.66866   0.00018   0.01493  -0.00984   0.00508   2.67374
    R5        2.05161   0.00009   0.00211  -0.00111   0.00099   2.05260
    R6        2.60737  -0.00397  -0.00741  -0.00580  -0.01321   2.59416
    R7        2.05016  -0.00027   0.00135  -0.00188  -0.00053   2.04963
    R8        2.67557   0.00554  -0.00141   0.01866   0.01733   2.69289
    R9        2.61512   0.00302   0.00390   0.00419   0.00809   2.62321
   R10        2.66082   0.00023   0.00369  -0.00145   0.00225   2.66307
   R11        2.67627  -0.00612  -0.00903  -0.01155  -0.02055   2.65572
   R12        2.05288  -0.00037   0.00214  -0.00280  -0.00066   2.05221
   R13        2.50903  -0.01167  -0.02718  -0.01329  -0.04053   2.46850
   R14        1.96918   0.01534   0.02074   0.02766   0.04840   2.01758
   R15        2.65719   0.01237   0.02207   0.01589   0.03791   2.69509
   R16        2.04825  -0.00005   0.00395  -0.00286   0.00109   2.04933
   R17        2.05198   0.00205   0.00497   0.00377   0.00874   2.06071
    A1        2.09735   0.00153  -0.00474   0.01157   0.00683   2.10418
    A2        2.08917  -0.00038   0.00262  -0.00291  -0.00029   2.08889
    A3        2.09666  -0.00115   0.00212  -0.00866  -0.00654   2.09012
    A4        2.12897   0.00083   0.00386   0.00075   0.00460   2.13357
    A5        2.07684   0.00069  -0.00192   0.00836   0.00645   2.08329
    A6        2.07737  -0.00152  -0.00195  -0.00911  -0.01105   2.06632
    A7        2.05071  -0.00204  -0.00020  -0.01168  -0.01188   2.03884
    A8        2.12517   0.00005   0.00352  -0.00449  -0.00098   2.12420
    A9        2.10730   0.00199  -0.00331   0.01616   0.01285   2.12015
   A10        2.12086   0.00222  -0.00366   0.01560   0.01193   2.13278
   A11        2.27211   0.00098  -0.00192   0.00584   0.00387   2.27597
   A12        1.89022  -0.00320   0.00559  -0.02143  -0.01579   1.87443
   A13        2.09727  -0.00120   0.00690  -0.01101  -0.00413   2.09315
   A14        1.84216   0.00288  -0.00647   0.02216   0.01577   1.85793
   A15        2.34375  -0.00168  -0.00043  -0.01115  -0.01164   2.33211
   A16        2.07121  -0.00135  -0.00215  -0.00522  -0.00736   2.06385
   A17        2.10551   0.00108   0.00069   0.00610   0.00677   2.11228
   A18        2.10647   0.00027   0.00147  -0.00087   0.00058   2.10705
   A19        1.91114   0.00217   0.00104   0.00776   0.00876   1.91990
   A20        2.20638  -0.00011   0.00454  -0.00007   0.00450   2.21088
   A21        2.16567  -0.00206  -0.00559  -0.00770  -0.01326   2.15240
   A22        1.87322  -0.00397   0.00099  -0.02004  -0.01905   1.85417
   A23        2.21633   0.00308  -0.00024   0.01850   0.01826   2.23459
   A24        2.19363   0.00089  -0.00076   0.00154   0.00079   2.19442
   A25        1.90804   0.00212  -0.00115   0.01155   0.01031   1.91835
   A26        2.08563  -0.00065  -0.00474   0.00157  -0.00313   2.08250
   A27        2.28951  -0.00147   0.00590  -0.01312  -0.00718   2.28233
    D1        0.00005  -0.00000   0.00002  -0.00013  -0.00012  -0.00006
    D2       -3.14156  -0.00000  -0.00000  -0.00007  -0.00007   3.14155
    D3       -3.14155  -0.00000   0.00003  -0.00012  -0.00009   3.14155
    D4        0.00002  -0.00000   0.00001  -0.00006  -0.00004  -0.00002
    D5       -0.00010   0.00000  -0.00002   0.00023   0.00021   0.00011
    D6       -3.14156  -0.00000   0.00003  -0.00010  -0.00008   3.14155
    D7        3.14151   0.00000  -0.00003   0.00021   0.00018  -3.14150
    D8        0.00004  -0.00000   0.00001  -0.00012  -0.00011  -0.00006
    D9        0.00006  -0.00000   0.00001  -0.00002  -0.00002   0.00004
   D10        3.14158   0.00000  -0.00002   0.00002   0.00000   3.14158
   D11       -3.14152  -0.00000   0.00003  -0.00009  -0.00006  -3.14158
   D12        0.00000  -0.00000  -0.00000  -0.00004  -0.00004  -0.00004
   D13       -0.00012   0.00000  -0.00003   0.00009   0.00006  -0.00006
   D14       -3.14144  -0.00000  -0.00000  -0.00014  -0.00014  -3.14158
   D15        3.14155   0.00000  -0.00000   0.00004   0.00003   3.14158
   D16        0.00022  -0.00000   0.00003  -0.00018  -0.00016   0.00006
   D17        0.00007   0.00000   0.00003   0.00001   0.00004   0.00011
   D18       -3.14157   0.00000  -0.00002   0.00021   0.00020  -3.14137
   D19        3.14145   0.00000   0.00001   0.00019   0.00020  -3.14154
   D20       -0.00019   0.00001  -0.00004   0.00039   0.00035   0.00016
   D21        3.14145   0.00000  -0.00014   0.00037   0.00023  -3.14151
   D22       -0.00084   0.00001   0.00008   0.00035   0.00043  -0.00041
   D23        0.00010  -0.00000  -0.00011   0.00016   0.00005   0.00015
   D24        3.14100   0.00001   0.00011   0.00014   0.00026   3.14125
   D25        0.00004  -0.00000  -0.00000  -0.00017  -0.00017  -0.00013
   D26        3.14150   0.00000  -0.00005   0.00016   0.00011  -3.14157
   D27       -3.14149  -0.00001   0.00006  -0.00043  -0.00038   3.14132
   D28       -0.00002  -0.00000   0.00001  -0.00011  -0.00009  -0.00012
   D29        0.00021  -0.00001   0.00018  -0.00077  -0.00060  -0.00038
   D30        3.14153  -0.00000   0.00004  -0.00007  -0.00003   3.14150
   D31       -3.14144  -0.00001   0.00012  -0.00053  -0.00041   3.14134
   D32       -0.00012   0.00000  -0.00002   0.00017   0.00015   0.00003
   D33        0.00004  -0.00001   0.00023  -0.00067  -0.00044  -0.00040
   D34        3.14157  -0.00000   0.00007  -0.00018  -0.00011   3.14146
   D35       -3.14088  -0.00001   0.00000  -0.00065  -0.00065  -3.14152
   D36        0.00066  -0.00001  -0.00016  -0.00016  -0.00031   0.00034
   D37       -0.00016   0.00001  -0.00025   0.00091   0.00066   0.00049
   D38        3.14150   0.00000  -0.00007   0.00034   0.00027  -3.14141
   D39       -3.14148  -0.00000  -0.00012   0.00022   0.00010  -3.14138
   D40        0.00018  -0.00000   0.00006  -0.00035  -0.00028  -0.00010
         Item               Value     Threshold  Converged?
 Maximum Force            0.015341     0.000450     NO 
 RMS     Force            0.002921     0.000300     NO 
 Maximum Displacement     0.042864     0.001800     NO 
 RMS     Displacement     0.010013     0.001200     NO 
 Predicted change in Energy=-1.263054D-03
 GradGradGradGradGradGradGradGradGradGradGradGradGradGradGradGradGradGrad

                          Input orientation:                          
 ---------------------------------------------------------------------
 Center     Atomic      Atomic             Coordinates (Angstroms)
 Number     Number       Type             X           Y           Z
 ---------------------------------------------------------------------
      1          6           0       -2.169594    0.701312    0.000040
      2          6           0       -2.122803   -0.694720    0.000022
      3          6           0       -0.901514   -1.409102   -0.000003
      4          6           0        0.251638   -0.664291    0.000037
      5          6           0        0.235259    0.760634    0.000026
      6          6           0       -0.994055    1.449640    0.000110
      7          7           0        1.580966   -1.064077    0.000014
      8          6           0        1.578405    1.174095   -0.000218
      9          6           0        2.362369   -0.017289    0.000176
     10          1           0        1.945003   -2.067752    0.000306
     11          1           0        1.965678    2.187049   -0.000376
     12          1           0        3.443714   -0.158154    0.000306
     13          1           0       -3.051072   -1.258745    0.000004
     14          1           0       -0.875347   -2.493404   -0.000004
[...]
 ! D9    D(1,2,3,4)             -0.0016         -DE/DX =    0.0                 !
 ! D10   D(1,2,3,14)          -180.0054         -DE/DX =    0.0                 !
 ! D11   D(13,2,3,4)          -179.9996         -DE/DX =    0.0                 !
 ! D12   D(13,2,3,14)           -0.0033         -DE/DX =    0.0                 !
 ! D13   D(2,3,4,5)              0.0005         -DE/DX =    0.0                 !
 ! D14   D(2,3,4,7)           -180.0005         -DE/DX =    0.0                 !
 ! D15   D(14,3,4,5)           180.0043         -DE/DX =    0.0                 !
 ! D16   D(14,3,4,7)             0.0033         -DE/DX =    0.0                 !
 ! D17   D(3,4,5,6)              0.0004         -DE/DX =    0.0                 !
 ! D18   D(3,4,5,8)           -180.0029         -DE/DX =    0.0                 !
 ! D19   D(7,4,5,6)            180.0012         -DE/DX =    0.0                 !
 ! D20   D(7,4,5,8)             -0.0021         -DE/DX =    0.0                 !
 ! D21   D(3,4,7,9)            180.0            -DE/DX =    0.0                 !
 ! D22   D(3,4,7,10)             0.0125         -DE/DX =    0.0                 !
 ! D23   D(5,4,7,9)             -0.0009         -DE/DX =    0.0                 !
 ! D24   D(5,4,7,10)           180.0116         -DE/DX =    0.0                 !
 ! D25   D(4,5,6,1)             -0.0002         -DE/DX =    0.0                 !
 ! D26   D(4,5,6,16)          -180.0046         -DE/DX =    0.0                 !
 ! D27   D(8,5,6,1)            180.0041         -DE/DX =    0.0                 !
 ! D28   D(8,5,6,16)            -0.0002         -DE/DX =    0.0                 !
 ! D29   D(4,5,8,9)              0.004          -DE/DX =    0.0                 !
 ! D30   D(4,5,8,11)           179.9987         -DE/DX =    0.0                 !
 ! D31   D(6,5,8,9)            180.0001         -DE/DX =    0.0                 !
 ! D32   D(6,5,8,11)            -0.0052         -DE/DX =    0.0                 !
 ! D33   D(4,7,9,8)              0.0035         -DE/DX =    0.0                 !
 ! D34   D(4,7,9,12)           180.0051         -DE/DX =    0.0                 !
 ! D35   D(10,7,9,8)          -180.0083         -DE/DX =    0.0                 !
 ! D36   D(10,7,9,12)           -0.0067         -DE/DX =    0.0                 !
 ! D37   D(5,8,9,7)             -0.0047         -DE/DX =    0.0                 !
 ! D38   D(5,8,9,12)          -180.0065         -DE/DX =    0.0                 !
 ! D39   D(11,8,9,7)          -179.9996         -DE/DX =    0.0                 !
 ! D40   D(11,8,9,12)           -0.0014         -DE/DX =    0.0                 !
 --------------------------------------------------------------------------------
 GradGradGradGradGradGradGradGradGradGradGradGradGradGradGradGradGradGrad

                          Input orientation:                          
 ---------------------------------------------------------------------
 Center     Atomic      Atomic             Coordinates (Angstroms)
 Number     Number       Type             X           Y           Z
 ---------------------------------------------------------------------
      1          6           0       -2.170298    0.704507   -0.000038
      2          6           0       -2.123337   -0.694230    0.000017
      3          6           0       -0.904026   -1.406141    0.000087
      4          6           0        0.252145   -0.662902    0.000065
      5          6           0        0.235330    0.765013   -0.000013
      6          6           0       -0.998702    1.451799   -0.000063
      7          7           0        1.581334   -1.066357    0.000128
      8          6           0        1.575942    1.178637    0.000054
      9          6           0        2.361805   -0.017653    0.000076
     10          1           0        1.970852   -2.100915    0.000018
     11          1           0        1.966832    2.189019    0.000007
     12          1           0        3.443715   -0.151715    0.000030
     13          1           0       -3.052605   -1.255882    0.000039
     14          1           0       -0.881377   -2.489632    0.000216
     15          1           0       -3.132604    1.206661   -0.000040
     16          1           0       -1.028103    2.537236   -0.000048
 ---------------------------------------------------------------------
                    Distance matrix (angstroms):
                    1          2          3          4          5
     1  C    0.000000
     2  C    1.399526   0.000000
     3  C    2.461358   1.411927   0.000000
     4  C    2.781732   2.375688   1.374458   0.000000
     5  C    2.406388   2.773571   2.451946   1.428014   0.000000
     6  C    1.389633   2.422858   2.859508   2.456944   1.412271
     7  N    4.148578   3.723313   2.508479   1.389071   2.272805
     8  C    3.776123   4.146359   3.582083   2.267974   1.402970
     9  C    4.589277   4.535884   3.548739   2.206130   2.265935
    10  H    5.001951   4.329104   2.957639   2.240945   3.350460
    11  H    4.395409   5.004259   4.600761   3.327703   2.241851
    12  H    5.678931   5.593423   4.525089   3.232249   3.336783
    13  H    2.149789   1.085814   2.153827   3.357528   3.859343
    14  H    3.444393   2.183102   1.083728   2.149841   3.440894
    15  H    1.085446   2.152210   3.434137   3.866755   3.396768
    16  H    2.159515   3.412025   3.945329   3.446726   2.176474
                    6          7          8          9         10
     6  C    0.000000
     7  N    3.605231   0.000000
     8  C    2.589094   2.245000   0.000000
     9  C    3.667737   1.307254   1.431325   0.000000
    10  H    4.630337   1.105457   3.303243   2.119629   0.000000
    11  H    3.055796   3.278122   1.083360   2.241742   4.289937
    12  H    4.722957   2.074857   2.293123   1.090185   2.443094
    13  H    3.398536   4.637813   5.229754   5.554191   5.094036
    14  H    3.943177   2.844409   4.415271   4.077856   2.878595
    15  H    2.147936   5.233337   4.708629   5.629163   6.081556
    16  H    1.085836   4.449162   2.937148   4.244871   5.523240
                   11         12         13         14         15
    11  H    0.000000
    12  H    2.767710   0.000000
    13  H    6.087864   6.589488   0.000000
    14  H    5.477415   4.916531   2.497273   0.000000
    15  H    5.193195   6.715144   2.463842   4.327887   0.000000
    16  H    3.015110   5.218008   4.299576   5.029010   2.489850
                   16
    16  H    0.000000
 Stoichiometry    C8H7N
 Framework group  C1[X(C8H7N)]
 Deg. of freedom    42
 Full point group                 C1      NOp   1
 Largest Abelian subgroup         C1      NOp   1
 Largest concise Abelian subgroup C1      NOp   1
                         Standard orientation:                         
 ---------------------------------------------------------------------
 Center     Atomic      Atomic             Coordinates (Angstroms)
 Number     Number       Type             X           Y           Z
 ---------------------------------------------------------------------
      1          6           0       -2.186411    0.631262   -0.000074
      2          6           0       -2.096389   -0.765366   -0.000019
      3          6           0       -0.855729   -1.439383    0.000051
      4          6           0        0.277000   -0.660884    0.000029
      5          6           0        0.216212    0.765835   -0.000049
      6          6           0       -1.038389    1.414285   -0.000099
      7          7           0        1.617985   -1.023207    0.000092
      8          6           0        1.543447    1.220555    0.000018
      9          6           0        2.365784    0.049039    0.000040
     10          1           0        2.039184   -2.045277   -0.000018
     11          1           0        1.903031    2.242498   -0.000029
     12          1           0        3.451311   -0.051635   -0.000006
     13          1           0       -3.007917   -1.355373    0.000003
     14          1           0       -0.799719   -2.521662    0.000180
     15          1           0       -3.163728    1.103537   -0.000076
     16          1           0       -1.101208    2.498302   -0.000084
 ---------------------------------------------------------------------
 Rotational constants (GHZ):           3.8701072           1.6481532           1.1558950

 **********************************************************************

            Population analysis using the CI Density.

 **********************************************************************

 Orbital symmetries:
       Occupied  (A) (A) (A) (A) (A) (A) (A) (A) (A) (A) (A) (A)
                 (A) (A) (A) (A) (A) (A) (A) (A) (A) (A) (A) (A)
                 (A) (A) (A) (A) (A) (A) (A)
       Virtual   (A) (A) (A) (A) (A) (A) (A) (A) (A) (A) (A) (A)
                 (A) (A) (A) (A) (A) (A) (A) (A) (A) (A) (A) (A)
                 (A) (A) (A) (A) (A) (A) (A) (A) (A) (A) (A) (A)
                 (A) (A) (A) (A) (A) (A) (A) (A) (A) (A) (A) (A)
                 (A) (A) (A) (A) (A) (A) (A) (A) (A) (A) (A) (A)
                 (A) (A) (A) (A) (A) (A) (A) (A) (A) (A) (A) (A)
                 (A) (A) (A) (A) (A) (A) (A) (A) (A) (A) (A) (A)
                 (A) (A) (A) (A) (A) (A) (A) (A) (A) (A) (A) (A)
                 (A) (A) (A) (A) (A) (A) (A) (A) (A) (A) (A) (A)
                 (A) (A) (A) (A) (A) (A) (A) (A) (A) (A) (A) (A)
                 (A) (A) (A) (A) (A) (A) (A) (A) (A) (A) (A) (A)
                 (A) (A) (A) (A) (A) (A) (A) (A) (A) (A) (A) (A)
                 (A) (A) (A) (A) (A) (A) (A) (A) (A) (A)
 The electronic state is 1-A.
 Alpha  occ. eigenvalues --  -14.45144 -10.26059 -10.25528 -10.22714 -10.22211
 Alpha  occ. eigenvalues --  -10.22013 -10.21958 -10.21665 -10.21169  -1.00953
 Alpha  occ. eigenvalues --   -0.85134  -0.78549  -0.75108  -0.71355  -0.63236
 Alpha  occ. eigenvalues --   -0.59447  -0.58441  -0.54171  -0.48350  -0.47149
 Alpha  occ. eigenvalues --   -0.44033  -0.43156  -0.43115  -0.40186  -0.38696
 Alpha  occ. eigenvalues --   -0.35186  -0.33672  -0.33477  -0.27464  -0.22836
 Alpha  occ. eigenvalues --   -0.19011
 Alpha virt. eigenvalues --   -0.02752  -0.01666   0.01248   0.01314   0.02020
 Alpha virt. eigenvalues --    0.03478   0.03574   0.03951   0.05386   0.05719
 Alpha virt. eigenvalues --    0.06015   0.06446   0.08272   0.08471   0.10317
 Alpha virt. eigenvalues --    0.10522   0.10621   0.12327   0.12651   0.13179
 Alpha virt. eigenvalues --    0.14678   0.15411   0.16149   0.16411   0.17021
 Alpha virt. eigenvalues --    0.17683   0.18377   0.18633   0.19075   0.19841
 Alpha virt. eigenvalues --    0.19992   0.19997   0.21537   0.22095   0.23026
 Alpha virt. eigenvalues --    0.23094   0.23466   0.24445   0.24924   0.25681
 Alpha virt. eigenvalues --    0.26835   0.26925   0.27883   0.29271   0.29669
 Alpha virt. eigenvalues --    0.30328   0.31629   0.33498   0.35214   0.35963
 Alpha virt. eigenvalues --    0.37142   0.39153   0.42921   0.44869   0.51587
 Alpha virt. eigenvalues --    0.57730   0.61965   0.67545   0.67553   0.69830
 Alpha virt. eigenvalues --    0.72105   0.72384   0.73249   0.73728   0.74550
 Alpha virt. eigenvalues --    0.75752   0.77016   0.77875   0.79471   0.80107
 Alpha virt. eigenvalues --    0.82005   0.85598   0.88675   0.89841   0.90875
 Alpha virt. eigenvalues --    0.94158   0.94723   0.95796   0.95882   0.98352
 Alpha virt. eigenvalues --    1.00449   1.00625   1.03576   1.04826   1.08954
 Alpha virt. eigenvalues --    1.11133   1.11791   1.17564   1.17894   1.20620
 Alpha virt. eigenvalues --    1.22144   1.23128   1.24600   1.31061   1.33356
 Alpha virt. eigenvalues --    1.34428   1.36917   1.41479   1.41666   1.45041
 Alpha virt. eigenvalues --    1.45933   1.46711   1.49452   1.50189   1.54754
 Alpha virt. eigenvalues --    1.58307   1.65796   1.75531   1.83099   1.88861
 Alpha virt. eigenvalues --    1.89663   1.91398   1.93907   1.97277   1.99771
 Alpha virt. eigenvalues --    2.01101   2.05955   2.09161   2.14702   2.15576
 Alpha virt. eigenvalues --    2.16085   2.18944   2.24062   2.25968   2.27488
 Alpha virt. eigenvalues --    2.31117   2.32884   2.38420   2.42759   2.46271
 Alpha virt. eigenvalues --    2.53723   2.56915   2.64506   2.65211   2.66863
 Alpha virt. eigenvalues --    2.69530   2.73386   2.81383   2.84955   2.85836
 Alpha virt. eigenvalues --    2.95337   2.99178   3.09323   3.24947   3.44453
 Alpha virt. eigenvalues --    4.16640   4.27253   4.30554   4.32804   4.37552
 Alpha virt. eigenvalues --    4.41350   4.49654   4.53659   4.80236
          Condensed to atoms (all electrons):
               1          2          3          4          5          6
     1  C   22.997103   2.344448  -0.875505 -15.438539 -13.323956   1.040379
     2  C    2.344448  31.691793  -1.720789 -27.615403  10.018286 -16.984839
     3  C   -0.875505  -1.720789  41.081948  18.912641 -36.493466 -11.601524
     4  C  -15.438539 -27.615403  18.912641 103.841002 -28.356066  -7.336944
     5  C  -13.323956  10.018286 -36.493466 -28.356066  93.010667  -9.113163
     6  C    1.040379 -16.984839 -11.601524  -7.336944  -9.113163  45.820554
     7  N    0.251334  -0.531406   6.655598   4.205330  -9.051003  -1.200010
     8  C   14.045709  15.859450 -25.907079 -83.464091   5.370206  16.914126
     9  C   -5.428975  -6.790793  15.579116  42.876385  -7.858042 -11.224488
    10  H   -0.046680  -0.079120  -1.840137  -0.065128   2.234491   0.257732
    11  H    0.016538   0.009904  -0.006693  -0.054442  -0.101650   0.042887
    12  H    0.008020   0.003787   0.013141   0.043477  -0.230757   0.038841
    13  H    0.100321   0.134193   0.030817   0.050345  -0.050007   0.047853
    14  H   -0.023408   0.084033   0.095720   0.067008   0.099939  -0.010423
    15  H    0.255109   0.116711   0.002048  -0.046110   0.029744  -0.058737
    16  H    0.004419  -0.036131  -0.021640   0.070392   0.121594   0.246372
               7          8          9         10         11         12
     1  C    0.251334  14.045709  -5.428975  -0.046680   0.016538   0.008020
     2  C   -0.531406  15.859450  -6.790793  -0.079120   0.009904   0.003787
     3  C    6.655598 -25.907079  15.579116  -1.840137  -0.006693   0.013141
     4  C    4.205330 -83.464091  42.876385  -0.065128  -0.054442   0.043477
     5  C   -9.051003   5.370206  -7.858042   2.234491  -0.101650  -0.230757
     6  C   -1.200010  16.914126 -11.224488   0.257732   0.042887   0.038841
     7  N   11.601895 -12.718591   8.258522  -0.984626   0.003476  -0.104687
     8  C  -12.718591 156.143402 -80.346548   1.718825   0.554635   0.831006
     9  C    8.258522 -80.346548  50.818364  -1.130495  -0.153884  -0.280150
    10  H   -0.984626   1.718825  -1.130495   0.623834   0.000077   0.008914
    11  H    0.003476   0.554635  -0.153884   0.000077   0.434004  -0.000281
    12  H   -0.104687   0.831006  -0.280150   0.008914  -0.000281   0.380975
    13  H    0.001566  -0.015863   0.008493  -0.000015  -0.000000  -0.000000
    14  H   -0.016832   0.022639  -0.007415   0.000893   0.000001   0.000002
    15  H   -0.000166   0.017081  -0.003423   0.000000  -0.000001  -0.000000
    16  H   -0.000241  -0.130842   0.039591  -0.000002   0.001108  -0.000002
              13         14         15         16
     1  C    0.100321  -0.023408   0.255109   0.004419
     2  C    0.134193   0.084033   0.116711  -0.036131
     3  C    0.030817   0.095720   0.002048  -0.021640
     4  C    0.050345   0.067008  -0.046110   0.070392
     5  C   -0.050007   0.099939   0.029744   0.121594
     6  C    0.047853  -0.010423  -0.058737   0.246372
     7  N    0.001566  -0.016832  -0.000166  -0.000241
     8  C   -0.015863   0.022639   0.017081  -0.130842
     9  C    0.008493  -0.007415  -0.003423   0.039591
    10  H   -0.000015   0.000893   0.000000  -0.000002
    11  H   -0.000000   0.000001  -0.000001   0.001108
    12  H   -0.000000   0.000002  -0.000000  -0.000002
    13  H    0.462012  -0.002897  -0.003700  -0.000116
    14  H   -0.002897   0.410617  -0.000090   0.000012
    15  H   -0.003700  -0.000090   0.465679  -0.003238
    16  H   -0.000116   0.000012  -0.003238   0.468075
 Mulliken charges:
               1
     1  C    0.073683
     2  C   -0.504122
     3  C    2.095803
     4  C   -1.689859
     5  C   -0.306816
     6  C   -0.878618
     7  N    0.629840
     8  C   -2.894064
     9  C    1.643742
    10  H    0.301436
    11  H    0.254320
    12  H    0.287715
    13  H    0.237000
    14  H    0.280200
    15  H    0.229091
    16  H    0.240651
 Sum of Mulliken charges =  -0.00000
 Mulliken charges with hydrogens summed into heavy atoms:
               1
     1  C    0.302774
     2  C   -0.267123
     3  C    2.376002
     4  C   -1.689859
     5  C   -0.306816
     6  C   -0.637968
     7  N    0.931276
     8  C   -2.639744
     9  C    1.931457
 Electronic spatial extent (au):  <R**2>=           1037.7513
 Charge=             -0.0000 electrons
 Dipole moment (field-independent basis, Debye):
    X=             -6.2311    Y=              6.4834    Z=              0.0011  Tot=              8.9923
 Quadrupole moment (field-independent basis, Debye-Ang):
   XX=            -63.5811   YY=            -63.3507   ZZ=            -62.8683
   XY=             18.0169   XZ=              0.0024   YZ=             -0.0022
 Traceless Quadrupole moment (field-independent basis, Debye-Ang):
   XX=             -0.3144   YY=             -0.0840   ZZ=              0.3984
   XY=             18.0169   XZ=              0.0024   YZ=             -0.0022
 Octapole moment (field-independent basis, Debye-Ang**2):
  XXX=           -111.5759  YYY=             74.6955  ZZZ=              0.0061  XYY=            -51.8605
  XXY=             56.3471  XXZ=              0.0080  XZZ=            -15.4836  YZZ=             15.2225
  YYZ=              0.0070  XYZ=             -0.0020
 Hexadecapole moment (field-independent basis, Debye-Ang**3):
 XXXX=          -1294.3806 YYYY=           -655.7821 ZZZZ=           -112.5783 XXXY=            222.8709
 XXXZ=              0.0267 YYYX=            161.3128 YYYZ=             -0.0116 ZZZX=              0.0027
 ZZZY=              0.0004 XXYY=           -354.2256 XXZZ=           -237.1796 YYZZ=           -138.4843
 XXYZ=             -0.0065 YYXZ=              0.0028 ZZXY=             35.2427
 N-N= 4.006502725966D+02 E-N=-1.640246193002D+03  KE= 3.600906216991D+02
 Unable to Open any file for archive entry.
 1\1\GINC-EXP-2-24\FOpt\RHSEH1PBE TD-FC\6-31+G(d)\C8H7N1\SCAPARAS\14-Ju
 n-2021\0\\# td= (nstates=6, root=3) HSEH1PBE/6-31+G* Opt density=curre
 nt\\FuncsHSEH1PBE-V-3rd\\0,1\C,-2.1702976451,0.704507359,-0.0000380099
 \C,-2.1233365354,-0.6942301048,0.0000170838\C,-0.9040256424,-1.4061413
 004,0.0000874201\C,0.2521447131,-0.6629019485,0.000065486\C,0.23532999
 91,0.7650127989,-0.0000129504\C,-0.9987018845,1.4517985449,-0.00006270
 35\N,1.5813338385,-1.0663566314,0.0001278609\C,1.5759416638,1.17863693
 75,0.0000543677\C,2.3618046476,-0.0176529731,0.0000760312\H,1.97085171
 24,-2.1009152502,0.0000183718\H,1.9668321055,2.1890193721,0.0000066541
 \H,3.4437149245,-0.1517146679,0.0000297245\H,-3.0526049354,-1.25588162
 65,0.0000389934\H,-0.8813772357,-2.4896323895,0.0002159511\H,-3.132604
 0036,1.2066614432,-0.0000403826\H,-1.0281027223,2.5372364366,-0.000047
 8983\\Version=AS64L-G16RevC.01\State=1-A\HF=-363.4182118\RMSD=4.092e-0
 9\RMSF=2.301e-05\Dipole=-2.451486,2.5507739,0.0004429\Quadrupole=-0.23
 37744,-0.0624368,0.2962112,13.3951217,0.0017583,-0.0016642\PG=C01 [X(C
 8H7N1)]\\@
 The archive entry for this job was punched.


 IT IS BETTER TO THINK YOU ARE HALF DRY THAN TO KNOW YOU
 ARE ALL WET.  -- SNOOPY
 Job cpu time:       0 days  3 hours 43 minutes 15.8 seconds.
 Elapsed time:       0 days  0 hours 57 minutes 55.6 seconds.
 File lengths (MBytes):  RWF=    238 Int=      0 D2E=      0 Chk=     11 Scr=      1
 Normal termination of Gaussian 16 at Mon Jun 14 11:55:36 2021.
