 Entering Gaussian System, Link 0=/cm/shared/apps/spack/cpu/opt/spack/linux-centos8-zen/gcc-8.3.1/gaussian-16.C.01-po5bqktfeugvmjyga3v7eigbecnokxng/g16/g16
 Initial command:
 /cm/shared/apps/spack/cpu/opt/spack/linux-centos8-zen/gcc-8.3.1/gaussian-16.C.01-po5bqktfeugvmjyga3v7eigbecnokxng/g16/l1.exe "/scratch/cwaldt/job_3576370/Gau-22801.inp" -scrdir="/scratch/cwaldt/job_3576370/"
 Entering Link 1 = /cm/shared/apps/spack/cpu/opt/spack/linux-centos8-zen/gcc-8.3.1/gaussian-16.C.01-po5bqktfeugvmjyga3v7eigbecnokxng/g16/l1.exe PID=     22802.
  
 Copyright (c) 1988-2019, Gaussian, Inc.  All Rights Reserved.
  
 This is part of the Gaussian(R) 16 program.  It is based on
 the Gaussian(R) 09 system (copyright 2009, Gaussian, Inc.),
 the Gaussian(R) 03 system (copyright 2003, Gaussian, Inc.),
 the Gaussian(R) 98 system (copyright 1998, Gaussian, Inc.),
 the Gaussian(R) 94 system (copyright 1995, Gaussian, Inc.),
 the Gaussian 92(TM) system (copyright 1992, Gaussian, Inc.),
 the Gaussian 90(TM) system (copyright 1990, Gaussian, Inc.),
 the Gaussian 88(TM) system (copyright 1988, Gaussian, Inc.),
 the Gaussian 86(TM) system (copyright 1986, Carnegie Mellon
 University), and the Gaussian 82(TM) system (copyright 1983,
 Carnegie Mellon University). Gaussian is a federally registered
 trademark of Gaussian, Inc.
  
 This software contains proprietary and confidential information,
 including trade secrets, belonging to Gaussian, Inc.
  
 This software is provided under written license and may be
 used, copied, transmitted, or stored only in accord with that
 written license.
  
 The following legend is applicable only to US Government
 contracts under FAR:
  
                    RESTRICTED RIGHTS LEGEND
  
 Use, reproduction and disclosure by the US Government is
 subject to restrictions as set forth in subparagraphs (a)
 and (c) of the Commercial Computer Software - Restricted
 Rights clause in FAR 52.227-19.
  
 Gaussian, Inc.
 340 Quinnipiac St., Bldg. 40, Wallingford CT 06492
  
  
 ---------------------------------------------------------------
 Warning -- This program may not be used in any manner that
 competes with the business of Gaussian, Inc. or will provide
 assistance to any competitor of Gaussian, Inc.  The licensee
 of this program is prohibited from giving any competitor of
 Gaussian, Inc. access to this program.  By using this program,
 the user acknowledges that Gaussian, Inc. is engaged in the
 business of creating and licensing software in the field of
 computational chemistry and represents and warrants to the
 licensee that it is not a competitor of Gaussian, Inc. and that
 it will not use this program in any manner prohibited above.
 ---------------------------------------------------------------
  

 Cite this work as:
 Gaussian 16, Revision C.01,
 M. J. Frisch, G. W. Trucks, H. B. Schlegel, G. E. Scuseria, 
 M. A. Robb, J. R. Cheeseman, G. Scalmani, V. Barone, 
 G. A. Petersson, H. Nakatsuji, X. Li, M. Caricato, A. V. Marenich, 
 J. Bloino, B. G. Janesko, R. Gomperts, B. Mennucci, H. P. Hratchian, 
 J. V. Ortiz, A. F. Izmaylov, J. L. Sonnenberg, D. Williams-Young, 
 F. Ding, F. Lipparini, F. Egidi, J. Goings, B. Peng, A. Petrone, 
 T. Henderson, D. Ranasinghe, V. G. Zakrzewski, J. Gao, N. Rega, 
 G. Zheng, W. Liang, M. Hada, M. Ehara, K. Toyota, R. Fukuda, 
 J. Hasegawa, M. Ishida, T. Nakajima, Y. Honda, O. Kitao, H. Nakai, 
 T. Vreven, K. Throssell, J. A. Montgomery, Jr., J. E. Peralta, 
 F. Ogliaro, M. J. Bearpark, J. J. Heyd, E. N. Brothers, K. N. Kudin, 
 V. N. Staroverov, T. A. Keith, R. Kobayashi, J. Normand, 
 K. Raghavachari, A. P. Rendell, J. C. Burant, S. S. Iyengar, 
 J. Tomasi, M. Cossi, J. M. Millam, M. Klene, C. Adamo, R. Cammi, 
 J. W. Ochterski, R. L. Martin, K. Morokuma, O. Farkas, 
 J. B. Foresman, and D. J. Fox, Gaussian, Inc., Wallingford CT, 2019.
 
 ******************************************
 Gaussian 16:  AS64L-G16RevC.01  3-Jul-2019
                23-Jun-2021 
 ******************************************
 %nprocshared=4
 Will use up to    4 processors via shared memory.
 %chk=FuncsMN15-V-2nd.chk
 %Mem=3GB
 ----------------------------------------------------------
 # td= (nstates=6, root=2) MN15/6-31+G* Opt density=current
 ----------------------------------------------------------
 1/18=20,19=15,26=3,38=1/1,3;
 2/9=110,12=2,17=6,18=5,40=1/2;
 3/5=1,6=6,7=11,11=9,25=1,30=1,71=1,74=-73/1,2,3,8;
 4//1;
 5/5=2,38=5/2;
 8/6=1,10=2,107=2,108=6/1;
 9/8=2,15=2,41=6,42=1,70=2/14;
 10/5=4,28=2/2;
 6/7=2,8=2,9=2,10=2,22=-1/1;
 7/12=6,13=5,14=2/1,2,3,16;
 1/18=20,19=15,26=3/3(2);
 2/9=110/2;
 99//99;
 2/9=110/2;
 3/5=1,6=6,7=11,11=9,25=1,30=1,71=1,74=-73/1,2,3,8;
 4/5=5,16=3,69=1/1;
 5/5=2,38=5/2;
 8/6=1,10=2,107=2,108=6/1;
 9/8=2,15=2,41=6,42=1,49=4,70=2/14;
 10/5=4,28=2/2;
 7/12=6,13=5,14=2/1,2,3,16;
 1/18=20,19=15,26=3/3(-8);
 2/9=110/2;
 6/7=2,8=2,9=2,10=2,22=-1/1;
 99/9=10/99;
 ---------------
 FuncsMN15-V-2nd
 ---------------
 Symbolic Z-matrix:
 Charge =  0 Multiplicity = 1
 C                    -2.15106   0.68921   0.00009 
 C                    -2.12793  -0.71582   0.00008 
 C                    -0.9323   -1.4131   -0.00001 
 C                     0.24691  -0.6702   -0.00004 
 C                     0.24819   0.7483    0. 
 C                    -0.97947   1.42353   0.00003 
 N                     1.56177  -1.07759  -0.00029 
 C                     1.62013   1.1629   -0.00016 
 C                     2.38201   0.03081   0.00025 
 H                     1.87632  -2.03001   0.00044 
 H                     1.99217   2.17301  -0.00035 
 H                     3.45255  -0.08243   0.00041 
 H                    -3.06159  -1.26202   0.00009 
 H                    -0.91725  -2.49534  -0.00007 
 H                    -3.1042    1.20079   0.00009 
 H                    -1.00935   2.50542  -0.00002 
 

 GradGradGradGradGradGradGradGradGradGradGradGradGradGradGradGradGradGrad
 Berny optimization.
 Initialization pass.
                           ----------------------------
                           !    Initial Parameters    !
                           ! (Angstroms and Degrees)  !
 --------------------------                            --------------------------
 ! Name  Definition              Value          Derivative Info.                !
 --------------------------------------------------------------------------------
 ! R1    R(1,2)                  1.4052         estimate D2E/DX2                !
 ! R2    R(1,6)                  1.3827         estimate D2E/DX2                !
 ! R3    R(1,15)                 1.0818         estimate D2E/DX2                !
 ! R4    R(2,3)                  1.3841         estimate D2E/DX2                !
 ! R5    R(2,13)                 1.0817         estimate D2E/DX2                !
 ! R6    R(3,4)                  1.3937         estimate D2E/DX2                !
 ! R7    R(3,14)                 1.0823         estimate D2E/DX2                !
 ! R8    R(4,5)                  1.4185         estimate D2E/DX2                !
 ! R9    R(4,7)                  1.3765         estimate D2E/DX2                !
 ! R10   R(5,6)                  1.4011         estimate D2E/DX2                !
 ! R11   R(5,8)                  1.4332         estimate D2E/DX2                !
 ! R12   R(6,16)                 1.0823         estimate D2E/DX2                !
 ! R13   R(7,9)                  1.3789         estimate D2E/DX2                !
 ! R14   R(7,10)                 1.003          estimate D2E/DX2                !
 ! R15   R(8,9)                  1.3646         estimate D2E/DX2                !
 ! R16   R(8,11)                 1.0764         estimate D2E/DX2                !
 ! R17   R(9,12)                 1.0765         estimate D2E/DX2                !
 ! A1    A(2,1,6)              121.1349         estimate D2E/DX2                !
 ! A2    A(2,1,15)             119.1671         estimate D2E/DX2                !
 ! A3    A(6,1,15)             119.698          estimate D2E/DX2                !
 ! A4    A(1,2,3)              121.1938         estimate D2E/DX2                !
 ! A5    A(1,2,13)             119.3846         estimate D2E/DX2                !
 ! A6    A(3,2,13)             119.4217         estimate D2E/DX2                !
 ! A7    A(2,3,4)              117.5387         estimate D2E/DX2                !
 ! A8    A(2,3,14)             121.0469         estimate D2E/DX2                !
 ! A9    A(4,3,14)             121.4144         estimate D2E/DX2                !
 ! A10   A(3,4,5)              122.2626         estimate D2E/DX2                !
 ! A11   A(3,4,7)              130.5743         estimate D2E/DX2                !
 ! A12   A(5,4,7)              107.163          estimate D2E/DX2                !
 ! A13   A(4,5,6)              118.7594         estimate D2E/DX2                !
 ! A14   A(4,5,8)              106.8666         estimate D2E/DX2                !
 ! A15   A(6,5,8)              134.374          estimate D2E/DX2                !
 ! A16   A(1,6,5)              119.1105         estimate D2E/DX2                !
 ! A17   A(1,6,16)             120.4966         estimate D2E/DX2                !
 ! A18   A(5,6,16)             120.3928         estimate D2E/DX2                !
 ! A19   A(4,7,9)              109.2874         estimate D2E/DX2                !
 ! A20   A(4,7,10)             125.4909         estimate D2E/DX2                !
 ! A21   A(9,7,10)             125.2217         estimate D2E/DX2                !
 ! A22   A(5,8,9)              107.125          estimate D2E/DX2                !
 ! A23   A(5,8,11)             127.0344         estimate D2E/DX2                !
 ! A24   A(9,8,11)             125.8405         estimate D2E/DX2                !
 ! A25   A(7,9,8)              109.5578         estimate D2E/DX2                !
 ! A26   A(7,9,12)             120.4645         estimate D2E/DX2                !
 ! A27   A(8,9,12)             129.9776         estimate D2E/DX2                !
 ! D1    D(6,1,2,3)             -0.0008         estimate D2E/DX2                !
 ! D2    D(6,1,2,13)          -179.9981         estimate D2E/DX2                !
 ! D3    D(15,1,2,3)           179.996          estimate D2E/DX2                !
 ! D4    D(15,1,2,13)           -0.0013         estimate D2E/DX2                !
 ! D5    D(2,1,6,5)             -0.0018         estimate D2E/DX2                !
 ! D6    D(2,1,6,16)           179.9965         estimate D2E/DX2                !
 ! D7    D(15,1,6,5)          -179.9986         estimate D2E/DX2                !
 ! D8    D(15,1,6,16)           -0.0003         estimate D2E/DX2                !
 ! D9    D(1,2,3,4)              0.002          estimate D2E/DX2                !
 ! D10   D(1,2,3,14)          -179.9968         estimate D2E/DX2                !
 ! D11   D(13,2,3,4)           179.9992         estimate D2E/DX2                !
 ! D12   D(13,2,3,14)            0.0005         estimate D2E/DX2                !
 ! D13   D(2,3,4,5)             -0.0005         estimate D2E/DX2                !
 ! D14   D(2,3,4,7)           -179.9911         estimate D2E/DX2                !
 ! D15   D(14,3,4,5)           179.9982         estimate D2E/DX2                !
 ! D16   D(14,3,4,7)             0.0076         estimate D2E/DX2                !
 ! D17   D(3,4,5,6)             -0.002          estimate D2E/DX2                !
 ! D18   D(3,4,5,8)           -179.9955         estimate D2E/DX2                !
 ! D19   D(7,4,5,6)            179.9905         estimate D2E/DX2                !
 ! D20   D(7,4,5,8)             -0.003          estimate D2E/DX2                !
 ! D21   D(3,4,7,9)           -179.98           estimate D2E/DX2                !
 ! D22   D(3,4,7,10)            -0.0649         estimate D2E/DX2                !
 ! D23   D(5,4,7,9)              0.0284         estimate D2E/DX2                !
 ! D24   D(5,4,7,10)           179.9434         estimate D2E/DX2                !
 ! D25   D(4,5,6,1)              0.0031         estimate D2E/DX2                !
 ! D26   D(4,5,6,16)          -179.9951         estimate D2E/DX2                !
 ! D27   D(8,5,6,1)            179.9944         estimate D2E/DX2                !
 ! D28   D(8,5,6,16)            -0.0038         estimate D2E/DX2                !
 ! D29   D(4,5,8,9)             -0.0234         estimate D2E/DX2                !
 ! D30   D(4,5,8,11)           179.9883         estimate D2E/DX2                !
 ! D31   D(6,5,8,9)            179.9846         estimate D2E/DX2                !
 ! D32   D(6,5,8,11)            -0.0037         estimate D2E/DX2                !
 ! D33   D(4,7,9,8)             -0.0444         estimate D2E/DX2                !
 ! D34   D(4,7,9,12)           179.9847         estimate D2E/DX2                !
 ! D35   D(10,7,9,8)          -179.9597         estimate D2E/DX2                !
 ! D36   D(10,7,9,12)            0.0693         estimate D2E/DX2                !
 ! D37   D(5,8,9,7)              0.0414         estimate D2E/DX2                !
 ! D38   D(5,8,9,12)          -179.9913         estimate D2E/DX2                !
 ! D39   D(11,8,9,7)          -179.9702         estimate D2E/DX2                !
 ! D40   D(11,8,9,12)           -0.0029         estimate D2E/DX2                !
 --------------------------------------------------------------------------------
 Trust Radius=3.00D-01 FncErr=1.00D-07 GrdErr=1.00D-06 EigMax=2.50D+02 EigMin=1.00D-04
 Number of steps in this run=     94 maximum allowed number of steps=    100.
 GradGradGradGradGradGradGradGradGradGradGradGradGradGradGradGradGradGrad

                          Input orientation:                          
 ---------------------------------------------------------------------
 Center     Atomic      Atomic             Coordinates (Angstroms)
 Number     Number       Type             X           Y           Z
 ---------------------------------------------------------------------
      1          6           0       -2.151063    0.689208    0.000088
      2          6           0       -2.127927   -0.715818    0.000075
      3          6           0       -0.932297   -1.413100   -0.000011
      4          6           0        0.246911   -0.670201   -0.000042
      5          6           0        0.248193    0.748299    0.000000
      6          6           0       -0.979474    1.423526    0.000032
      7          7           0        1.561774   -1.077592   -0.000285
      8          6           0        1.620133    1.162900   -0.000157
      9          6           0        2.382013    0.030806    0.000248
     10          1           0        1.876315   -2.030011    0.000438
     11          1           0        1.992173    2.173010   -0.000348
     12          1           0        3.452549   -0.082425    0.000408
     13          1           0       -3.061594   -1.262020    0.000088
     14          1           0       -0.917252   -2.495342   -0.000073
     15          1           0       -3.104203    1.200785    0.000090
     16          1           0       -1.009348    2.505421   -0.000015
 ---------------------------------------------------------------------
                    Distance matrix (angstroms):
                    1          2          3          4          5
     1  C    0.000000
     2  C    1.405216   0.000000
     3  C    2.430039   1.384100   0.000000
     4  C    2.756496   2.375276   1.393711   0.000000
     5  C    2.399984   2.790983   2.462763   1.418501   0.000000
     6  C    1.382694   2.428114   2.837018   2.426461   1.401106
     7  N    4.111781   3.707395   2.516536   1.376529   2.249305
     8  C    3.800829   4.192557   3.626386   2.290414   1.433218
     9  C    4.580641   4.571324   3.615178   2.247236   2.251218
    10  H    4.859416   4.214387   2.875566   2.122273   3.220216
    11  H    4.400917   5.031953   4.627387   3.336134   2.251948
    12  H    5.656491   5.616307   4.582311   3.259079   3.310287
    13  H    2.153220   1.081698   2.134650   3.361020   3.872476
    14  H    3.415208   2.152310   1.082347   2.164813   3.446661
    15  H    1.081752   2.150926   3.398466   3.838040   3.382795
    16  H    2.145261   3.409927   3.919278   3.415079   2.160761
                    6          7          8          9         10
     6  C    0.000000
     7  N    3.565604   0.000000
     8  C    2.612639   2.241252   0.000000
     9  C    3.638580   1.378890   1.364587   0.000000
    10  H    4.481345   1.003015   3.203172   2.121956   0.000000
    11  H    3.064704   3.278972   1.076446   2.177387   4.204618
    12  H    4.680888   2.136677   2.215532   1.076508   2.505515
    13  H    3.398144   4.627045   5.272457   5.595021   4.997275
    14  H    3.919362   2.855798   4.452085   4.155307   2.832058
    15  H    2.136372   5.192528   4.724488   5.609583   5.936632
    16  H    1.082307   4.410062   2.952378   4.198220   5.375611
                   11         12         13         14         15
    11  H    0.000000
    12  H    2.686947   0.000000
    13  H    6.110646   6.620083   0.000000
    14  H    5.500751   4.991726   2.473719   0.000000
    15  H    5.188282   6.681139   2.463174   4.294661   0.000000
    16  H    3.019872   5.158049   4.290143   5.001611   2.467892
                   16
    16  H    0.000000
 Stoichiometry    C8H7N
 Framework group  C1[X(C8H7N)]
 Deg. of freedom    42
 Full point group                 C1      NOp   1
 Largest Abelian subgroup         C1      NOp   1
 Largest concise Abelian subgroup C1      NOp   1
                         Standard orientation:                         
 ---------------------------------------------------------------------
 Center     Atomic      Atomic             Coordinates (Angstroms)
 Number     Number       Type             X           Y           Z
 ---------------------------------------------------------------------
      1          6           0       -2.151063    0.689208    0.000088
      2          6           0       -2.127927   -0.715818    0.000075
      3          6           0       -0.932297   -1.413100   -0.000011
      4          6           0        0.246911   -0.670201   -0.000042
      5          6           0        0.248193    0.748299    0.000000
      6          6           0       -0.979474    1.423526    0.000032
      7          7           0        1.561774   -1.077592   -0.000285
      8          6           0        1.620133    1.162900   -0.000157
      9          6           0        2.382013    0.030806    0.000248
     10          1           0        1.876315   -2.030011    0.000438
     11          1           0        1.992173    2.173010   -0.000348
     12          1           0        3.452549   -0.082425    0.000408
     13          1           0       -3.061594   -1.262020    0.000088
     14          1           0       -0.917252   -2.495342   -0.000073
     15          1           0       -3.104203    1.200785    0.000090
     16          1           0       -1.009348    2.505421   -0.000015
 ---------------------------------------------------------------------
 Rotational constants (GHZ):           3.9080822           1.6429452           1.1566805
 Standard basis: 6-31+G(d) (6D, 7F)
 There are   185 symmetry adapted cartesian basis functions of A   symmetry.
 There are   185 symmetry adapted basis functions of A   symmetry.
   185 basis functions,   316 primitive gaussians,   185 cartesian basis functions
    31 alpha electrons       31 beta electrons
       nuclear repulsion energy       401.3368668897 Hartrees.
 NAtoms=   16 NActive=   16 NUniq=   16 SFac= 1.00D+00 NAtFMM=   60 NAOKFM=F Big=F
 Integral buffers will be    131072 words long.
 Regular integral format.
 Two-electron integral symmetry is turned on.
 One-electron integrals computed using PRISM.
 NBasis=   185 RedAO= T EigKep=  1.26D-06  NBF=   185
 NBsUse=   185 1.00D-06 EigRej= -1.00D+00 NBFU=   185
 ExpMin= 4.38D-02 ExpMax= 4.17D+03 ExpMxC= 6.27D+02 IAcc=3 IRadAn=         5 AccDes= 0.00D+00
 Harris functional with IExCor= 1009 and IRadAn=       5 diagonalized for initial guess.
 HarFok:  IExCor= 1009 AccDes= 0.00D+00 IRadAn=         5 IDoV= 1 UseB2=F ITyADJ=14
 ICtDFT=  3500011 ScaDFX=  1.000000  1.000000  1.000000  1.000000
 FoFCou: FMM=F IPFlag=           0 FMFlag=      100000 FMFlg1=           0
         NFxFlg=           0 DoJE=T BraDBF=F KetDBF=T FulRan=T
         wScrn=  0.000000 ICntrl=       500 IOpCl=  0 I1Cent=   200000004 NGrid=           0
         NMat0=    1 NMatS0=      1 NMatT0=    0 NMatD0=    1 NMtDS0=    0 NMtDT0=    0
 Petite list used in FoFCou.
 Keep R1 ints in memory in canonical form, NReq=152074523.
 Requested convergence on RMS density matrix=1.00D-08 within 128 cycles.
 Requested convergence on MAX density matrix=1.00D-06.
 Requested convergence on             energy=1.00D-06.
 No special actions if energy rises.
 SCF Done:  E(RMN15) =  -363.386843859     A.U. after   15 cycles
            NFock= 15  Conv=0.83D-08     -V/T= 2.0149
 DoSCS=F DFT=T ScalE2(SS,OS)=  1.000000  1.000000
 ExpMin= 4.38D-02 ExpMax= 4.17D+03 ExpMxC= 6.27D+02 IAcc=3 IRadAn=         5 AccDes= 0.00D+00
 HarFok:  IExCor=  205 AccDes= 0.00D+00 IRadAn=         5 IDoV=-2 UseB2=F ITyADJ=14
 ICtDFT= 12500011 ScaDFX=  1.000000  1.000000  1.000000  1.000000
 Range of M.O.s used for correlation:    10   185
 NBasis=   185 NAE=    31 NBE=    31 NFC=     9 NFV=     0
 NROrb=    176 NOA=    22 NOB=    22 NVA=   154 NVB=   154

 **** Warning!!: The largest alpha MO coefficient is  0.19992148D+03

 Orbital symmetries:
       Occupied  (A) (A) (A) (A) (A) (A) (A) (A) (A) (A) (A) (A)
                 (A) (A) (A) (A) (A) (A) (A) (A) (A) (A) (A) (A)
                 (A) (A) (A) (A) (A) (A) (A)
       Virtual   (A) (A) (A) (A) (A) (A) (A) (A) (A) (A) (A) (A)
                 (A) (A) (A) (A) (A) (A) (A) (A) (A) (A) (A) (A)
                 (A) (A) (A) (A) (A) (A) (A) (A) (A) (A) (A) (A)
                 (A) (A) (A) (A) (A) (A) (A) (A) (A) (A) (A) (A)
                 (A) (A) (A) (A) (A) (A) (A) (A) (A) (A) (A) (A)
                 (A) (A) (A) (A) (A) (A) (A) (A) (A) (A) (A) (A)
                 (A) (A) (A) (A) (A) (A) (A) (A) (A) (A) (A) (A)
                 (A) (A) (A) (A) (A) (A) (A) (A) (A) (A) (A) (A)
                 (A) (A) (A) (A) (A) (A) (A) (A) (A) (A) (A) (A)
                 (A) (A) (A) (A) (A) (A) (A) (A) (A) (A) (A) (A)
                 (A) (A) (A) (A) (A) (A) (A) (A) (A) (A) (A) (A)
                 (A) (A) (A) (A) (A) (A) (A) (A) (A) (A) (A) (A)
                 (A) (A) (A) (A) (A) (A) (A) (A) (A) (A)
    24 initial guesses have been made.
 Convergence on wavefunction:    0.000001000000000
 Iteration     1 Dimension    24 NMult     0 NNew     24
 CISAX will form    24 AO SS matrices at one time.
 New state      1 was old state      2
 New state      2 was old state      1
 New state      4 was old state      5
 New state      5 was old state      6
 New state      6 was old state      8
 Iteration     2 Dimension    36 NMult    24 NNew     12
 New state      1 was old state      2
 New state      2 was old state      1
 Iteration     3 Dimension    48 NMult    36 NNew     12
 Iteration     4 Dimension    60 NMult    48 NNew     12
 No map to state      4
 New state      5 was old state      4
 New state      6 was old state      5
 Iteration     5 Dimension    72 NMult    60 NNew     12
 Iteration     6 Dimension    84 NMult    72 NNew     12
 Iteration     7 Dimension    96 NMult    84 NNew     12
 Iteration     8 Dimension   108 NMult    96 NNew     12
 Iteration     9 Dimension   120 NMult   108 NNew     12
 Iteration    10 Dimension   130 NMult   120 NNew     10
 Iteration    11 Dimension   136 NMult   130 NNew      6
 Iteration    12 Dimension   140 NMult   136 NNew      4
 Iteration    13 Dimension   142 NMult   140 NNew      2
 ***********************************************************************
 Excited states from <AA,BB:AA,BB> singles matrix:
 ***********************************************************************
 
 Ground to excited state transition densities written to RWF  633
 Ground to excited state transition electric dipole moments (Au):
       state          X           Y           Z        Dip. S.      Osc.
         1        -0.2982      0.6623     -0.0001      0.5276      0.0648
         2        -0.7964      0.1735     -0.0001      0.6643      0.0824
         3         0.0003     -0.0001     -0.1868      0.0349      0.0051
         4        -1.9051     -0.6643     -0.0003      4.0709      0.6228
         5         0.0010      0.0006     -0.1854      0.0344      0.0054
         6        -0.0014     -0.0010      0.0775      0.0060      0.0010
 Ground to excited state transition velocity dipole moments (Au):
       state          X           Y           Z        Dip. S.      Osc.
         1         0.0496     -0.1350      0.0000      0.0207      0.0749
         2         0.1425     -0.0367      0.0000      0.0217      0.0776
         3        -0.0001      0.0000      0.0312      0.0010      0.0030
         4         0.4402      0.1569      0.0001      0.2184      0.6346
         5        -0.0002     -0.0001      0.0452      0.0020      0.0058
         6         0.0003      0.0002     -0.0183      0.0003      0.0009
 Ground to excited state transition magnetic dipole moments (Au):
       state          X           Y           Z
         1         0.0003      0.0000      0.1520
         2         0.0000     -0.0002      0.0077
         3         0.1216     -0.1500     -0.0000
         4        -0.0000     -0.0007     -0.7584
         5         0.1787     -0.2966      0.0007
         6         0.4847     -0.0879     -0.0003
 Ground to excited state transition velocity quadrupole moments (Au):
       state          XX          YY          ZZ          XY          XZ          YZ
         1         0.1687     -0.0641     -0.0063      0.0118      0.0001      0.0001
         2         0.1554     -0.1709      0.0199     -0.0014      0.0001     -0.0000
         3        -0.0001      0.0000      0.0001     -0.0000      0.1225      0.0528
         4         0.1233     -0.1267     -0.0308     -0.5023      0.0005     -0.0000
         5        -0.0001      0.0001      0.0001      0.0006      0.2203      0.1059
         6        -0.0002     -0.0001      0.0000     -0.0003      0.1463      0.3829
 <0|del|b> * <b|rxdel|0> + <0|del|b> * <b|delr+rdel|0>
 Rotatory Strengths (R) in cgs (10**-40 erg-esu-cm/Gauss)
       state          XX          YY          ZZ    R(velocity)    E-M Angle
         1         0.0120      0.0343     -0.0040      0.0141       90.00
         2         0.0253      0.0124      0.0167      0.0181       90.00
         3        -0.0141     -0.0158     -0.0074     -0.0124       90.00
         4        -0.4503     -0.0862     -0.0678     -0.2014       90.03
         5         0.2063     -0.0883     -0.0083      0.0366       90.00
         6        -0.0686      0.4252      0.0708      0.1425       89.08
 1/2[<0|r|b>*<b|rxdel|0> + (<0|rxdel|b>*<b|r|0>)*]
 Rotatory Strengths (R) in cgs (10**-40 erg-esu-cm/Gauss)
       state          XX          YY          ZZ     R(length)
         1         0.0538     -0.0101      0.0078      0.0171
         2         0.0254      0.0257      0.0008      0.0173
         3        -0.0260     -0.0109     -0.0042     -0.0137
         4        -0.0550     -0.3484     -0.1762     -0.1932
         5        -0.1257      0.1262      0.0983      0.0329
         6         0.4661     -0.0609      0.0167      0.1407
  1/2[<0|del|b>*<b|r|0> + (<0|r|b>*<b|del|0>)*] (Au)
       state          X           Y           Z        Dip. S.   Osc.(frdel)
         1        -0.0148     -0.0894     -0.0000      0.1042      0.0695
         2        -0.1135     -0.0064     -0.0000      0.1199      0.0799
         3        -0.0000     -0.0000     -0.0058      0.0058      0.0039
         4        -0.8387     -0.1042     -0.0000      0.9430      0.6286
         5        -0.0000     -0.0000     -0.0084      0.0084      0.0056
         6        -0.0000     -0.0000     -0.0014      0.0014      0.0009

 Excitation energies and oscillator strengths:
 
 Excited State   1:      Singlet-A      5.0140 eV  247.28 nm  f=0.0648  <S**2>=0.000
      30 -> 32        -0.36914
      30 -> 34         0.14686
      31 -> 32         0.54418
      31 -> 34         0.18158
 
 Excited State   2:      Singlet-A      5.0640 eV  244.83 nm  f=0.0824  <S**2>=0.000
      30 -> 32         0.45726
      30 -> 34         0.10969
      31 -> 32         0.39632
      31 -> 34        -0.33427
 This state for optimization and/or second-order correction.
 Total Energy, E(TD-HF/TD-DFT) =  -363.200743706    
 Copying the excited state density for this state as the 1-particle RhoCI density.
 
 Excited State   3:      Singlet-A      5.9252 eV  209.25 nm  f=0.0051  <S**2>=0.000
      31 -> 33         0.68472
 
 Excited State   4:      Singlet-A      6.2445 eV  198.55 nm  f=0.6228  <S**2>=0.000
      30 -> 32         0.35192
      31 -> 34         0.57586
      31 -> 37         0.11677
 
 Excited State   5:      Singlet-A      6.3948 eV  193.88 nm  f=0.0054  <S**2>=0.000
      30 -> 33         0.63161
      31 -> 35         0.22246
      31 -> 36        -0.11432
 
 Excited State   6:      Singlet-A      6.5055 eV  190.58 nm  f=0.0010  <S**2>=0.000
      30 -> 33        -0.21478
      31 -> 35         0.63997
 SavETr:  write IOETrn=   770 NScale= 10 NData=  16 NLR=1 NState=    6 LETran=     118.
          IDoAtm=1111111111111111
          Differentiating once with respect to electric field.
                with respect to dipole field.
          Differentiating once with respect to nuclear coordinates.
 Keep R1 ints in memory in canonical form, NReq=152086915.
          There are     1 degrees of freedom in the 1st order CPHF.  IDoFFX=0 NUNeed=     1.
 LinEq1:  Iter=  0 NonCon=     1 RMS=6.79D-03 Max=1.92D-01 NDo=     1
 AX will form     1 AO Fock derivatives at one time.
 LinEq1:  Iter=  1 NonCon=     1 RMS=2.47D-03 Max=6.84D-02 NDo=     1
 LinEq1:  Iter=  2 NonCon=     1 RMS=1.58D-03 Max=5.05D-02 NDo=     1
 LinEq1:  Iter=  3 NonCon=     1 RMS=7.31D-04 Max=1.71D-02 NDo=     1
 LinEq1:  Iter=  4 NonCon=     1 RMS=2.95D-04 Max=7.84D-03 NDo=     1
 LinEq1:  Iter=  5 NonCon=     1 RMS=1.65D-04 Max=3.93D-03 NDo=     1
 LinEq1:  Iter=  6 NonCon=     1 RMS=7.76D-05 Max=2.19D-03 NDo=     1
 LinEq1:  Iter=  7 NonCon=     1 RMS=4.39D-05 Max=7.17D-04 NDo=     1
 LinEq1:  Iter=  8 NonCon=     1 RMS=1.72D-05 Max=4.94D-04 NDo=     1
 LinEq1:  Iter=  9 NonCon=     1 RMS=8.26D-06 Max=1.92D-04 NDo=     1
 LinEq1:  Iter= 10 NonCon=     1 RMS=3.05D-06 Max=5.22D-05 NDo=     1
 LinEq1:  Iter= 11 NonCon=     1 RMS=1.61D-06 Max=3.43D-05 NDo=     1
 LinEq1:  Iter= 12 NonCon=     1 RMS=5.46D-07 Max=1.48D-05 NDo=     1
 LinEq1:  Iter= 13 NonCon=     1 RMS=3.29D-07 Max=7.14D-06 NDo=     1
 LinEq1:  Iter= 14 NonCon=     1 RMS=1.42D-07 Max=3.36D-06 NDo=     1
 LinEq1:  Iter= 15 NonCon=     1 RMS=7.19D-08 Max=1.33D-06 NDo=     1
 LinEq1:  Iter= 16 NonCon=     1 RMS=3.07D-08 Max=5.29D-07 NDo=     1
 LinEq1:  Iter= 17 NonCon=     1 RMS=6.57D-09 Max=1.23D-07 NDo=     1
 LinEq1:  Iter= 18 NonCon=     1 RMS=3.14D-09 Max=7.69D-08 NDo=     1
 LinEq1:  Iter= 19 NonCon=     1 RMS=1.41D-09 Max=2.79D-08 NDo=     1
 LinEq1:  Iter= 20 NonCon=     1 RMS=3.31D-10 Max=4.38D-09 NDo=     1
 LinEq1:  Iter= 21 NonCon=     0 RMS=5.59D-11 Max=6.62D-10 NDo=     1
 Linear equations converged to 1.000D-10 1.000D-09 after    21 iterations.
 End of Minotr F.D. properties file   721 does not exist.
 End of Minotr F.D. properties file   722 does not exist.
 End of Minotr F.D. properties file   788 does not exist.

 **********************************************************************

            Population analysis using the CI Density.

 **********************************************************************

 Orbital symmetries:
       Occupied  (A) (A) (A) (A) (A) (A) (A) (A) (A) (A) (A) (A)
                 (A) (A) (A) (A) (A) (A) (A) (A) (A) (A) (A) (A)
                 (A) (A) (A) (A) (A) (A) (A)
       Virtual   (A) (A) (A) (A) (A) (A) (A) (A) (A) (A) (A) (A)
                 (A) (A) (A) (A) (A) (A) (A) (A) (A) (A) (A) (A)
                 (A) (A) (A) (A) (A) (A) (A) (A) (A) (A) (A) (A)
                 (A) (A) (A) (A) (A) (A) (A) (A) (A) (A) (A) (A)
                 (A) (A) (A) (A) (A) (A) (A) (A) (A) (A) (A) (A)
                 (A) (A) (A) (A) (A) (A) (A) (A) (A) (A) (A) (A)
                 (A) (A) (A) (A) (A) (A) (A) (A) (A) (A) (A) (A)
                 (A) (A) (A) (A) (A) (A) (A) (A) (A) (A) (A) (A)
                 (A) (A) (A) (A) (A) (A) (A) (A) (A) (A) (A) (A)
                 (A) (A) (A) (A) (A) (A) (A) (A) (A) (A) (A) (A)
                 (A) (A) (A) (A) (A) (A) (A) (A) (A) (A) (A) (A)
                 (A) (A) (A) (A) (A) (A) (A) (A) (A) (A) (A) (A)
                 (A) (A) (A) (A) (A) (A) (A) (A) (A) (A)
 The electronic state is 1-A.
 Alpha  occ. eigenvalues --  -14.17214 -10.10600 -10.10318 -10.07255 -10.06788
 Alpha  occ. eigenvalues --  -10.06747 -10.06718 -10.06211 -10.05912  -1.02768
 Alpha  occ. eigenvalues --   -0.88638  -0.82726  -0.77807  -0.75963  -0.66785
 Alpha  occ. eigenvalues --   -0.63651  -0.62407  -0.58418  -0.52279  -0.51305
 Alpha  occ. eigenvalues --   -0.47809  -0.47256  -0.46999  -0.45131  -0.43088
 Alpha  occ. eigenvalues --   -0.39308  -0.37947  -0.37241  -0.31838  -0.25624
 Alpha  occ. eigenvalues --   -0.23932
 Alpha virt. eigenvalues --    0.00948   0.04612   0.04690   0.06322   0.06992
 Alpha virt. eigenvalues --    0.08112   0.08496   0.08642   0.10009   0.10825
 Alpha virt. eigenvalues --    0.11375   0.11413   0.13359   0.13730   0.14964
 Alpha virt. eigenvalues --    0.15363   0.15653   0.17547   0.18317   0.18530
 Alpha virt. eigenvalues --    0.19908   0.20697   0.21063   0.21213   0.21496
 Alpha virt. eigenvalues --    0.22048   0.22934   0.23782   0.23827   0.24062
 Alpha virt. eigenvalues --    0.24470   0.25044   0.26261   0.26692   0.27417
 Alpha virt. eigenvalues --    0.28024   0.28172   0.28776   0.29682   0.30191
 Alpha virt. eigenvalues --    0.31237   0.31736   0.32163   0.34094   0.34734
 Alpha virt. eigenvalues --    0.35423   0.36042   0.37838   0.40028   0.40917
 Alpha virt. eigenvalues --    0.41865   0.44406   0.47325   0.49285   0.55331
 Alpha virt. eigenvalues --    0.61637   0.66238   0.69354   0.70659   0.72378
 Alpha virt. eigenvalues --    0.74561   0.74651   0.75348   0.76060   0.76795
 Alpha virt. eigenvalues --    0.77746   0.78351   0.80085   0.81847   0.82293
 Alpha virt. eigenvalues --    0.83732   0.88123   0.91925   0.93139   0.94189
 Alpha virt. eigenvalues --    0.96189   0.96779   0.97545   0.99417   1.00478
 Alpha virt. eigenvalues --    1.02871   1.05674   1.07326   1.09324   1.12019
 Alpha virt. eigenvalues --    1.13453   1.13677   1.19598   1.19923   1.22306
 Alpha virt. eigenvalues --    1.23740   1.24749   1.27082   1.32740   1.33297
 Alpha virt. eigenvalues --    1.34067   1.38171   1.41530   1.43076   1.45957
 Alpha virt. eigenvalues --    1.46016   1.46228   1.49053   1.49790   1.55483
 Alpha virt. eigenvalues --    1.59811   1.65179   1.78242   1.83036   1.86580
 Alpha virt. eigenvalues --    1.87680   1.90243   1.93244   1.96525   1.97325
 Alpha virt. eigenvalues --    1.98403   2.04424   2.07273   2.11503   2.14253
 Alpha virt. eigenvalues --    2.14484   2.16978   2.21955   2.22418   2.22814
 Alpha virt. eigenvalues --    2.25313   2.27818   2.33816   2.37047   2.40446
 Alpha virt. eigenvalues --    2.50997   2.51475   2.58564   2.60740   2.61243
 Alpha virt. eigenvalues --    2.63975   2.67762   2.75554   2.78738   2.79118
 Alpha virt. eigenvalues --    2.89594   2.91486   3.03937   3.15617   3.34936
 Alpha virt. eigenvalues --    4.10197   4.18882   4.21833   4.25195   4.28587
 Alpha virt. eigenvalues --    4.32046   4.39758   4.43373   4.69098
          Condensed to atoms (all electrons):
               1          2          3          4          5          6
     1  C    6.134258  -0.003552   0.454320  -0.751804   0.225776  -0.536449
     2  C   -0.003552   6.068687  -0.763820   0.983706  -0.748415   0.785338
     3  C    0.454320  -0.763820  13.984141  -4.895229  -2.048573  -2.273893
     4  C   -0.751804   0.983706  -4.895229  13.776358  -1.961838   0.078440
     5  C    0.225776  -0.748415  -2.048573  -1.961838  13.751626  -1.856208
     6  C   -0.536449   0.785338  -2.273893   0.078440  -1.856208  11.791123
     7  N   -0.007746  -0.000218  -0.279683  -0.222046   0.406215   0.103752
     8  C    0.247952  -0.293918   2.999695  -0.231867  -4.997040  -2.202862
     9  C   -0.086874   0.059421  -1.207940  -0.147512   2.146123   0.597353
    10  H   -0.002191  -0.008645  -0.096641  -0.088356   0.146306   0.027836
    11  H   -0.000003   0.000346   0.002355   0.072307  -0.087959  -0.044608
    12  H   -0.000027   0.000491  -0.001479   0.007969   0.034278  -0.016401
    13  H   -0.094456   0.419617  -0.108196   0.062231  -0.023010   0.049842
    14  H    0.050443  -0.062363   0.451588  -0.144000   0.033952  -0.034562
    15  H    0.465127  -0.114294   0.046478  -0.031427   0.071640  -0.129046
    16  H   -0.102178   0.046307  -0.059252   0.075730  -0.050633   0.454582
               7          8          9         10         11         12
     1  C   -0.007746   0.247952  -0.086874  -0.002191  -0.000003  -0.000027
     2  C   -0.000218  -0.293918   0.059421  -0.008645   0.000346   0.000491
     3  C   -0.279683   2.999695  -1.207940  -0.096641   0.002355  -0.001479
     4  C   -0.222046  -0.231867  -0.147512  -0.088356   0.072307   0.007969
     5  C    0.406215  -4.997040   2.146123   0.146306  -0.087959   0.034278
     6  C    0.103752  -2.202862   0.597353   0.027836  -0.044608  -0.016401
     7  N    7.254897  -0.414102   0.449488   0.289709   0.009828  -0.047934
     8  C   -0.414102  12.925456  -2.708052   0.004720   0.442657  -0.114747
     9  C    0.449488  -2.708052   6.950156  -0.033840  -0.096454   0.445025
    10  H    0.289709   0.004720  -0.033840   0.352579  -0.000085  -0.002833
    11  H    0.009828   0.442657  -0.096454  -0.000085   0.509211  -0.001434
    12  H   -0.047934  -0.114747   0.445025  -0.002833  -0.001434   0.494117
    13  H   -0.000400  -0.003554   0.001637  -0.000002   0.000000  -0.000000
    14  H   -0.002710  -0.016501   0.014014   0.001866   0.000002   0.000003
    15  H    0.000249  -0.002098  -0.000132  -0.000000  -0.000001  -0.000000
    16  H   -0.001060  -0.078819   0.006517   0.000004   0.001494  -0.000001
              13         14         15         16
     1  C   -0.094456   0.050443   0.465127  -0.102178
     2  C    0.419617  -0.062363  -0.114294   0.046307
     3  C   -0.108196   0.451588   0.046478  -0.059252
     4  C    0.062231  -0.144000  -0.031427   0.075730
     5  C   -0.023010   0.033952   0.071640  -0.050633
     6  C    0.049842  -0.034562  -0.129046   0.454582
     7  N   -0.000400  -0.002710   0.000249  -0.001060
     8  C   -0.003554  -0.016501  -0.002098  -0.078819
     9  C    0.001637   0.014014  -0.000132   0.006517
    10  H   -0.000002   0.001866  -0.000000   0.000004
    11  H    0.000000   0.000002  -0.000001   0.001494
    12  H   -0.000000   0.000003  -0.000000  -0.000001
    13  H    0.535998  -0.004981  -0.005293  -0.000147
    14  H   -0.004981   0.547532  -0.000146   0.000016
    15  H   -0.005293  -0.000146   0.540512  -0.005157
    16  H   -0.000147   0.000016  -0.005157   0.549256
 Mulliken charges:
               1
     1  C    0.007404
     2  C   -0.368688
     3  C   -0.203872
     4  C   -0.582662
     5  C    0.957761
     6  C   -0.794238
     7  N   -0.538238
     8  C    0.443080
     9  C   -0.388929
    10  H    0.409573
    11  H    0.192345
    12  H    0.202972
    13  H    0.170714
    14  H    0.165848
    15  H    0.163590
    16  H    0.163340
 Sum of Mulliken charges =  -0.00000
 Mulliken charges with hydrogens summed into heavy atoms:
               1
     1  C    0.170994
     2  C   -0.197974
     3  C   -0.038024
     4  C   -0.582662
     5  C    0.957761
     6  C   -0.630898
     7  N   -0.128665
     8  C    0.635425
     9  C   -0.185957
 Electronic spatial extent (au):  <R**2>=           1007.3606
 Charge=             -0.0000 electrons
 Dipole moment (field-independent basis, Debye):
    X=              2.8973    Y=             -1.6430    Z=              0.0005  Tot=              3.3307
 Quadrupole moment (field-independent basis, Debye-Ang):
   XX=            -45.0817   YY=            -46.9340   ZZ=            -59.5311
   XY=             -1.9577   XZ=              0.0021   YZ=             -0.0025
 Traceless Quadrupole moment (field-independent basis, Debye-Ang):
   XX=              5.4339   YY=              3.5816   ZZ=             -9.0155
   XY=             -1.9577   XZ=              0.0021   YZ=             -0.0025
 Octapole moment (field-independent basis, Debye-Ang**2):
  XXX=             22.2793  YYY=            -10.4382  ZZZ=             -0.0042  XYY=             12.2826
  XXY=             -7.8643  XXZ=              0.0045  XZZ=              3.8643  YZZ=             -1.8719
  YYZ=             -0.0006  XYZ=             -0.0052
 Hexadecapole moment (field-independent basis, Debye-Ang**3):
 XXXX=           -829.7207 YYYY=           -390.9853 ZZZZ=            -79.6877 XXXY=            -13.8201
 XXXZ=              0.0142 YYYX=            -16.7504 YYYZ=             -0.0091 ZZZX=              0.0017
 ZZZY=              0.0003 XXYY=           -198.2311 XXZZ=           -194.3891 YYZZ=            -99.6329
 XXYZ=             -0.0093 YYXZ=              0.0071 ZZXY=             -2.1232
 N-N= 4.013368668897D+02 E-N=-1.642485352798D+03  KE= 3.582431542230D+02
 Calling FoFJK, ICntrl=  10005127 FMM=F ISym2X=0 I1Cent= 0 IOpClX= 0 NMat=1 NMatS=1 NMatT=0.
 ***** Axes restored to original set *****
 -------------------------------------------------------------------
 Center     Atomic                   Forces (Hartrees/Bohr)
 Number     Number              X              Y              Z
 -------------------------------------------------------------------
      1        6          -0.023332976   -0.002816761   -0.000001830
      2        6          -0.021096461    0.007309848   -0.000000723
      3        6           0.015005483   -0.034807773    0.000004679
      4        6           0.006136286   -0.003418375   -0.000012348
      5        6           0.027487448    0.015401549   -0.000021223
      6        6           0.004640817    0.035163987   -0.000001094
      7        7           0.010190336    0.004035046    0.000035126
      8        6          -0.039117127    0.017531214    0.000027457
      9        6           0.017495477   -0.033160382   -0.000047116
     10        1           0.002834203   -0.007838416    0.000006646
     11        1           0.001199579    0.004262315    0.000006349
     12        1           0.004540373   -0.000651662    0.000001386
     13        1          -0.003507084   -0.002158633    0.000000212
     14        1           0.000575016   -0.003479316   -0.000000745
     15        1          -0.003494909    0.001251042    0.000000916
     16        1           0.000443537    0.003376320    0.000002308
 -------------------------------------------------------------------
 Cartesian Forces:  Max     0.039117127 RMS     0.013162421

 GradGradGradGradGradGradGradGradGradGradGradGradGradGradGradGradGradGrad
 Berny optimization.
 FormGI is forming the generalized inverse of G from B-inverse, IUseBI=4.
 Internal  Forces:  Max     0.038210146 RMS     0.008851764
 Search for a local minimum.
 Step number   1 out of a maximum of   94
 All quantities printed in internal units (Hartrees-Bohrs-Radians)
 Mixed Optimization -- RFO/linear search
 Second derivative matrix not updated -- first step.
 ITU=  0
     Eigenvalues ---    0.01853   0.01931   0.01986   0.02012   0.02070
     Eigenvalues ---    0.02113   0.02148   0.02153   0.02172   0.02209
     Eigenvalues ---    0.02233   0.02248   0.02338   0.16000   0.16000
     Eigenvalues ---    0.16000   0.16000   0.16000   0.16000   0.16000
     Eigenvalues ---    0.22000   0.22188   0.22662   0.24011   0.24651
     Eigenvalues ---    0.35712   0.35717   0.35783   0.35790   0.36420
     Eigenvalues ---    0.36427   0.37009   0.38432   0.42633   0.43465
     Eigenvalues ---    0.45769   0.46692   0.47162   0.47468   0.47567
     Eigenvalues ---    0.48125   0.50955
 RFO step:  Lambda=-1.41704582D-02 EMin= 1.85287394D-02
 Linear search not attempted -- first point.
 Iteration  1 RMS(Cart)=  0.02860633 RMS(Int)=  0.00018076
 Iteration  2 RMS(Cart)=  0.00028259 RMS(Int)=  0.00002856
 Iteration  3 RMS(Cart)=  0.00000005 RMS(Int)=  0.00002856
 Variable       Old X    -DE/DX   Delta X   Delta X   Delta X     New X
                                 (Linear)    (Quad)   (Total)
    R1        2.65547   0.01868   0.00000   0.04093   0.04091   2.69639
    R2        2.61291   0.03112   0.00000   0.06263   0.06263   2.67554
    R3        2.04421   0.00367   0.00000   0.00987   0.00987   2.05408
    R4        2.61557   0.03562   0.00000   0.07160   0.07159   2.68716
    R5        2.04411   0.00412   0.00000   0.01107   0.01107   2.05518
    R6        2.63373   0.01771   0.00000   0.03637   0.03637   2.67010
    R7        2.04534   0.00349   0.00000   0.00939   0.00939   2.05473
    R8        2.68058   0.02603   0.00000   0.05756   0.05750   2.73808
    R9        2.60126   0.01239   0.00000   0.02403   0.02400   2.62526
   R10        2.64771   0.02547   0.00000   0.05433   0.05434   2.70205
   R11        2.70839  -0.01497   0.00000  -0.03606  -0.03606   2.67233
   R12        2.04526   0.00336   0.00000   0.00905   0.00905   2.05432
   R13        2.60573  -0.00500   0.00000  -0.00914  -0.00909   2.59663
   R14        1.89542   0.00833   0.00000   0.01715   0.01715   1.91257
   R15        2.57870   0.03821   0.00000   0.07211   0.07218   2.65087
   R16        2.03419   0.00442   0.00000   0.01167   0.01167   2.04586
   R17        2.03430   0.00458   0.00000   0.01211   0.01211   2.04642
    A1        2.11420   0.00038   0.00000   0.00373   0.00370   2.11791
    A2        2.07986  -0.00076   0.00000  -0.00511  -0.00510   2.07476
    A3        2.08912   0.00037   0.00000   0.00138   0.00140   2.09052
    A4        2.11523   0.00519   0.00000   0.02335   0.02331   2.13854
    A5        2.08365  -0.00250   0.00000  -0.01112  -0.01110   2.07256
    A6        2.08430  -0.00269   0.00000  -0.01223  -0.01221   2.07209
    A7        2.05144  -0.00616   0.00000  -0.02700  -0.02703   2.02440
    A8        2.11267   0.00362   0.00000   0.01661   0.01662   2.12929
    A9        2.11908   0.00254   0.00000   0.01040   0.01041   2.12949
   A10        2.13389   0.00157   0.00000   0.00552   0.00557   2.13946
   A11        2.27895  -0.00551   0.00000  -0.01904  -0.01899   2.25996
   A12        1.87035   0.00394   0.00000   0.01352   0.01342   1.88377
   A13        2.07274   0.00622   0.00000   0.02400   0.02405   2.09679
   A14        1.86517  -0.00435   0.00000  -0.01848  -0.01856   1.84661
   A15        2.34527  -0.00187   0.00000  -0.00552  -0.00549   2.33978
   A16        2.07887  -0.00719   0.00000  -0.02960  -0.02960   2.04927
   A17        2.10306   0.00414   0.00000   0.01794   0.01794   2.12100
   A18        2.10125   0.00305   0.00000   0.01166   0.01166   2.11291
   A19        1.90743  -0.00162   0.00000  -0.00628  -0.00627   1.90115
   A20        2.19023   0.00103   0.00000   0.00442   0.00442   2.19465
   A21        2.18553   0.00059   0.00000   0.00186   0.00186   2.18739
   A22        1.86968   0.00447   0.00000   0.01941   0.01947   1.88915
   A23        2.21717  -0.00259   0.00000  -0.01175  -0.01178   2.20539
   A24        2.19633  -0.00188   0.00000  -0.00766  -0.00769   2.18864
   A25        1.91215  -0.00245   0.00000  -0.00816  -0.00805   1.90409
   A26        2.10250   0.00105   0.00000   0.00310   0.00305   2.10555
   A27        2.26854   0.00139   0.00000   0.00506   0.00501   2.27354
    D1       -0.00001   0.00000   0.00000   0.00000   0.00000  -0.00001
    D2       -3.14156  -0.00000   0.00000  -0.00004  -0.00004   3.14158
    D3        3.14152   0.00000   0.00000   0.00006   0.00006   3.14159
    D4       -0.00002   0.00000   0.00000   0.00002   0.00002  -0.00000
    D5       -0.00003   0.00000   0.00000   0.00007   0.00007   0.00004
    D6        3.14153   0.00000   0.00000   0.00008   0.00008  -3.14157
    D7       -3.14157   0.00000   0.00000   0.00001   0.00001  -3.14156
    D8       -0.00001   0.00000   0.00000   0.00002   0.00002   0.00002
    D9        0.00003  -0.00000   0.00000  -0.00007  -0.00007  -0.00004
   D10       -3.14154  -0.00000   0.00000  -0.00002  -0.00002  -3.14156
   D11        3.14158  -0.00000   0.00000  -0.00003  -0.00003   3.14155
   D12        0.00001   0.00000   0.00000   0.00002   0.00002   0.00003
   D13       -0.00001   0.00000   0.00000   0.00007   0.00008   0.00007
   D14       -3.14144  -0.00000   0.00000  -0.00000  -0.00000  -3.14144
   D15        3.14156   0.00000   0.00000   0.00002   0.00002   3.14159
   D16        0.00013  -0.00000   0.00000  -0.00005  -0.00005   0.00008
   D17       -0.00004   0.00000   0.00000  -0.00000  -0.00000  -0.00004
   D18       -3.14151  -0.00000   0.00000  -0.00011  -0.00012   3.14155
   D19        3.14143   0.00000   0.00000   0.00006   0.00006   3.14148
   D20       -0.00005  -0.00000   0.00000  -0.00005  -0.00005  -0.00011
   D21       -3.14124  -0.00001   0.00000  -0.00024  -0.00024  -3.14148
   D22       -0.00113   0.00001   0.00000   0.00007   0.00007  -0.00106
   D23        0.00049  -0.00001   0.00000  -0.00031  -0.00031   0.00018
   D24        3.14060   0.00000   0.00000   0.00001  -0.00000   3.14060
   D25        0.00005  -0.00000   0.00000  -0.00007  -0.00007  -0.00002
   D26       -3.14151  -0.00000   0.00000  -0.00008  -0.00008  -3.14159
   D27        3.14150   0.00000   0.00000   0.00008   0.00008   3.14158
   D28       -0.00007   0.00000   0.00000   0.00007   0.00007   0.00000
   D29       -0.00041   0.00002   0.00000   0.00040   0.00040  -0.00001
   D30        3.14139   0.00001   0.00000   0.00014   0.00013   3.14152
   D31        3.14132   0.00001   0.00000   0.00026   0.00026   3.14159
   D32       -0.00006   0.00000   0.00000  -0.00000  -0.00001  -0.00007
   D33       -0.00077   0.00002   0.00000   0.00059   0.00058  -0.00019
   D34        3.14133   0.00001   0.00000   0.00016   0.00016   3.14148
   D35       -3.14089   0.00001   0.00000   0.00028   0.00027  -3.14062
   D36        0.00121  -0.00000   0.00000  -0.00015  -0.00015   0.00106
   D37        0.00072  -0.00002   0.00000  -0.00059  -0.00060   0.00012
   D38       -3.14144  -0.00000   0.00000  -0.00011  -0.00012  -3.14156
   D39       -3.14107  -0.00001   0.00000  -0.00033  -0.00033  -3.14141
   D40       -0.00005   0.00001   0.00000   0.00015   0.00014   0.00009
         Item               Value     Threshold  Converged?
 Maximum Force            0.038210     0.000450     NO 
 RMS     Force            0.008852     0.000300     NO 
 Maximum Displacement     0.112423     0.001800     NO 
 RMS     Displacement     0.028584     0.001200     NO 
 Predicted change in Energy=-7.311743D-03
 GradGradGradGradGradGradGradGradGradGradGradGradGradGradGradGradGradGrad

                          Input orientation:                          
 ---------------------------------------------------------------------
 Center     Atomic      Atomic             Coordinates (Angstroms)
 Number     Number       Type             X           Y           Z
 ---------------------------------------------------------------------
      1          6           0       -2.180006    0.709131    0.000004
      2          6           0       -2.141396   -0.717213    0.000025
      3          6           0       -0.922246   -1.449133    0.000047
      4          6           0        0.262333   -0.678930   -0.000004
      5          6           0        0.250965    0.769952    0.000006
      6          6           0       -0.991210    1.478126    0.000019
      7          7           0        1.587391   -1.096269   -0.000160
      8          6           0        1.608586    1.165734   -0.000004
      9          6           0        2.402995    0.009571   -0.000008
     10          1           0        1.904536   -2.057385    0.000610
     11          1           0        1.980761    2.182371   -0.000063
     12          1           0        3.480424   -0.099321    0.000009
     13          1           0       -3.080391   -1.265905    0.000020
     14          1           0       -0.902880   -2.536278    0.000032
     15          1           0       -3.145696    1.208082   -0.000019
     16          1           0       -1.017262    2.564913    0.000023
 ---------------------------------------------------------------------
                    Distance matrix (angstroms):
                    1          2          3          4          5
     1  C    0.000000
     2  C    1.426866   0.000000
     3  C    2.498011   1.421982   0.000000
     4  C    2.809223   2.404034   1.412955   0.000000
     5  C    2.431731   2.816922   2.510132   1.448927   0.000000
     6  C    1.415835   2.478396   2.928072   2.494847   1.429863
     7  N    4.177649   3.748004   2.534323   1.389227   2.295391
     8  C    3.816007   4.196171   3.639044   2.283677   1.414135
     9  C    4.636084   4.602141   3.631122   2.248659   2.282414
    10  H    4.933264   4.262116   2.891483   2.144055   3.275383
    11  H    4.413889   5.039818   4.649223   3.337670   2.233186
    12  H    5.717872   5.655674   4.604943   3.269871   3.344405
    13  H    2.170589   1.087554   2.165909   3.393869   3.904183
    14  H    3.487653   2.200663   1.087317   2.192592   3.501787
    15  H    1.086973   2.171493   3.464754   3.895572   3.424801
    16  H    2.189954   3.469298   4.015170   3.487102   2.197790
                    6          7          8          9         10
     6  C    0.000000
     7  N    3.643720   0.000000
     8  C    2.618497   2.262103   0.000000
     9  C    3.698281   1.374079   1.402782   0.000000
    10  H    4.570032   1.012090   3.236678   2.126210   0.000000
    11  H    3.054271   3.302155   1.082620   2.213446   4.240442
    12  H    4.741714   2.139504   2.259235   1.082918   2.513451
    13  H    3.448824   4.670864   5.281986   5.629774   5.047370
    14  H    4.015376   2.876643   4.473516   4.172548   2.847968
    15  H    2.171344   5.264233   4.754471   5.676654   6.013994
    16  H    1.087098   4.493158   2.975362   4.269418   5.468322
                   11         12         13         14         15
    11  H    0.000000
    12  H    2.730405   0.000000
    13  H    6.124203   6.663724   0.000000
    14  H    5.530012   5.015188   2.520993   0.000000
    15  H    5.218218   6.753871   2.474849   4.364683   0.000000
    16  H    3.022330   5.227554   4.351053   5.102473   2.524127
                   16
    16  H    0.000000
 Stoichiometry    C8H7N
 Framework group  C1[X(C8H7N)]
 Deg. of freedom    42
 Full point group                 C1      NOp   1
 Largest Abelian subgroup         C1      NOp   1
 Largest concise Abelian subgroup C1      NOp   1
                         Standard orientation:                         
 ---------------------------------------------------------------------
 Center     Atomic      Atomic             Coordinates (Angstroms)
 Number     Number       Type             X           Y           Z
 ---------------------------------------------------------------------
      1          6           0       -2.193231    0.670072    0.000004
      2          6           0       -2.129642   -0.755376    0.000025
      3          6           0       -0.897858   -1.465828    0.000047
      4          6           0        0.273048   -0.674993   -0.000004
      5          6           0        0.236301    0.773468    0.000006
      6          6           0       -1.018088    1.459774    0.000019
      7          7           0        1.605213   -1.069057   -0.000160
      8          6           0        1.586781    1.192970   -0.000004
      9          6           0        2.401321    0.050901   -0.000008
     10          1           0        1.939146   -2.024470    0.000610
     11          1           0        1.941091    2.215971   -0.000063
     12          1           0        3.480492   -0.039102    0.000009
     13          1           0       -3.058881   -1.320432    0.000020
     14          1           0       -0.859451   -2.552467    0.000032
     15          1           0       -3.167513    1.152032   -0.000019
     16          1           0       -1.063173    2.545937    0.000023
 ---------------------------------------------------------------------
 Rotational constants (GHZ):           3.7540035           1.6170458           1.1302066
 Standard basis: 6-31+G(d) (6D, 7F)
 There are   185 symmetry adapted cartesian basis functions of A   symmetry.
 There are   185 symmetry adapted basis functions of A   symmetry.
   185 basis functions,   316 primitive gaussians,   185 cartesian basis functions
    31 alpha electrons       31 beta electrons
       nuclear repulsion energy       396.3319997396 Hartrees.
 NAtoms=   16 NActive=   16 NUniq=   16 SFac= 1.00D+00 NAtFMM=   60 NAOKFM=F Big=F
 Integral buffers will be    131072 words long.
 Regular integral format.
 Two-electron integral symmetry is turned on.
 One-electron integrals computed using PRISM.
 NBasis=   185 RedAO= T EigKep=  1.45D-06  NBF=   185
 NBsUse=   185 1.00D-06 EigRej= -1.00D+00 NBFU=   185
 Initial guess from the checkpoint file:  "FuncsMN15-V-2nd.chk"
 B after Tr=     0.000000    0.000000    0.000000
         Rot=    0.999965    0.000004    0.000002   -0.008343 Ang=   0.96 deg.
 ExpMin= 4.38D-02 ExpMax= 4.17D+03 ExpMxC= 6.27D+02 IAcc=3 IRadAn=         5 AccDes= 0.00D+00
 Harris functional with IExCor= 1009 and IRadAn=       5 diagonalized for initial guess.
 HarFok:  IExCor= 1009 AccDes= 0.00D+00 IRadAn=         5 IDoV= 1 UseB2=F ITyADJ=14
 ICtDFT=  3500011 ScaDFX=  1.000000  1.000000  1.000000  1.000000
 FoFCou: FMM=F IPFlag=           0 FMFlag=      100000 FMFlg1=           0
         NFxFlg=           0 DoJE=T BraDBF=F KetDBF=T FulRan=T
         wScrn=  0.000000 ICntrl=       500 IOpCl=  0 I1Cent=   200000004 NGrid=           0
         NMat0=    1 NMatS0=      1 NMatT0=    0 NMatD0=    1 NMtDS0=    0 NMtDT0=    0
 Petite list used in FoFCou.
 Keep R1 ints in memory in canonical form, NReq=152074523.
 Requested convergence on RMS density matrix=1.00D-08 within 128 cycles.
 Requested convergence on MAX density matrix=1.00D-06.
 Requested convergence on             energy=1.00D-06.
 No special actions if energy rises.
 SCF Done:  E(RMN15) =  -363.382243533     A.U. after   13 cycles
            NFock= 13  Conv=0.66D-08     -V/T= 2.0164
 DoSCS=F DFT=T ScalE2(SS,OS)=  1.000000  1.000000
 ExpMin= 4.38D-02 ExpMax= 4.17D+03 ExpMxC= 6.27D+02 IAcc=3 IRadAn=         5 AccDes= 0.00D+00
 HarFok:  IExCor=  205 AccDes= 0.00D+00 IRadAn=         5 IDoV=-2 UseB2=F ITyADJ=14
 ICtDFT= 12500011 ScaDFX=  1.000000  1.000000  1.000000  1.000000
 Range of M.O.s used for correlation:    10   185
 NBasis=   185 NAE=    31 NBE=    31 NFC=     9 NFV=     0
 NROrb=    176 NOA=    22 NOB=    22 NVA=   154 NVB=   154

 **** Warning!!: The largest alpha MO coefficient is  0.16276774D+03

 Orbital symmetries:
       Occupied  (A) (A) (A) (A) (A) (A) (A) (A) (A) (A) (A) (A)
                 (A) (A) (A) (A) (A) (A) (A) (A) (A) (A) (A) (A)
                 (A) (A) (A) (A) (A) (A) (A)
       Virtual   (A) (A) (A) (A) (A) (A) (A) (A) (A) (A) (A) (A)
                 (A) (A) (A) (A) (A) (A) (A) (A) (A) (A) (A) (A)
                 (A) (A) (A) (A) (A) (A) (A) (A) (A) (A) (A) (A)
                 (A) (A) (A) (A) (A) (A) (A) (A) (A) (A) (A) (A)
                 (A) (A) (A) (A) (A) (A) (A) (A) (A) (A) (A) (A)
                 (A) (A) (A) (A) (A) (A) (A) (A) (A) (A) (A) (A)
                 (A) (A) (A) (A) (A) (A) (A) (A) (A) (A) (A) (A)
                 (A) (A) (A) (A) (A) (A) (A) (A) (A) (A) (A) (A)
                 (A) (A) (A) (A) (A) (A) (A) (A) (A) (A) (A) (A)
                 (A) (A) (A) (A) (A) (A) (A) (A) (A) (A) (A) (A)
                 (A) (A) (A) (A) (A) (A) (A) (A) (A) (A) (A) (A)
                 (A) (A) (A) (A) (A) (A) (A) (A) (A) (A) (A) (A)
                 (A) (A) (A) (A) (A) (A) (A) (A) (A) (A)
 Generating guess from densities on rwf.
 Convergence on wavefunction:    0.000001000000000
 Iteration     1 Dimension    12 NMult     0 NNew     12
 CISAX will form    12 AO SS matrices at one time.
 New state      1 was old state      2
 New state      2 was old state      1
 New state      3 was old state      4
 New state      4 was old state      3
 New state      5 was old state      6
 New state      6 was old state      5
 Iteration     2 Dimension    24 NMult    12 NNew     12
 New state      3 was old state      4
 New state      4 was old state      3
 Iteration     3 Dimension    36 NMult    24 NNew     12
 Iteration     4 Dimension    48 NMult    36 NNew     12
 Iteration     5 Dimension    60 NMult    48 NNew     12
 Iteration     6 Dimension    72 NMult    60 NNew     12
 Iteration     7 Dimension    84 NMult    72 NNew     12
 Iteration     8 Dimension    96 NMult    84 NNew     12
 Iteration     9 Dimension   108 NMult    96 NNew     12
 Iteration    10 Dimension   116 NMult   108 NNew      8
 Iteration    11 Dimension   124 NMult   116 NNew      8
 Iteration    12 Dimension   128 NMult   124 NNew      4
 Iteration    13 Dimension   132 NMult   128 NNew      4
 Iteration    14 Dimension   134 NMult   132 NNew      2
 Iteration    15 Dimension   136 NMult   134 NNew      2
 Iteration    16 Dimension   138 NMult   136 NNew      2
 ***********************************************************************
 Excited states from <AA,BB:AA,BB> singles matrix:
 ***********************************************************************
 
 Ground to excited state transition densities written to RWF  633
 Ground to excited state transition electric dipole moments (Au):
       state          X           Y           Z        Dip. S.      Osc.
         1         0.0917      0.4213      0.0000      0.1859      0.0220
         2        -0.9631      0.5448     -0.0000      1.2243      0.1411
         3         0.0007      0.0002     -0.2060      0.0425      0.0060
         4        -1.8296     -0.7655     -0.0001      3.9334      0.5751
         5        -0.0007     -0.0001     -0.0387      0.0015      0.0002
         6         0.0062     -0.0017      0.1864      0.0348      0.0054
 Ground to excited state transition velocity dipole moments (Au):
       state          X           Y           Z        Dip. S.      Osc.
         1        -0.0177     -0.0816     -0.0000      0.0070      0.0262
         2         0.1589     -0.1050      0.0000      0.0363      0.1399
         3        -0.0002     -0.0000      0.0345      0.0012      0.0038
         4         0.4031      0.1731      0.0000      0.1924      0.5849
         5         0.0002      0.0000      0.0123      0.0002      0.0004
         6        -0.0015      0.0004     -0.0458      0.0021      0.0060
 Ground to excited state transition magnetic dipole moments (Au):
       state          X           Y           Z
         1         0.0001      0.0001      0.0515
         2         0.0000      0.0000      0.1373
         3         0.1354     -0.1904      0.0004
         4         0.0001     -0.0003     -0.7626
         5         0.4398     -0.3596      0.0001
         6         0.1893      0.2201     -0.0003
 Ground to excited state transition velocity quadrupole moments (Au):
       state          XX          YY          ZZ          XY          XZ          YZ
         1         0.0744      0.0308     -0.0136     -0.0057     -0.0000      0.0000
         2         0.2068     -0.1779      0.0101      0.0334      0.0000     -0.0000
         3        -0.0002      0.0001      0.0001      0.0003      0.1408      0.0482
         4         0.2039     -0.1445     -0.0187     -0.4975      0.0002      0.0000
         5        -0.0002     -0.0000     -0.0000      0.0001      0.3244      0.3307
         6         0.0030     -0.0005      0.0004     -0.0014     -0.1174      0.1486
 <0|del|b> * <b|rxdel|0> + <0|del|b> * <b|delr+rdel|0>
 Rotatory Strengths (R) in cgs (10**-40 erg-esu-cm/Gauss)
       state          XX          YY          ZZ    R(velocity)    E-M Angle
         1        -0.0155     -0.0046     -0.0145     -0.0115       90.00
         2         0.0002      0.0009      0.0100      0.0037       90.00
         3         0.0657     -0.0374     -0.0183      0.0033       90.00
         4        -0.2021      0.0627     -0.0128     -0.0507       90.00
         5        -0.0209      0.2062      0.0279      0.0710       90.00
         6         0.3315     -0.8160     -0.0243     -0.1696       90.73
 1/2[<0|r|b>*<b|rxdel|0> + (<0|rxdel|b>*<b|r|0>)*]
 Rotatory Strengths (R) in cgs (10**-40 erg-esu-cm/Gauss)
       state          XX          YY          ZZ     R(length)
         1        -0.0065     -0.0242     -0.0006     -0.0104
         2         0.0183     -0.0074      0.0031      0.0047
         3        -0.0703      0.0278      0.0625      0.0067
         4         0.0952     -0.1689     -0.0777     -0.0505
         5         0.2298     -0.0248      0.0027      0.0692
         6        -0.8321      0.2665      0.0432     -0.1741
  1/2[<0|del|b>*<b|r|0> + (<0|r|b>*<b|del|0>)*] (Au)
       state          X           Y           Z        Dip. S.   Osc.(frdel)
         1        -0.0016     -0.0344     -0.0000      0.0360      0.0240
         2        -0.1530     -0.0572     -0.0000      0.2103      0.1402
         3        -0.0000     -0.0000     -0.0071      0.0071      0.0047
         4        -0.7374     -0.1325     -0.0000      0.8699      0.5800
         5        -0.0000     -0.0000     -0.0005      0.0005      0.0003
         6        -0.0000     -0.0000     -0.0085      0.0085      0.0057

 Excitation energies and oscillator strengths:
 
 Excited State   1:      Singlet-A      4.8384 eV  256.25 nm  f=0.0220  <S**2>=0.000
      30 -> 32        -0.56737
      31 -> 32         0.15856
      31 -> 33         0.37127
 
 Excited State   2:      Singlet-A      4.7056 eV  263.48 nm  f=0.1411  <S**2>=0.000
      30 -> 32         0.10173
      30 -> 33         0.16415
      31 -> 32         0.65893
      31 -> 33        -0.14171
 This state for optimization and/or second-order correction.
 Total Energy, E(TD-HF/TD-DFT) =  -363.209317139    
 Copying the excited state density for this state as the 1-particle RhoCI density.
 
 Excited State   3:      Singlet-A      5.7425 eV  215.90 nm  f=0.0060  <S**2>=0.000
      31 -> 34         0.68765
 
 Excited State   4:      Singlet-A      5.9679 eV  207.75 nm  f=0.5751  <S**2>=0.000
      30 -> 32         0.36644
      31 -> 33         0.56822
      31 -> 37        -0.12279
 
 Excited State   5:      Singlet-A      6.3081 eV  196.55 nm  f=0.0002  <S**2>=0.000
      30 -> 34         0.27288
      31 -> 35         0.62159
 
 Excited State   6:      Singlet-A      6.3921 eV  193.97 nm  f=0.0054  <S**2>=0.000
      30 -> 34        -0.56713
      31 -> 35         0.27088
      31 -> 36         0.24644
 SavETr:  write IOETrn=   770 NScale= 10 NData=  16 NLR=1 NState=    6 LETran=     118.
          IDoAtm=1111111111111111
          Differentiating once with respect to electric field.
                with respect to dipole field.
          Differentiating once with respect to nuclear coordinates.
 Keep R1 ints in memory in canonical form, NReq=152086915.
          There are     1 degrees of freedom in the 1st order CPHF.  IDoFFX=0 NUNeed=     1.
 LinEq1:  Iter=  0 NonCon=     1 RMS=9.41D-03 Max=2.69D-01 NDo=     1
 AX will form     1 AO Fock derivatives at one time.
 LinEq1:  Iter=  1 NonCon=     1 RMS=3.50D-03 Max=9.53D-02 NDo=     1
 LinEq1:  Iter=  2 NonCon=     1 RMS=2.23D-03 Max=7.07D-02 NDo=     1
 LinEq1:  Iter=  3 NonCon=     1 RMS=1.09D-03 Max=2.09D-02 NDo=     1
 LinEq1:  Iter=  4 NonCon=     1 RMS=5.13D-04 Max=1.44D-02 NDo=     1
 LinEq1:  Iter=  5 NonCon=     1 RMS=2.69D-04 Max=5.94D-03 NDo=     1
 LinEq1:  Iter=  6 NonCon=     1 RMS=1.40D-04 Max=2.67D-03 NDo=     1
 LinEq1:  Iter=  7 NonCon=     1 RMS=8.00D-05 Max=1.97D-03 NDo=     1
 LinEq1:  Iter=  8 NonCon=     1 RMS=3.04D-05 Max=5.89D-04 NDo=     1
 LinEq1:  Iter=  9 NonCon=     1 RMS=1.78D-05 Max=4.04D-04 NDo=     1
 LinEq1:  Iter= 10 NonCon=     1 RMS=8.43D-06 Max=1.61D-04 NDo=     1
 LinEq1:  Iter= 11 NonCon=     1 RMS=4.00D-06 Max=9.86D-05 NDo=     1
 LinEq1:  Iter= 12 NonCon=     1 RMS=1.93D-06 Max=3.93D-05 NDo=     1
 LinEq1:  Iter= 13 NonCon=     1 RMS=9.72D-07 Max=1.49D-05 NDo=     1
 LinEq1:  Iter= 14 NonCon=     1 RMS=3.20D-07 Max=6.51D-06 NDo=     1
 LinEq1:  Iter= 15 NonCon=     1 RMS=1.08D-07 Max=2.88D-06 NDo=     1
 LinEq1:  Iter= 16 NonCon=     1 RMS=6.37D-08 Max=1.14D-06 NDo=     1
 LinEq1:  Iter= 17 NonCon=     1 RMS=1.29D-08 Max=1.74D-07 NDo=     1
 LinEq1:  Iter= 18 NonCon=     1 RMS=3.16D-09 Max=5.66D-08 NDo=     1
 LinEq1:  Iter= 19 NonCon=     1 RMS=6.00D-10 Max=8.60D-09 NDo=     1
 LinEq1:  Iter= 20 NonCon=     1 RMS=1.68D-10 Max=2.34D-09 NDo=     1
 LinEq1:  Iter= 21 NonCon=     1 RMS=9.36D-11 Max=1.26D-09 NDo=     1
 LinEq1:  Iter= 22 NonCon=     0 RMS=1.96D-11 Max=2.30D-10 NDo=     1
 Linear equations converged to 1.000D-10 1.000D-09 after    22 iterations.
 End of Minotr F.D. properties file   721 does not exist.
 End of Minotr F.D. properties file   722 does not exist.
 End of Minotr F.D. properties file   788 does not exist.
 Calling FoFJK, ICntrl=  10005127 FMM=F ISym2X=0 I1Cent= 0 IOpClX= 0 NMat=1 NMatS=1 NMatT=0.
 ***** Axes restored to original set *****
 -------------------------------------------------------------------
 Center     Atomic                   Forces (Hartrees/Bohr)
 Number     Number              X              Y              Z
 -------------------------------------------------------------------
      1        6          -0.000005904   -0.024884856   -0.000000078
      2        6          -0.011512725    0.033147189    0.000000332
      3        6           0.021394005   -0.006490857    0.000001474
      4        6          -0.022956060    0.016823683   -0.000002379
      5        6           0.010773066   -0.023378906   -0.000000445
      6        6          -0.005082557    0.006162073   -0.000001296
      7        7           0.016735926    0.024267574    0.000023407
      8        6          -0.022516775    0.009682899   -0.000006990
      9        6           0.012147258   -0.034630423   -0.000005843
     10        1           0.000167840   -0.000933403   -0.000011597
     11        1           0.001592069   -0.000113673    0.000001326
     12        1          -0.000498241    0.000746269    0.000002034
     13        1          -0.000248211    0.000107502   -0.000000346
     14        1          -0.000408051    0.000740975   -0.000001045
     15        1          -0.000029045   -0.000608640    0.000000284
     16        1           0.000447404   -0.000637406    0.000001163
 -------------------------------------------------------------------
 Cartesian Forces:  Max     0.034630423 RMS     0.011822854

 GradGradGradGradGradGradGradGradGradGradGradGradGradGradGradGradGradGrad
 Berny optimization.
 Using GEDIIS/GDIIS optimizer.
 FormGI is forming the generalized inverse of G from B-inverse, IUseBI=4.
 Internal  Forces:  Max     0.024567252 RMS     0.005506676
 Search for a local minimum.
 Step number   2 out of a maximum of   94
 All quantities printed in internal units (Hartrees-Bohrs-Radians)
 Mixed Optimization -- RFO/linear search
 Update second derivatives using D2CorX and points    1    2
 DE= -8.57D-03 DEPred=-7.31D-03 R= 1.17D+00
 TightC=F SS=  1.41D+00  RLast= 1.79D-01 DXNew= 5.0454D-01 5.3673D-01
 Trust test= 1.17D+00 RLast= 1.79D-01 DXMaxT set to 5.05D-01
 ITU=  1  0
 Use linear search instead of GDIIS.
     Eigenvalues ---    0.01854   0.01932   0.01986   0.02011   0.02071
     Eigenvalues ---    0.02113   0.02148   0.02156   0.02171   0.02209
     Eigenvalues ---    0.02233   0.02248   0.02339   0.15861   0.16000
     Eigenvalues ---    0.16000   0.16000   0.16000   0.16000   0.16017
     Eigenvalues ---    0.17730   0.22015   0.22966   0.24359   0.24667
     Eigenvalues ---    0.30196   0.35715   0.35737   0.35786   0.35892
     Eigenvalues ---    0.36424   0.36549   0.37847   0.38867   0.43073
     Eigenvalues ---    0.44743   0.46544   0.46825   0.47190   0.47656
     Eigenvalues ---    0.49497   0.82125
 RFO step:  Lambda=-6.56309385D-03 EMin= 1.85403744D-02
 Quartic linear search produced a step of  0.06449.
 Iteration  1 RMS(Cart)=  0.01917744 RMS(Int)=  0.00017911
 Iteration  2 RMS(Cart)=  0.00019730 RMS(Int)=  0.00008050
 Iteration  3 RMS(Cart)=  0.00000003 RMS(Int)=  0.00008050
 Variable       Old X    -DE/DX   Delta X   Delta X   Delta X     New X
                                 (Linear)    (Quad)   (Total)
    R1        2.69639  -0.02457   0.00264  -0.04113  -0.03851   2.65788
    R2        2.67554   0.00063   0.00404   0.02557   0.02958   2.70512
    R3        2.05408  -0.00025   0.00064   0.00290   0.00354   2.05762
    R4        2.68716   0.01445   0.00462   0.05852   0.06315   2.75030
    R5        2.05518   0.00016   0.00071   0.00455   0.00526   2.06044
    R6        2.67010  -0.00943   0.00235  -0.00771  -0.00534   2.66475
    R7        2.05473  -0.00075   0.00061   0.00129   0.00190   2.05663
    R8        2.73808  -0.01997   0.00371  -0.02989  -0.02627   2.71181
    R9        2.62526   0.01170   0.00155   0.03202   0.03373   2.65899
   R10        2.70205   0.00644   0.00350   0.03514   0.03863   2.74068
   R11        2.67233  -0.00484  -0.00233  -0.02521  -0.02776   2.64457
   R12        2.05432  -0.00065   0.00058   0.00145   0.00204   2.05636
   R13        2.59663  -0.02133  -0.00059  -0.04775  -0.04814   2.54850
   R14        1.91257   0.00094   0.00111   0.00858   0.00968   1.92225
   R15        2.65087   0.01805   0.00465   0.06588   0.07050   2.72138
   R16        2.04586   0.00044   0.00075   0.00557   0.00632   2.05218
   R17        2.04642  -0.00057   0.00078   0.00285   0.00363   2.05005
    A1        2.11791  -0.00026   0.00024   0.00146   0.00163   2.11954
    A2        2.07476  -0.00044  -0.00033  -0.00538  -0.00568   2.06908
    A3        2.09052   0.00070   0.00009   0.00392   0.00405   2.09457
    A4        2.13854   0.00096   0.00150   0.01327   0.01475   2.15329
    A5        2.07256  -0.00070  -0.00072  -0.00787  -0.00857   2.06399
    A6        2.07209  -0.00026  -0.00079  -0.00540  -0.00618   2.06591
    A7        2.02440  -0.00205  -0.00174  -0.02014  -0.02186   2.00254
    A8        2.12929   0.00062   0.00107   0.00849   0.00955   2.13884
    A9        2.12949   0.00143   0.00067   0.01165   0.01231   2.14180
   A10        2.13946   0.00216   0.00036   0.01191   0.01226   2.15172
   A11        2.25996  -0.00141  -0.00122  -0.00769  -0.00895   2.25101
   A12        1.88377  -0.00076   0.00087  -0.00422  -0.00331   1.88046
   A13        2.09679   0.00076   0.00155   0.01113   0.01281   2.10960
   A14        1.84661   0.00094  -0.00120  -0.00470  -0.00619   1.84042
   A15        2.33978  -0.00170  -0.00035  -0.00643  -0.00662   2.33316
   A16        2.04927  -0.00158  -0.00191  -0.01762  -0.01959   2.02968
   A17        2.12100   0.00123   0.00116   0.01261   0.01380   2.13480
   A18        2.11291   0.00035   0.00075   0.00500   0.00579   2.11870
   A19        1.90115   0.00717  -0.00040   0.02894   0.02886   1.93001
   A20        2.19465  -0.00371   0.00028  -0.01486  -0.01474   2.17991
   A21        2.18739  -0.00346   0.00012  -0.01408  -0.01412   2.17327
   A22        1.88915   0.00248   0.00126   0.02316   0.02419   1.91334
   A23        2.20539   0.00033  -0.00076  -0.00228  -0.00293   2.20247
   A24        2.18864  -0.00281  -0.00050  -0.02088  -0.02126   2.16738
   A25        1.90409  -0.00983  -0.00052  -0.04319  -0.04355   1.86055
   A26        2.10555   0.00562   0.00020   0.02579   0.02591   2.13146
   A27        2.27354   0.00420   0.00032   0.01740   0.01764   2.29118
    D1       -0.00001   0.00000   0.00000   0.00001   0.00001   0.00000
    D2        3.14158   0.00000  -0.00000   0.00002   0.00002  -3.14158
    D3        3.14159   0.00000   0.00000  -0.00000   0.00000   3.14159
    D4       -0.00000   0.00000   0.00000   0.00001   0.00001   0.00001
    D5        0.00004  -0.00000   0.00000  -0.00002  -0.00001   0.00003
    D6       -3.14157  -0.00000   0.00001  -0.00001  -0.00001  -3.14158
    D7       -3.14156  -0.00000   0.00000  -0.00000  -0.00000  -3.14156
    D8        0.00002   0.00000   0.00000   0.00000   0.00000   0.00002
    D9       -0.00004   0.00000  -0.00000   0.00002   0.00001  -0.00003
   D10       -3.14156   0.00000  -0.00000   0.00001   0.00001  -3.14155
   D11        3.14155   0.00000  -0.00000   0.00001   0.00001   3.14155
   D12        0.00003  -0.00000   0.00000  -0.00000  -0.00000   0.00003
   D13        0.00007  -0.00000   0.00000  -0.00004  -0.00004   0.00003
   D14       -3.14144  -0.00000  -0.00000  -0.00004  -0.00004  -3.14148
   D15        3.14159  -0.00000   0.00000  -0.00004  -0.00003   3.14155
   D16        0.00008  -0.00000  -0.00000  -0.00003  -0.00003   0.00005
   D17       -0.00004   0.00000  -0.00000   0.00004   0.00004   0.00000
   D18        3.14155   0.00000  -0.00001   0.00007   0.00007  -3.14157
   D19        3.14148   0.00000   0.00000   0.00003   0.00004   3.14152
   D20       -0.00011   0.00000  -0.00000   0.00007   0.00006  -0.00005
   D21       -3.14148  -0.00000  -0.00002  -0.00001  -0.00003  -3.14151
   D22       -0.00106   0.00001   0.00000   0.00021   0.00021  -0.00085
   D23        0.00018  -0.00000  -0.00002  -0.00001  -0.00003   0.00016
   D24        3.14060   0.00001  -0.00000   0.00021   0.00021   3.14082
   D25       -0.00002  -0.00000  -0.00000  -0.00001  -0.00001  -0.00003
   D26       -3.14159  -0.00000  -0.00001  -0.00002  -0.00002   3.14158
   D27        3.14158  -0.00000   0.00001  -0.00005  -0.00005   3.14153
   D28        0.00000  -0.00000   0.00000  -0.00006  -0.00005  -0.00005
   D29       -0.00001  -0.00000   0.00003  -0.00009  -0.00007  -0.00007
   D30        3.14152   0.00000   0.00001  -0.00002  -0.00001   3.14151
   D31        3.14159   0.00000   0.00002  -0.00005  -0.00004   3.14155
   D32       -0.00007   0.00000  -0.00000   0.00002   0.00002  -0.00005
   D33       -0.00019   0.00000   0.00004  -0.00005  -0.00001  -0.00020
   D34        3.14148   0.00000   0.00001   0.00002   0.00003   3.14151
   D35       -3.14062  -0.00000   0.00002  -0.00026  -0.00025  -3.14086
   D36        0.00106  -0.00001  -0.00001  -0.00020  -0.00021   0.00085
   D37        0.00012  -0.00000  -0.00004   0.00009   0.00005   0.00017
   D38       -3.14156  -0.00000  -0.00001   0.00002   0.00001  -3.14155
   D39       -3.14141  -0.00000  -0.00002   0.00002  -0.00001  -3.14141
   D40        0.00009  -0.00000   0.00001  -0.00006  -0.00005   0.00005
         Item               Value     Threshold  Converged?
 Maximum Force            0.024567     0.000450     NO 
 RMS     Force            0.005507     0.000300     NO 
 Maximum Displacement     0.059666     0.001800     NO 
 RMS     Displacement     0.019169     0.001200     NO 
 Predicted change in Energy=-3.589705D-03
 GradGradGradGradGradGradGradGradGradGradGradGradGradGradGradGradGradGrad

                          Input orientation:                          
 ---------------------------------------------------------------------
 Center     Atomic      Atomic             Coordinates (Angstroms)
 Number     Number       Type             X           Y           Z
 ---------------------------------------------------------------------
      1          6           0       -2.199581    0.708077    0.000015
      2          6           0       -2.150531   -0.697556    0.000022
[...]
 ! D9    D(1,2,3,4)              0.0021         -DE/DX =    0.0                 !
 ! D10   D(1,2,3,14)          -179.9975         -DE/DX =    0.0                 !
 ! D11   D(13,2,3,4)           180.0011         -DE/DX =    0.0                 !
 ! D12   D(13,2,3,14)            0.0015         -DE/DX =    0.0                 !
 ! D13   D(2,3,4,5)             -0.0038         -DE/DX =    0.0                 !
 ! D14   D(2,3,4,7)           -179.9988         -DE/DX =    0.0                 !
 ! D15   D(14,3,4,5)           179.9958         -DE/DX =    0.0                 !
 ! D16   D(14,3,4,7)             0.0008         -DE/DX =    0.0                 !
 ! D17   D(3,4,5,6)              0.0032         -DE/DX =    0.0                 !
 ! D18   D(3,4,5,8)           -179.9938         -DE/DX =    0.0                 !
 ! D19   D(7,4,5,6)            179.9992         -DE/DX =    0.0                 !
 ! D20   D(7,4,5,8)              0.0022         -DE/DX =    0.0                 !
 ! D21   D(3,4,7,9)            180.0049         -DE/DX =    0.0                 !
 ! D22   D(3,4,7,10)            -0.0085         -DE/DX =    0.0                 !
 ! D23   D(5,4,7,9)              0.0092         -DE/DX =    0.0                 !
 ! D24   D(5,4,7,10)           179.9958         -DE/DX =    0.0                 !
 ! D25   D(4,5,6,1)             -0.0007         -DE/DX =    0.0                 !
 ! D26   D(4,5,6,16)           179.998          -DE/DX =    0.0                 !
 ! D27   D(8,5,6,1)            179.9954         -DE/DX =    0.0                 !
 ! D28   D(8,5,6,16)            -0.0059         -DE/DX =    0.0                 !
 ! D29   D(4,5,8,9)             -0.0119         -DE/DX =    0.0                 !
 ! D30   D(4,5,8,11)           179.9996         -DE/DX =    0.0                 !
 ! D31   D(6,5,8,9)           -180.0084         -DE/DX =    0.0                 !
 ! D32   D(6,5,8,11)             0.0031         -DE/DX =    0.0                 !
 ! D33   D(4,7,9,8)             -0.0164         -DE/DX =    0.0                 !
 ! D34   D(4,7,9,12)          -180.0079         -DE/DX =    0.0                 !
 ! D35   D(10,7,9,8)          -180.0028         -DE/DX =    0.0                 !
 ! D36   D(10,7,9,12)            0.0057         -DE/DX =    0.0                 !
 ! D37   D(5,8,9,7)              0.0174         -DE/DX =    0.0                 !
 ! D38   D(5,8,9,12)           180.0079         -DE/DX =    0.0                 !
 ! D39   D(11,8,9,7)           180.0063         -DE/DX =    0.0                 !
 ! D40   D(11,8,9,12)           -0.0032         -DE/DX =    0.0                 !
 --------------------------------------------------------------------------------
 GradGradGradGradGradGradGradGradGradGradGradGradGradGradGradGradGradGrad

                          Input orientation:                          
 ---------------------------------------------------------------------
 Center     Atomic      Atomic             Coordinates (Angstroms)
 Number     Number       Type             X           Y           Z
 ---------------------------------------------------------------------
      1          6           0       -2.185140    0.687164    0.000028
      2          6           0       -2.155470   -0.696147    0.000059
      3          6           0       -0.909526   -1.444171    0.000052
      4          6           0        0.245161   -0.658157    0.000058
      5          6           0        0.245932    0.750768   -0.000007
      6          6           0       -0.993002    1.470205   -0.000015
      7          7           0        1.593602   -1.065977    0.000031
      8          6           0        1.601498    1.160711   -0.000122
      9          6           0        2.428615   -0.009479    0.000155
     10          1           0        1.889356   -2.036974    0.000128
     11          1           0        1.977782    2.176722   -0.000202
     12          1           0        3.504213   -0.115092    0.000283
     13          1           0       -3.090446   -1.251914    0.000073
     14          1           0       -0.891011   -2.529559    0.000036
     15          1           0       -3.147821    1.193583    0.000011
     16          1           0       -1.016841    2.555764   -0.000031
 ---------------------------------------------------------------------
                    Distance matrix (angstroms):
                    1          2          3          4          5
     1  C    0.000000
     2  C    1.383629   0.000000
     3  C    2.483904   1.453244   0.000000
     4  C    2.777814   2.400932   1.396825   0.000000
     5  C    2.431903   2.803622   2.480492   1.408926   0.000000
     6  C    1.426306   2.458539   2.915572   2.462311   1.432671
     7  N    4.165620   3.767270   2.531538   1.408762   2.262030
     8  C    3.816133   4.190791   3.618100   2.268905   1.416197
     9  C    4.666052   4.635230   3.633391   2.277774   2.311295
    10  H    4.901269   4.261271   2.860971   2.145812   3.236101
    11  H    4.421391   5.033602   4.631135   3.322426   2.243357
    12  H    5.745638   5.689433   4.609506   3.303989   3.371367
    13  H    2.140001   1.087684   2.189378   3.388041   3.891292
    14  H    3.467286   2.227163   1.085546   2.189300   3.471770
    15  H    1.087757   2.134441   3.459438   3.865394   3.422520
    16  H    2.203767   3.445490   4.001374   3.452817   2.202863
                    6          7          8          9         10
     6  C    0.000000
     7  N    3.622532   0.000000
     8  C    2.612894   2.226701   0.000000
     9  C    3.727858   1.346638   1.432992   0.000000
    10  H    4.539636   1.015040   3.210615   2.097984   0.000000
    11  H    3.053641   3.265377   1.083452   2.232202   4.214624
    12  H    4.768449   2.134155   2.290851   1.080771   2.510259
    13  H    3.436453   4.687737   5.275898   5.657180   5.041304
    14  H    4.001065   2.883640   4.453167   4.167820   2.823664
    15  H    2.172502   5.252305   4.749433   5.704735   5.984116
    16  H    1.085820   4.464462   2.966796   4.295538   5.435000
                   11         12         13         14         15
    11  H    0.000000
    12  H    2.753616   0.000000
    13  H    6.119026   6.691928   0.000000
    14  H    5.511720   5.014744   2.543597   0.000000
    15  H    5.219039   6.779542   2.446170   4.353731   0.000000
    16  H    3.018517   5.251039   4.335695   5.086880   2.529152
                   16
    16  H    0.000000
 Stoichiometry    C8H7N
 Framework group  C1[X(C8H7N)]
 Deg. of freedom    42
 Full point group                 C1      NOp   1
 Largest Abelian subgroup         C1      NOp   1
 Largest concise Abelian subgroup C1      NOp   1
                         Standard orientation:                         
 ---------------------------------------------------------------------
 Center     Atomic      Atomic             Coordinates (Angstroms)
 Number     Number       Type             X           Y           Z
 ---------------------------------------------------------------------
      1          6           0       -2.197954    0.646022   -0.000001
      2          6           0       -2.143305   -0.736527    0.000030
      3          6           0       -0.884054   -1.461926    0.000023
      4          6           0        0.256249   -0.655185    0.000029
      5          6           0        0.231572    0.753524   -0.000035
      6          6           0       -1.020153    1.450467   -0.000044
      7          7           0        1.611835   -1.038584    0.000003
      8          6           0        1.579513    1.187883   -0.000151
      9          6           0        2.427630    0.032823    0.000127
     10          1           0        1.925078   -2.004081    0.000099
     11          1           0        1.937385    2.210525   -0.000230
     12          1           0        3.504961   -0.053345    0.000254
     13          1           0       -3.068091   -1.309091    0.000045
     14          1           0       -0.845939   -2.546803    0.000008
     15          1           0       -3.169625    1.134971   -0.000018
     16          1           0       -1.063596    2.535419   -0.000060
 ---------------------------------------------------------------------
 Rotational constants (GHZ):           3.8448819           1.6053882           1.1325178

 **********************************************************************

            Population analysis using the CI Density.

 **********************************************************************

 Orbital symmetries:
       Occupied  (A) (A) (A) (A) (A) (A) (A) (A) (A) (A) (A) (A)
                 (A) (A) (A) (A) (A) (A) (A) (A) (A) (A) (A) (A)
                 (A) (A) (A) (A) (A) (A) (A)
       Virtual   (A) (A) (A) (A) (A) (A) (A) (A) (A) (A) (A) (A)
                 (A) (A) (A) (A) (A) (A) (A) (A) (A) (A) (A) (A)
                 (A) (A) (A) (A) (A) (A) (A) (A) (A) (A) (A) (A)
                 (A) (A) (A) (A) (A) (A) (A) (A) (A) (A) (A) (A)
                 (A) (A) (A) (A) (A) (A) (A) (A) (A) (A) (A) (A)
                 (A) (A) (A) (A) (A) (A) (A) (A) (A) (A) (A) (A)
                 (A) (A) (A) (A) (A) (A) (A) (A) (A) (A) (A) (A)
                 (A) (A) (A) (A) (A) (A) (A) (A) (A) (A) (A) (A)
                 (A) (A) (A) (A) (A) (A) (A) (A) (A) (A) (A) (A)
                 (A) (A) (A) (A) (A) (A) (A) (A) (A) (A) (A) (A)
                 (A) (A) (A) (A) (A) (A) (A) (A) (A) (A) (A) (A)
                 (A) (A) (A) (A) (A) (A) (A) (A) (A) (A) (A) (A)
                 (A) (A) (A) (A) (A) (A) (A) (A) (A) (A)
 The electronic state is 1-A.
 Alpha  occ. eigenvalues --  -14.17658 -10.11397 -10.10782 -10.08371 -10.07727
 Alpha  occ. eigenvalues --  -10.07431 -10.07238 -10.06956 -10.06130  -1.02750
 Alpha  occ. eigenvalues --   -0.88087  -0.81881  -0.78137  -0.74783  -0.66973
 Alpha  occ. eigenvalues --   -0.63673  -0.61739  -0.58236  -0.52267  -0.51297
 Alpha  occ. eigenvalues --   -0.47798  -0.47152  -0.47089  -0.44171  -0.43089
 Alpha  occ. eigenvalues --   -0.38592  -0.38263  -0.37702  -0.31111  -0.26576
 Alpha  occ. eigenvalues --   -0.22569
 Alpha virt. eigenvalues --   -0.00387   0.04457   0.04632   0.06256   0.07003
 Alpha virt. eigenvalues --    0.07581   0.08361   0.08600   0.09958   0.10826
 Alpha virt. eigenvalues --    0.11224   0.11270   0.13272   0.13563   0.14803
 Alpha virt. eigenvalues --    0.15283   0.15436   0.17523   0.18086   0.18307
 Alpha virt. eigenvalues --    0.19643   0.20482   0.20888   0.21136   0.21262
 Alpha virt. eigenvalues --    0.21639   0.22654   0.23484   0.23826   0.23861
 Alpha virt. eigenvalues --    0.24009   0.24917   0.25975   0.26241   0.27281
 Alpha virt. eigenvalues --    0.27777   0.27936   0.28203   0.29251   0.30207
 Alpha virt. eigenvalues --    0.31109   0.31266   0.32123   0.33167   0.34129
 Alpha virt. eigenvalues --    0.34862   0.35828   0.37581   0.39257   0.39766
 Alpha virt. eigenvalues --    0.40366   0.43589   0.45640   0.48997   0.54400
 Alpha virt. eigenvalues --    0.60446   0.63695   0.69330   0.69717   0.72239
 Alpha virt. eigenvalues --    0.74213   0.74781   0.75288   0.75729   0.75912
 Alpha virt. eigenvalues --    0.77914   0.78359   0.79695   0.80731   0.81668
 Alpha virt. eigenvalues --    0.82830   0.87793   0.91107   0.92226   0.93188
 Alpha virt. eigenvalues --    0.96334   0.96893   0.97587   0.99138   1.00364
 Alpha virt. eigenvalues --    1.02091   1.05270   1.07014   1.08465   1.11357
 Alpha virt. eigenvalues --    1.12864   1.14225   1.18995   1.19533   1.22368
 Alpha virt. eigenvalues --    1.23797   1.24196   1.26098   1.32410   1.32923
 Alpha virt. eigenvalues --    1.34318   1.37088   1.40177   1.41171   1.44516
 Alpha virt. eigenvalues --    1.46174   1.47025   1.48117   1.48855   1.55513
 Alpha virt. eigenvalues --    1.58525   1.62876   1.77325   1.79708   1.85269
 Alpha virt. eigenvalues --    1.87747   1.89386   1.90228   1.95448   1.96688
 Alpha virt. eigenvalues --    1.97636   2.00005   2.03227   2.08699   2.11872
 Alpha virt. eigenvalues --    2.12322   2.15789   2.17393   2.19827   2.23333
 Alpha virt. eigenvalues --    2.23787   2.26385   2.31512   2.35135   2.40444
 Alpha virt. eigenvalues --    2.47556   2.49626   2.55237   2.57444   2.59399
 Alpha virt. eigenvalues --    2.59897   2.66054   2.73040   2.75651   2.77399
 Alpha virt. eigenvalues --    2.87473   2.90256   2.99415   3.13265   3.28872
 Alpha virt. eigenvalues --    4.09459   4.16625   4.20433   4.23698   4.27656
 Alpha virt. eigenvalues --    4.31944   4.38709   4.42648   4.66918
          Condensed to atoms (all electrons):
               1          2          3          4          5          6
     1  C    5.831472   0.061136   0.584762  -0.674019   0.230559  -0.475340
     2  C    0.061136   6.047633  -0.882828   0.833627  -0.570254   0.742711
     3  C    0.584762  -0.882828  13.601617  -3.669850  -2.716168  -2.327525
     4  C   -0.674019   0.833627  -3.669850  13.187776  -2.708891  -0.435822
     5  C    0.230559  -0.570254  -2.716168  -2.708891  14.361248  -0.991600
     6  C   -0.475340   0.742711  -2.327525  -0.435822  -0.991600  11.724179
     7  N    0.000676   0.003949  -0.304668  -0.144112   0.479578   0.047181
     8  C    0.192832  -0.260366   2.836946   0.782967  -5.188811  -2.538040
     9  C   -0.056218   0.029795  -0.993260  -0.448912   1.949105   0.629285
    10  H   -0.003550  -0.003710  -0.103379  -0.084316   0.156695   0.023265
    11  H    0.000531   0.000499   0.003769   0.057200  -0.101320  -0.018554
    12  H    0.000158   0.000211  -0.003027  -0.001245   0.040148  -0.009990
    13  H   -0.090160   0.424595  -0.116030   0.057907  -0.019229   0.049910
    14  H    0.052230  -0.071930   0.467843  -0.154963   0.035270  -0.029600
    15  H    0.433075  -0.088272   0.038305  -0.025254   0.056760  -0.108921
    16  H   -0.104170   0.044232  -0.057533   0.077037  -0.056278   0.476947
               7          8          9         10         11         12
     1  C    0.000676   0.192832  -0.056218  -0.003550   0.000531   0.000158
     2  C    0.003949  -0.260366   0.029795  -0.003710   0.000499   0.000211
     3  C   -0.304668   2.836946  -0.993260  -0.103379   0.003769  -0.003027
     4  C   -0.144112   0.782967  -0.448912  -0.084316   0.057200  -0.001245
     5  C    0.479578  -5.188811   1.949105   0.156695  -0.101320   0.040148
     6  C    0.047181  -2.538040   0.629285   0.023265  -0.018554  -0.009990
     7  N    7.103448  -0.407497   0.447187   0.278465   0.009838  -0.042301
     8  C   -0.407497  12.306195  -2.288657  -0.004212   0.440582  -0.109143
     9  C    0.447187  -2.288657   6.745412  -0.026379  -0.093013   0.439877
    10  H    0.278465  -0.004212  -0.026379   0.345689  -0.000077  -0.002673
    11  H    0.009838   0.440582  -0.093013  -0.000077   0.495265  -0.001005
    12  H   -0.042301  -0.109143   0.439877  -0.002673  -0.001005   0.475491
    13  H   -0.000281  -0.004711   0.001827  -0.000002   0.000000  -0.000000
    14  H   -0.000261  -0.018192   0.013853   0.001889   0.000002   0.000003
    15  H    0.000201  -0.002125  -0.000119  -0.000000  -0.000001  -0.000000
    16  H   -0.000900  -0.090607   0.005552   0.000003   0.001498  -0.000001
              13         14         15         16
     1  C   -0.090160   0.052230   0.433075  -0.104170
     2  C    0.424595  -0.071930  -0.088272   0.044232
     3  C   -0.116030   0.467843   0.038305  -0.057533
     4  C    0.057907  -0.154963  -0.025254   0.077037
     5  C   -0.019229   0.035270   0.056760  -0.056278
     6  C    0.049910  -0.029600  -0.108921   0.476947
     7  N   -0.000281  -0.000261   0.000201  -0.000900
     8  C   -0.004711  -0.018192  -0.002125  -0.090607
     9  C    0.001827   0.013853  -0.000119   0.005552
    10  H   -0.000002   0.001889  -0.000000   0.000003
    11  H    0.000000   0.000002  -0.000001   0.001498
    12  H   -0.000000   0.000003  -0.000000  -0.000001
    13  H    0.545016  -0.003866  -0.005861  -0.000131
    14  H   -0.003866   0.543878  -0.000121   0.000012
    15  H   -0.005861  -0.000121   0.547735  -0.004048
    16  H   -0.000131   0.000012  -0.004048   0.541571
 Mulliken charges:
               1
     1  C    0.016026
     2  C   -0.311028
     3  C   -0.358975
     4  C   -0.649129
     5  C    1.043188
     6  C   -0.758085
     7  N   -0.470503
     8  C    0.352839
     9  C   -0.355335
    10  H    0.422292
    11  H    0.204786
    12  H    0.213497
    13  H    0.161014
    14  H    0.163952
    15  H    0.158646
    16  H    0.166815
 Sum of Mulliken charges =  -0.00000
 Mulliken charges with hydrogens summed into heavy atoms:
               1
     1  C    0.174672
     2  C   -0.150014
     3  C   -0.195023
     4  C   -0.649129
     5  C    1.043188
     6  C   -0.591270
     7  N   -0.048211
     8  C    0.557626
     9  C   -0.141839
 Electronic spatial extent (au):  <R**2>=           1026.1283
 Charge=             -0.0000 electrons
 Dipole moment (field-independent basis, Debye):
    X=              4.4063    Y=             -1.3712    Z=              0.0000  Tot=              4.6147
 Quadrupole moment (field-independent basis, Debye-Ang):
   XX=            -44.5394   YY=            -46.6697   ZZ=            -60.3211
   XY=             -2.4125   XZ=              0.0006   YZ=             -0.0006
 Traceless Quadrupole moment (field-independent basis, Debye-Ang):
   XX=              5.9707   YY=              3.8403   ZZ=             -9.8110
   XY=             -2.4125   XZ=              0.0006   YZ=             -0.0006
 Octapole moment (field-independent basis, Debye-Ang**2):
  XXX=             29.7458  YYY=             -9.7161  ZZZ=             -0.0011  XYY=             15.7218
  XXY=             -7.2978  XXZ=              0.0022  XZZ=              5.4789  YZZ=             -1.6774
  YYZ=             -0.0012  XYZ=             -0.0013
 Hexadecapole moment (field-independent basis, Debye-Ang**3):
 XXXX=           -845.3368 YYYY=           -400.4488 ZZZZ=            -83.4086 XXXY=            -18.9097
 XXXZ=              0.0064 YYYX=            -16.2732 YYYZ=              0.0044 ZZZX=             -0.0037
 ZZZY=              0.0090 XXYY=           -200.0138 XXZZ=           -199.2029 YYZZ=           -103.3785
 XXYZ=             -0.0006 YYXZ=             -0.0007 ZZXY=             -2.2152
 N-N= 3.973036278184D+02 E-N=-1.633964496953D+03  KE= 3.577314407419D+02
 Unable to Open any file for archive entry.
 1\1\GINC-EXP-4-41\FOpt\RMN15 TD-FC\6-31+G(d)\C8H7N1\CWALDT\23-Jun-2021
 \0\\# td= (nstates=6, root=2) MN15/6-31+G* Opt density=current\\FuncsM
 N15-V-2nd\\0,1\C,-2.185139568,0.6871636445,0.0000277809\C,-2.155470310
 5,-0.6961469363,0.0000588129\C,-0.9095260671,-1.44417099,0.0000517887\
 C,0.2451614704,-0.6581573154,0.0000577376\C,0.2459315493,0.7507682163,
 -0.0000067078\C,-0.9930015305,1.4702054133,-0.0000152439\N,1.593602455
 5,-1.0659769007,0.0000311166\C,1.6014981064,1.1607105771,-0.0001221862
 \C,2.4286152618,-0.0094791889,0.0001554211\H,1.8893555286,-2.036974208
 3,0.0001277285\H,1.9777823005,2.1767218873,-0.0002017881\H,3.504213424
 1,-0.115091599,0.0002826378\H,-3.0904459178,-1.2519144116,0.0000732507
 \H,-0.8910114957,-2.529559259,0.0000362786\H,-3.1478207789,1.193582981
 6,0.0000107372\H,-1.016841428,2.5557640893,-0.0000313646\\Version=AS64
 L-G16RevC.01\State=1-A\HF=-363.3758916\RMSD=8.401e-09\RMSF=6.823e-05\D
 ipole=1.7335705,-0.5394883,0.0000138\Quadrupole=4.4390673,2.8551744,-7
 .2942417,-1.7936301,0.0004361,-0.0004486\PG=C01 [X(C8H7N1)]\\@
 The archive entry for this job was punched.


 ART, GLORY, FREEDOM FAIL, BUT NATURE STILL IS FAIR.

                                           -- BYRON
 Job cpu time:       0 days  6 hours 36 minutes 10.7 seconds.
 Elapsed time:       0 days  1 hours 40 minutes 36.0 seconds.
 File lengths (MBytes):  RWF=    239 Int=      0 D2E=      0 Chk=     11 Scr=      1
 Normal termination of Gaussian 16 at Wed Jun 23 09:48:25 2021.
