 Entering Gaussian System, Link 0=/opt/gaussian/16.C.01/g16/g16
 Initial command:
 /opt/gaussian/16.C.01/g16/l1.exe "/scratch/scaparas/38458773/Gau-12102.inp" -scrdir="/scratch/scaparas/38458773/"
 Entering Link 1 = /opt/gaussian/16.C.01/g16/l1.exe PID=     12103.
  
 Copyright (c) 1988-2019, Gaussian, Inc.  All Rights Reserved.
  
 This is part of the Gaussian(R) 16 program.  It is based on
 the Gaussian(R) 09 system (copyright 2009, Gaussian, Inc.),
 the Gaussian(R) 03 system (copyright 2003, Gaussian, Inc.),
 the Gaussian(R) 98 system (copyright 1998, Gaussian, Inc.),
 the Gaussian(R) 94 system (copyright 1995, Gaussian, Inc.),
 the Gaussian 92(TM) system (copyright 1992, Gaussian, Inc.),
 the Gaussian 90(TM) system (copyright 1990, Gaussian, Inc.),
 the Gaussian 88(TM) system (copyright 1988, Gaussian, Inc.),
 the Gaussian 86(TM) system (copyright 1986, Carnegie Mellon
 University), and the Gaussian 82(TM) system (copyright 1983,
 Carnegie Mellon University). Gaussian is a federally registered
 trademark of Gaussian, Inc.
  
 This software contains proprietary and confidential information,
 including trade secrets, belonging to Gaussian, Inc.
  
 This software is provided under written license and may be
 used, copied, transmitted, or stored only in accord with that
 written license.
  
 The following legend is applicable only to US Government
 contracts under FAR:
  
                    RESTRICTED RIGHTS LEGEND
  
 Use, reproduction and disclosure by the US Government is
 subject to restrictions as set forth in subparagraphs (a)
 and (c) of the Commercial Computer Software - Restricted
 Rights clause in FAR 52.227-19.
  
 Gaussian, Inc.
 340 Quinnipiac St., Bldg. 40, Wallingford CT 06492
  
  
 ---------------------------------------------------------------
 Warning -- This program may not be used in any manner that
 competes with the business of Gaussian, Inc. or will provide
 assistance to any competitor of Gaussian, Inc.  The licensee
 of this program is prohibited from giving any competitor of
 Gaussian, Inc. access to this program.  By using this program,
 the user acknowledges that Gaussian, Inc. is engaged in the
 business of creating and licensing software in the field of
 computational chemistry and represents and warrants to the
 licensee that it is not a competitor of Gaussian, Inc. and that
 it will not use this program in any manner prohibited above.
 ---------------------------------------------------------------
  

 Cite this work as:
 Gaussian 16, Revision C.01,
 M. J. Frisch, G. W. Trucks, H. B. Schlegel, G. E. Scuseria, 
 M. A. Robb, J. R. Cheeseman, G. Scalmani, V. Barone, 
 G. A. Petersson, H. Nakatsuji, X. Li, M. Caricato, A. V. Marenich, 
 J. Bloino, B. G. Janesko, R. Gomperts, B. Mennucci, H. P. Hratchian, 
 J. V. Ortiz, A. F. Izmaylov, J. L. Sonnenberg, D. Williams-Young, 
 F. Ding, F. Lipparini, F. Egidi, J. Goings, B. Peng, A. Petrone, 
 T. Henderson, D. Ranasinghe, V. G. Zakrzewski, J. Gao, N. Rega, 
 G. Zheng, W. Liang, M. Hada, M. Ehara, K. Toyota, R. Fukuda, 
 J. Hasegawa, M. Ishida, T. Nakajima, Y. Honda, O. Kitao, H. Nakai, 
 T. Vreven, K. Throssell, J. A. Montgomery, Jr., J. E. Peralta, 
 F. Ogliaro, M. J. Bearpark, J. J. Heyd, E. N. Brothers, K. N. Kudin, 
 V. N. Staroverov, T. A. Keith, R. Kobayashi, J. Normand, 
 K. Raghavachari, A. P. Rendell, J. C. Burant, S. S. Iyengar, 
 J. Tomasi, M. Cossi, J. M. Millam, M. Klene, C. Adamo, R. Cammi, 
 J. W. Ochterski, R. L. Martin, K. Morokuma, O. Farkas, 
 J. B. Foresman, and D. J. Fox, Gaussian, Inc., Wallingford CT, 2019.
 
 ******************************************
 Gaussian 16:  ES64L-G16RevC.01  3-Jul-2019
                14-Feb-2021 
 ******************************************
 %NProcShared=2
 Will use up to    2 processors via shared memory.
 %Chk=FuncsM06HF2nd.chk
 ------------------------------------------------------------
 # td= (nstates=6, root=2) M06HF/6-31G(d) Opt density=current
 ------------------------------------------------------------
 1/18=20,19=15,26=3,38=1/1,3;
 2/9=110,12=2,17=6,18=5,40=1/2;
 3/5=1,6=6,7=1,11=9,25=1,30=1,71=1,74=-52/1,2,3,8;
 4//1;
 5/5=2,38=5/2;
 8/6=1,10=2,107=2,108=6/1;
 9/8=2,15=2,41=6,42=1,70=2/14;
 10/5=4,28=2/2;
 6/7=2,8=2,9=2,10=2,22=-1/1;
 7/12=6,13=5,14=2/1,2,3,16;
 1/18=20,19=15,26=3/3(2);
 2/9=110/2;
 99//99;
 2/9=110/2;
 3/5=1,6=6,7=1,11=9,25=1,30=1,71=1,74=-52/1,2,3,8;
 4/5=5,16=3,69=1/1;
 5/5=2,38=5/2;
 8/6=1,10=2,107=2,108=6/1;
 9/8=2,15=2,41=6,42=1,49=4,70=2/14;
 10/5=4,28=2/2;
 7/12=6,13=5,14=2/1,2,3,16;
 1/18=20,19=15,26=3/3(-8);
 2/9=110/2;
 6/7=2,8=2,9=2,10=2,22=-1/1;
 99/9=10/99;
 -------------
 FuncsM06HF2nd
 -------------
 Symbolic Z-matrix:
 Charge =  0 Multiplicity = 1
 C                    -2.15936   0.69162   0.00011 
 C                    -2.13588  -0.71874  -0.00002 
 C                    -0.93512  -1.41882  -0.00005 
 C                     0.24791  -0.67197  -0.00001 
 C                     0.24999   0.75191  -0.00006 
 C                    -0.98269   1.42884  -0.00006 
 N                     1.56678  -1.08097  -0.00025 
 C                     1.62599   1.16698  -0.0001 
 C                     2.39038   0.03047   0.00027 
 H                     1.88117  -2.03854   0.00076 
 H                     1.99815   2.18234  -0.00037 
 H                     3.46533  -0.08657   0.0004 
 H                    -3.07324  -1.26832   0.00023 
 H                    -0.91789  -2.50582  -0.00015 
 H                    -3.11663   1.20635   0.00023 
 H                    -1.01169   2.51556   0.00019 
 

 GradGradGradGradGradGradGradGradGradGradGradGradGradGradGradGradGradGrad
 Berny optimization.
 Initialization pass.
                           ----------------------------
                           !    Initial Parameters    !
                           ! (Angstroms and Degrees)  !
 --------------------------                            --------------------------
 ! Name  Definition              Value          Derivative Info.                !
 --------------------------------------------------------------------------------
 ! R1    R(1,2)                  1.4106         estimate D2E/DX2                !
 ! R2    R(1,6)                  1.3885         estimate D2E/DX2                !
 ! R3    R(1,15)                 1.0869         estimate D2E/DX2                !
 ! R4    R(2,3)                  1.3899         estimate D2E/DX2                !
 ! R5    R(2,13)                 1.0866         estimate D2E/DX2                !
 ! R6    R(3,4)                  1.3991         estimate D2E/DX2                !
 ! R7    R(3,14)                 1.0871         estimate D2E/DX2                !
 ! R8    R(4,5)                  1.4239         estimate D2E/DX2                !
 ! R9    R(4,7)                  1.3808         estimate D2E/DX2                !
 ! R10   R(5,6)                  1.4063         estimate D2E/DX2                !
 ! R11   R(5,8)                  1.4372         estimate D2E/DX2                !
 ! R12   R(6,16)                 1.0871         estimate D2E/DX2                !
 ! R13   R(7,9)                  1.3833         estimate D2E/DX2                !
 ! R14   R(7,10)                 1.0079         estimate D2E/DX2                !
 ! R15   R(8,9)                  1.3697         estimate D2E/DX2                !
 ! R16   R(8,11)                 1.0814         estimate D2E/DX2                !
 ! R17   R(9,12)                 1.0813         estimate D2E/DX2                !
 ! A1    A(2,1,6)              121.1146         estimate D2E/DX2                !
 ! A2    A(2,1,15)             119.221          estimate D2E/DX2                !
 ! A3    A(6,1,15)             119.6644         estimate D2E/DX2                !
 ! A4    A(1,2,3)              121.1973         estimate D2E/DX2                !
 ! A5    A(1,2,13)             119.4296         estimate D2E/DX2                !
 ! A6    A(3,2,13)             119.3731         estimate D2E/DX2                !
 ! A7    A(2,3,4)              117.4922         estimate D2E/DX2                !
 ! A8    A(2,3,14)             121.1516         estimate D2E/DX2                !
 ! A9    A(4,3,14)             121.3562         estimate D2E/DX2                !
 ! A10   A(3,4,5)              122.348          estimate D2E/DX2                !
 ! A11   A(3,4,7)              130.5063         estimate D2E/DX2                !
 ! A12   A(5,4,7)              107.1457         estimate D2E/DX2                !
 ! A13   A(4,5,6)              118.6898         estimate D2E/DX2                !
 ! A14   A(4,5,8)              106.8696         estimate D2E/DX2                !
 ! A15   A(6,5,8)              134.4406         estimate D2E/DX2                !
 ! A16   A(1,6,5)              119.1581         estimate D2E/DX2                !
 ! A17   A(1,6,16)             120.5398         estimate D2E/DX2                !
 ! A18   A(5,6,16)             120.3021         estimate D2E/DX2                !
 ! A19   A(4,7,9)              109.3098         estimate D2E/DX2                !
 ! A20   A(4,7,10)             125.4054         estimate D2E/DX2                !
 ! A21   A(9,7,10)             125.2847         estimate D2E/DX2                !
 ! A22   A(5,8,9)              107.1379         estimate D2E/DX2                !
 ! A23   A(5,8,11)             126.9153         estimate D2E/DX2                !
 ! A24   A(9,8,11)             125.9467         estimate D2E/DX2                !
 ! A25   A(7,9,8)              109.5369         estimate D2E/DX2                !
 ! A26   A(7,9,12)             120.3254         estimate D2E/DX2                !
 ! A27   A(8,9,12)             130.1377         estimate D2E/DX2                !
 ! D1    D(6,1,2,3)              0.0131         estimate D2E/DX2                !
 ! D2    D(6,1,2,13)           179.9933         estimate D2E/DX2                !
 ! D3    D(15,1,2,3)          -179.994          estimate D2E/DX2                !
 ! D4    D(15,1,2,13)           -0.0138         estimate D2E/DX2                !
 ! D5    D(2,1,6,5)             -0.0143         estimate D2E/DX2                !
 ! D6    D(2,1,6,16)          -179.991          estimate D2E/DX2                !
 ! D7    D(15,1,6,5)           179.9928         estimate D2E/DX2                !
 ! D8    D(15,1,6,16)            0.0162         estimate D2E/DX2                !
 ! D9    D(1,2,3,4)             -0.0029         estimate D2E/DX2                !
 ! D10   D(1,2,3,14)           180.0            estimate D2E/DX2                !
 ! D11   D(13,2,3,4)          -179.9831         estimate D2E/DX2                !
 ! D12   D(13,2,3,14)            0.0198         estimate D2E/DX2                !
 ! D13   D(2,3,4,5)             -0.0057         estimate D2E/DX2                !
 ! D14   D(2,3,4,7)           -179.9877         estimate D2E/DX2                !
 ! D15   D(14,3,4,5)           179.9914         estimate D2E/DX2                !
 ! D16   D(14,3,4,7)             0.0093         estimate D2E/DX2                !
 ! D17   D(3,4,5,6)              0.0043         estimate D2E/DX2                !
 ! D18   D(3,4,5,8)           -179.9957         estimate D2E/DX2                !
 ! D19   D(7,4,5,6)            179.9901         estimate D2E/DX2                !
 ! D20   D(7,4,5,8)             -0.01           estimate D2E/DX2                !
 ! D21   D(3,4,7,9)           -179.9844         estimate D2E/DX2                !
 ! D22   D(3,4,7,10)            -0.0882         estimate D2E/DX2                !
 ! D23   D(5,4,7,9)              0.0315         estimate D2E/DX2                !
 ! D24   D(5,4,7,10)           179.9277         estimate D2E/DX2                !
 ! D25   D(4,5,6,1)              0.0057         estimate D2E/DX2                !
 ! D26   D(4,5,6,16)           179.9824         estimate D2E/DX2                !
 ! D27   D(8,5,6,1)           -179.9942         estimate D2E/DX2                !
 ! D28   D(8,5,6,16)            -0.0175         estimate D2E/DX2                !
 ! D29   D(4,5,8,9)             -0.0151         estimate D2E/DX2                !
 ! D30   D(4,5,8,11)           179.9849         estimate D2E/DX2                !
 ! D31   D(6,5,8,9)            179.9849         estimate D2E/DX2                !
 ! D32   D(6,5,8,11)            -0.0151         estimate D2E/DX2                !
 ! D33   D(4,7,9,8)             -0.0422         estimate D2E/DX2                !
 ! D34   D(4,7,9,12)           179.9865         estimate D2E/DX2                !
 ! D35   D(10,7,9,8)          -179.9385         estimate D2E/DX2                !
 ! D36   D(10,7,9,12)            0.0902         estimate D2E/DX2                !
 ! D37   D(5,8,9,7)              0.0348         estimate D2E/DX2                !
 ! D38   D(5,8,9,12)          -179.9976         estimate D2E/DX2                !
 ! D39   D(11,8,9,7)          -179.9652         estimate D2E/DX2                !
 ! D40   D(11,8,9,12)            0.0024         estimate D2E/DX2                !
 --------------------------------------------------------------------------------
 Trust Radius=3.00D-01 FncErr=1.00D-07 GrdErr=1.00D-06 EigMax=2.50D+02 EigMin=1.00D-04
 Number of steps in this run=     94 maximum allowed number of steps=    100.
 GradGradGradGradGradGradGradGradGradGradGradGradGradGradGradGradGradGrad

                          Input orientation:                          
 ---------------------------------------------------------------------
 Center     Atomic      Atomic             Coordinates (Angstroms)
 Number     Number       Type             X           Y           Z
 ---------------------------------------------------------------------
      1          6           0       -2.159360    0.691620    0.000110
      2          6           0       -2.135880   -0.718740   -0.000020
      3          6           0       -0.935120   -1.418820   -0.000050
      4          6           0        0.247910   -0.671970   -0.000010
      5          6           0        0.249990    0.751910   -0.000060
      6          6           0       -0.982690    1.428840   -0.000060
      7          7           0        1.566780   -1.080970   -0.000250
      8          6           0        1.625990    1.166980   -0.000100
      9          6           0        2.390380    0.030470    0.000270
     10          1           0        1.881170   -2.038540    0.000760
     11          1           0        1.998150    2.182340   -0.000370
     12          1           0        3.465330   -0.086570    0.000400
     13          1           0       -3.073240   -1.268320    0.000230
     14          1           0       -0.917890   -2.505820   -0.000150
     15          1           0       -3.116630    1.206350    0.000230
     16          1           0       -1.011690    2.515560    0.000190
 ---------------------------------------------------------------------
                    Distance matrix (angstroms):
                    1          2          3          4          5
     1  C    0.000000
     2  C    1.410555   0.000000
     3  C    2.439820   1.389941   0.000000
     4  C    2.766645   2.384249   1.399051   0.000000
     5  C    2.410104   2.802711   2.473167   1.423882   0.000000
     6  C    1.388541   2.437611   2.848057   2.434703   1.406319
     7  N    4.126281   3.720336   2.524608   1.380833   2.256853
     8  C    3.815081   4.208041   3.639457   2.298008   1.437240
     9  C    4.597527   4.587848   3.627588   2.254684   2.258704
    10  H    4.876439   4.228305   2.883668   2.129566   3.232238
    11  H    4.416688   5.050393   4.644613   3.348197   2.258804
    12  H    5.678267   5.636771   4.597701   3.270242   3.322869
    13  H    2.162531   1.086592   2.143410   3.374266   3.889111
    14  H    3.429996   2.162673   1.087137   2.173038   3.460744
    15  H    1.086882   2.160519   3.413283   3.853338   3.397153
    16  H    2.154972   3.424106   3.935125   3.427381   2.168478
                    6          7          8          9         10
     6  C    0.000000
     7  N    3.577561   0.000000
     8  C    2.621790   2.248730   0.000000
     9  C    3.651444   1.383335   1.369652   0.000000
    10  H    4.497157   1.007860   3.215661   2.130750   0.000000
    11  H    3.074601   3.291697   1.081415   2.187325   4.222501
    12  H    4.699080   2.143204   2.225884   1.081303   2.513911
    13  H    3.412488   4.643801   5.292773   5.615870   5.013922
    14  H    3.935194   2.864225   4.467749   4.168623   2.837796
    15  H    2.145507   5.212117   4.742783   5.631150   5.958802
    16  H    1.087107   4.425329   2.962435   4.213046   5.395226
                   11         12         13         14         15
    11  H    0.000000
    12  H    2.701957   0.000000
    13  H    6.134008   6.644504   0.000000
    14  H    5.521063   5.006535   2.485345   0.000000
    15  H    5.207066   6.707745   2.475050   4.314471   0.000000
    16  H    3.028229   5.178300   4.309030   5.022256   2.478871
                   16
    16  H    0.000000
 Stoichiometry    C8H7N
 Framework group  C1[X(C8H7N)]
 Deg. of freedom    42
 Full point group                 C1      NOp   1
 Largest Abelian subgroup         C1      NOp   1
 Largest concise Abelian subgroup C1      NOp   1
                         Standard orientation:                         
 ---------------------------------------------------------------------
 Center     Atomic      Atomic             Coordinates (Angstroms)
 Number     Number       Type             X           Y           Z
 ---------------------------------------------------------------------
      1          6           0       -2.159361    0.691618    0.000110
      2          6           0       -2.135879   -0.718742   -0.000020
      3          6           0       -0.935118   -1.418820   -0.000050
      4          6           0        0.247911   -0.671969   -0.000010
      5          6           0        0.249989    0.751911   -0.000060
      6          6           0       -0.982691    1.428840   -0.000060
      7          7           0        1.566782   -1.080967   -0.000250
      8          6           0        1.625989    1.166983   -0.000100
      9          6           0        2.390380    0.030474    0.000270
     10          1           0        1.881173   -2.038537    0.000760
     11          1           0        1.998148    2.182343   -0.000370
     12          1           0        3.465330   -0.086565    0.000400
     13          1           0       -3.073238   -1.268323    0.000230
     14          1           0       -0.917887   -2.505820   -0.000150
     15          1           0       -3.116631    1.206347    0.000230
     16          1           0       -1.011693    2.515560    0.000190
 ---------------------------------------------------------------------
 Rotational constants (GHZ):           3.8785006           1.6312482           1.1482914
 Standard basis: 6-31G(d) (6D, 7F)
 There are   149 symmetry adapted cartesian basis functions of A   symmetry.
 There are   149 symmetry adapted basis functions of A   symmetry.
   149 basis functions,   280 primitive gaussians,   149 cartesian basis functions
    31 alpha electrons       31 beta electrons
       nuclear repulsion energy       399.8542490966 Hartrees.
 NAtoms=   16 NActive=   16 NUniq=   16 SFac= 1.00D+00 NAtFMM=   60 NAOKFM=F Big=F
 Integral buffers will be    131072 words long.
 Raffenetti 1 integral format.
 Two-electron integral symmetry is turned on.
 One-electron integrals computed using PRISM.
 NBasis=   149 RedAO= T EigKep=  4.06D-04  NBF=   149
 NBsUse=   149 1.00D-06 EigRej= -1.00D+00 NBFU=   149
 ExpMin= 1.61D-01 ExpMax= 4.17D+03 ExpMxC= 6.27D+02 IAcc=3 IRadAn=         5 AccDes= 0.00D+00
 Harris functional with IExCor= 1009 and IRadAn=       5 diagonalized for initial guess.
 HarFok:  IExCor= 1009 AccDes= 0.00D+00 IRadAn=         5 IDoV= 1 UseB2=F ITyADJ=14
 ICtDFT=  3500011 ScaDFX=  1.000000  1.000000  1.000000  1.000000
 FoFCou: FMM=F IPFlag=           0 FMFlag=      100000 FMFlg1=           0
         NFxFlg=           0 DoJE=T BraDBF=F KetDBF=T FulRan=T
         wScrn=  0.000000 ICntrl=       500 IOpCl=  0 I1Cent=   200000004 NGrid=           0
         NMat0=    1 NMatS0=      1 NMatT0=    0 NMatD0=    1 NMtDS0=    0 NMtDT0=    0
 Petite list used in FoFCou.
 Keep R1 ints in memory in canonical form, NReq=64402215.
 Requested convergence on RMS density matrix=1.00D-08 within 128 cycles.
 Requested convergence on MAX density matrix=1.00D-06.
 Requested convergence on             energy=1.00D-06.
 No special actions if energy rises.
 Integral accuracy reduced to 1.0D-05 until final iterations.
 Initial convergence to 1.0D-05 achieved.  Increase integral accuracy.
 SCF Done:  E(RM06HF) =  -363.727600706     A.U. after   16 cycles
            NFock= 16  Conv=0.96D-08     -V/T= 2.0098
 DoSCS=F DFT=T ScalE2(SS,OS)=  1.000000  1.000000
 ExpMin= 1.61D-01 ExpMax= 4.17D+03 ExpMxC= 6.27D+02 IAcc=3 IRadAn=         5 AccDes= 0.00D+00
 HarFok:  IExCor=  205 AccDes= 0.00D+00 IRadAn=         5 IDoV=-2 UseB2=F ITyADJ=14
 ICtDFT= 12500011 ScaDFX=  1.000000  1.000000  1.000000  1.000000
 Range of M.O.s used for correlation:    10   149
 NBasis=   149 NAE=    31 NBE=    31 NFC=     9 NFV=     0
 NROrb=    140 NOA=    22 NOB=    22 NVA=   118 NVB=   118

 **** Warning!!: The largest alpha MO coefficient is  0.10685419D+02

 Orbital symmetries:
       Occupied  (A) (A) (A) (A) (A) (A) (A) (A) (A) (A) (A) (A)
                 (A) (A) (A) (A) (A) (A) (A) (A) (A) (A) (A) (A)
                 (A) (A) (A) (A) (A) (A) (A)
       Virtual   (A) (A) (A) (A) (A) (A) (A) (A) (A) (A) (A) (A)
                 (A) (A) (A) (A) (A) (A) (A) (A) (A) (A) (A) (A)
                 (A) (A) (A) (A) (A) (A) (A) (A) (A) (A) (A) (A)
                 (A) (A) (A) (A) (A) (A) (A) (A) (A) (A) (A) (A)
                 (A) (A) (A) (A) (A) (A) (A) (A) (A) (A) (A) (A)
                 (A) (A) (A) (A) (A) (A) (A) (A) (A) (A) (A) (A)
                 (A) (A) (A) (A) (A) (A) (A) (A) (A) (A) (A) (A)
                 (A) (A) (A) (A) (A) (A) (A) (A) (A) (A) (A) (A)
                 (A) (A) (A) (A) (A) (A) (A) (A) (A) (A) (A) (A)
                 (A) (A) (A) (A) (A) (A) (A) (A) (A) (A)
    24 initial guesses have been made.
 Convergence on wavefunction:    0.000001000000000
 Iteration     1 Dimension    24 NMult     0 NNew     24
 CISAX will form    24 AO SS matrices at one time.
 New state      1 was old state      2
 New state      2 was old state      1
 New state      4 was old state      5
 New state      5 was old state      4
 New state      6 was old state     14
 Iteration     2 Dimension    36 NMult    24 NNew     12
 New state      4 was old state      5
 New state      5 was old state      4
 Iteration     3 Dimension    48 NMult    36 NNew     12
 Iteration     4 Dimension    60 NMult    48 NNew     12
 Iteration     5 Dimension    72 NMult    60 NNew     12
 Iteration     6 Dimension    84 NMult    72 NNew     12
 Iteration     7 Dimension    96 NMult    84 NNew     12
 Iteration     8 Dimension   108 NMult    96 NNew     12
 Iteration     9 Dimension   120 NMult   108 NNew     12
 Iteration    10 Dimension   128 NMult   120 NNew      8
 Iteration    11 Dimension   134 NMult   128 NNew      6
 Iteration    12 Dimension   140 NMult   134 NNew      6
 Iteration    13 Dimension   144 NMult   140 NNew      4
 Iteration    14 Dimension   148 NMult   144 NNew      4
 Iteration    15 Dimension   152 NMult   148 NNew      4
 Iteration    16 Dimension   154 NMult   152 NNew      2
 Iteration    17 Dimension   156 NMult   154 NNew      2
 ***********************************************************************
 Excited states from <AA,BB:AA,BB> singles matrix:
 ***********************************************************************
 
 Ground to excited state transition densities written to RWF  633
 Ground to excited state transition electric dipole moments (Au):
       state          X           Y           Z        Dip. S.      Osc.
         1        -0.3216     -0.4319     -0.0001      0.2900      0.0385
         2        -0.8223      0.6633     -0.0002      1.1162      0.1554
         3        -2.1039     -0.5007      0.0000      4.6773      0.7828
         4         0.5969     -1.0946     -0.0001      1.5545      0.2747
         5        -0.0024     -0.0008      0.0619      0.0038      0.0007
         6         0.4764     -0.0499      0.0001      0.2294      0.0434
 Ground to excited state transition velocity dipole moments (Au):
       state          X           Y           Z        Dip. S.      Osc.
         1         0.0696      0.1014      0.0000      0.0151      0.0507
         2         0.1782     -0.1662      0.0000      0.0594      0.1896
         3         0.5737      0.1428      0.0000      0.3496      0.9283
         4        -0.1722      0.3232      0.0000      0.1341      0.3373
         5         0.0007      0.0002     -0.0578      0.0033      0.0081
         6        -0.1493      0.0091     -0.0000      0.0224      0.0526
 Ground to excited state transition magnetic dipole moments (Au):
       state          X           Y           Z
         1        -0.0002     -0.0002     -0.1078
         2         0.0002      0.0001      0.0380
         3        -0.0002     -0.0003     -0.5978
         4        -0.0001      0.0000     -0.3828
         5         0.3285      0.1983      0.0007
         6         0.0003      0.0001     -1.4233
 Ground to excited state transition velocity quadrupole moments (Au):
       state          XX          YY          ZZ          XY          XZ          YZ
         1        -0.0460     -0.0922      0.0142      0.0205      0.0001     -0.0001
         2         0.2527     -0.2100     -0.0113     -0.0730      0.0000      0.0001
         3        -0.2816     -0.0085     -0.0371     -0.4172      0.0002     -0.0003
         4         0.6876     -0.1303      0.0406     -0.5501     -0.0001      0.0001
         5        -0.0012      0.0000     -0.0001      0.0006     -0.2116      0.2531
         6         0.8928     -0.3135     -0.0407     -1.0599      0.0000      0.0002
 <0|del|b> * <b|rxdel|0> + <0|del|b> * <b|delr+rdel|0>
 Rotatory Strengths (R) in cgs (10**-40 erg-esu-cm/Gauss)
       state          XX          YY          ZZ    R(velocity)    E-M Angle
         1        -0.0598     -0.0402     -0.0315     -0.0438       90.00
         2        -0.0344      0.0915     -0.0051      0.0173       90.00
         3        -0.1551     -0.3714      0.0431     -0.1611       90.03
         4         0.0069      0.0156      0.0215      0.0147       90.00
         5         0.0303      0.5350      0.0656      0.2103       89.37
         6         0.1412     -0.0674     -0.0224      0.0171       90.00
 1/2[<0|r|b>*<b|rxdel|0> + (<0|rxdel|b>*<b|r|0>)*]
 Rotatory Strengths (R) in cgs (10**-40 erg-esu-cm/Gauss)
       state          XX          YY          ZZ     R(length)
         1        -0.0465     -0.0589     -0.0076     -0.0377
         2         0.1134     -0.0569      0.0043      0.0203
         3        -0.2856     -0.0950      0.0013     -0.1264
         4         0.0604      0.0002     -0.0253      0.0118
         5         0.5569      0.1167     -0.0287      0.2150
         6        -0.1006      0.0023      0.0702     -0.0094
  1/2[<0|del|b>*<b|r|0> + (<0|r|b>*<b|del|0>)*] (Au)
       state          X           Y           Z        Dip. S.   Osc.(frdel)
         1        -0.0224     -0.0438     -0.0000      0.0662      0.0441
         2        -0.1465     -0.1103     -0.0000      0.2568      0.1712
         3        -1.2071     -0.0715      0.0000      1.2786      0.8524
         4        -0.1028     -0.3538     -0.0000      0.4566      0.3044
         5        -0.0000     -0.0000     -0.0036      0.0036      0.0024
         6        -0.0711     -0.0005     -0.0000      0.0716      0.0477

 Excitation energies and oscillator strengths:
 
 Excited State   1:      Singlet-A      5.4124 eV  229.08 nm  f=0.0385  <S**2>=0.000
      29 -> 33         0.10124
      30 -> 32         0.58184
      31 -> 32        -0.15239
      31 -> 33        -0.34658
 
 Excited State   2:      Singlet-A      5.6832 eV  218.16 nm  f=0.1554  <S**2>=0.000
      30 -> 32         0.11978
      30 -> 33         0.17484
      31 -> 32         0.66203
 This state for optimization and/or second-order correction.
 Total Energy, E(TD-HF/TD-DFT) =  -363.518747804    
 Copying the excited state density for this state as the 1-particle RhoCI density.
 
 Excited State   3:      Singlet-A      6.8312 eV  181.50 nm  f=0.7828  <S**2>=0.000
      30 -> 32         0.36066
      30 -> 33        -0.11174
      31 -> 33         0.58691
 
 Excited State   4:      Singlet-A      7.2131 eV  171.89 nm  f=0.2747  <S**2>=0.000
      30 -> 33         0.66607
      31 -> 32        -0.17373
      31 -> 33         0.10172
 
 Excited State   5:      Singlet-A      7.4743 eV  165.88 nm  f=0.0007  <S**2>=0.000
      22 -> 34        -0.11263
      27 -> 34         0.13755
      29 -> 34         0.19765
      30 -> 34        -0.23079
      31 -> 34         0.59614
 
 Excited State   6:      Singlet-A      7.7198 eV  160.61 nm  f=0.0434  <S**2>=0.000
      29 -> 32         0.57096
      30 -> 35         0.13671
      31 -> 35        -0.36336
 SavETr:  write IOETrn=   770 NScale= 10 NData=  16 NLR=1 NState=    6 LETran=     118.
          IDoAtm=1111111111111111
          Differentiating once with respect to electric field.
                with respect to dipole field.
          Differentiating once with respect to nuclear coordinates.
 Keep R1 ints in memory in canonical form, NReq=64414501.
          There are     1 degrees of freedom in the 1st order CPHF.  IDoFFX=0 NUNeed=     1.
 LinEq1:  Iter=  0 NonCon=     1 RMS=5.51D-03 Max=1.16D-01 NDo=     1
 AX will form     1 AO Fock derivatives at one time.
 LinEq1:  Iter=  1 NonCon=     1 RMS=2.40D-03 Max=6.77D-02 NDo=     1
 LinEq1:  Iter=  2 NonCon=     1 RMS=8.07D-04 Max=1.51D-02 NDo=     1
 LinEq1:  Iter=  3 NonCon=     1 RMS=4.54D-04 Max=1.30D-02 NDo=     1
 LinEq1:  Iter=  4 NonCon=     1 RMS=1.54D-04 Max=3.53D-03 NDo=     1
 LinEq1:  Iter=  5 NonCon=     1 RMS=5.78D-05 Max=1.92D-03 NDo=     1
 LinEq1:  Iter=  6 NonCon=     1 RMS=2.82D-05 Max=8.34D-04 NDo=     1
 LinEq1:  Iter=  7 NonCon=     1 RMS=1.20D-05 Max=2.45D-04 NDo=     1
 LinEq1:  Iter=  8 NonCon=     1 RMS=5.40D-06 Max=1.18D-04 NDo=     1
 LinEq1:  Iter=  9 NonCon=     1 RMS=1.55D-06 Max=2.58D-05 NDo=     1
 LinEq1:  Iter= 10 NonCon=     1 RMS=5.23D-07 Max=1.16D-05 NDo=     1
 LinEq1:  Iter= 11 NonCon=     1 RMS=2.24D-07 Max=5.35D-06 NDo=     1
 LinEq1:  Iter= 12 NonCon=     1 RMS=7.88D-08 Max=1.42D-06 NDo=     1
 LinEq1:  Iter= 13 NonCon=     1 RMS=3.13D-08 Max=5.94D-07 NDo=     1
 LinEq1:  Iter= 14 NonCon=     1 RMS=8.36D-09 Max=1.53D-07 NDo=     1
 LinEq1:  Iter= 15 NonCon=     1 RMS=3.27D-09 Max=5.81D-08 NDo=     1
 LinEq1:  Iter= 16 NonCon=     1 RMS=1.00D-09 Max=1.92D-08 NDo=     1
 LinEq1:  Iter= 17 NonCon=     1 RMS=1.76D-10 Max=2.66D-09 NDo=     1
 LinEq1:  Iter= 18 NonCon=     0 RMS=3.31D-11 Max=3.73D-10 NDo=     1
 Linear equations converged to 1.000D-10 1.000D-09 after    18 iterations.
 End of Minotr F.D. properties file   721 does not exist.
 End of Minotr F.D. properties file   722 does not exist.
 End of Minotr F.D. properties file   788 does not exist.

 **********************************************************************

            Population analysis using the CI Density.

 **********************************************************************

 Orbital symmetries:
       Occupied  (A) (A) (A) (A) (A) (A) (A) (A) (A) (A) (A) (A)
                 (A) (A) (A) (A) (A) (A) (A) (A) (A) (A) (A) (A)
                 (A) (A) (A) (A) (A) (A) (A)
       Virtual   (A) (A) (A) (A) (A) (A) (A) (A) (A) (A) (A) (A)
                 (A) (A) (A) (A) (A) (A) (A) (A) (A) (A) (A) (A)
                 (A) (A) (A) (A) (A) (A) (A) (A) (A) (A) (A) (A)
                 (A) (A) (A) (A) (A) (A) (A) (A) (A) (A) (A) (A)
                 (A) (A) (A) (A) (A) (A) (A) (A) (A) (A) (A) (A)
                 (A) (A) (A) (A) (A) (A) (A) (A) (A) (A) (A) (A)
                 (A) (A) (A) (A) (A) (A) (A) (A) (A) (A) (A) (A)
                 (A) (A) (A) (A) (A) (A) (A) (A) (A) (A) (A) (A)
                 (A) (A) (A) (A) (A) (A) (A) (A) (A) (A) (A) (A)
                 (A) (A) (A) (A) (A) (A) (A) (A) (A) (A)
 The electronic state is 1-A.
 Alpha  occ. eigenvalues --  -15.30282 -11.00645 -11.00173 -10.97029 -10.96541
 Alpha  occ. eigenvalues --  -10.96477 -10.96331 -10.95843 -10.95510  -1.20681
 Alpha  occ. eigenvalues --   -1.05093  -0.98465  -0.93116  -0.91227  -0.80498
 Alpha  occ. eigenvalues --   -0.77083  -0.75538  -0.71009  -0.64353  -0.63010
 Alpha  occ. eigenvalues --   -0.58635  -0.58201  -0.58083  -0.55581  -0.53477
 Alpha  occ. eigenvalues --   -0.49003  -0.47629  -0.46672  -0.40326  -0.32635
 Alpha  occ. eigenvalues --   -0.30730
 Alpha virt. eigenvalues --    0.07599   0.11939   0.16386   0.17798   0.19849
 Alpha virt. eigenvalues --    0.22676   0.24078   0.25918   0.27489   0.28452
 Alpha virt. eigenvalues --    0.30851   0.31960   0.35111   0.36606   0.39483
 Alpha virt. eigenvalues --    0.42546   0.44195   0.47887   0.54368   0.59862
 Alpha virt. eigenvalues --    0.61424   0.62843   0.62983   0.66363   0.66455
 Alpha virt. eigenvalues --    0.67654   0.68847   0.70026   0.71549   0.71807
 Alpha virt. eigenvalues --    0.72962   0.73217   0.74693   0.75969   0.76031
 Alpha virt. eigenvalues --    0.80285   0.82175   0.88268   0.91745   0.93222
 Alpha virt. eigenvalues --    0.94488   0.98235   0.99227   0.99815   1.01019
 Alpha virt. eigenvalues --    1.02336   1.03291   1.05539   1.06760   1.07204
 Alpha virt. eigenvalues --    1.08129   1.13008   1.15144   1.19020   1.20866
 Alpha virt. eigenvalues --    1.28801   1.35000   1.35253   1.37999   1.45029
 Alpha virt. eigenvalues --    1.45274   1.46203   1.54048   1.54262   1.56145
 Alpha virt. eigenvalues --    1.58493   1.60696   1.63058   1.63491   1.64133
 Alpha virt. eigenvalues --    1.68484   1.84870   1.90138   1.94071   1.97473
 Alpha virt. eigenvalues --    1.99223   2.07826   2.08233   2.10062   2.12946
 Alpha virt. eigenvalues --    2.15922   2.18035   2.21014   2.24158   2.25207
 Alpha virt. eigenvalues --    2.25447   2.31041   2.33609   2.33822   2.34510
 Alpha virt. eigenvalues --    2.35761   2.44833   2.47440   2.48607   2.56318
 Alpha virt. eigenvalues --    2.61787   2.63994   2.64676   2.70967   2.72372
 Alpha virt. eigenvalues --    2.76316   2.79649   2.83645   2.87591   2.93356
 Alpha virt. eigenvalues --    2.97749   3.16287   3.20260   3.44954   3.97686
 Alpha virt. eigenvalues --    4.08447   4.10641   4.15061   4.19663   4.30980
 Alpha virt. eigenvalues --    4.38429   4.43808   4.73523
          Condensed to atoms (all electrons):
               1          2          3          4          5          6
     1  C    4.969375   0.575787  -0.050942  -0.043924   0.004873   0.452415
     2  C    0.575787   5.015057   0.394593   0.012041  -0.035230  -0.043380
     3  C   -0.050942   0.394593   5.179922   0.510463  -0.067403  -0.034770
     4  C   -0.043924   0.012041   0.510463   4.815341   0.505963  -0.053221
     5  C    0.004873  -0.035230  -0.067403   0.505963   4.764162   0.441245
     6  C    0.452415  -0.043380  -0.034770  -0.053221   0.441245   5.200178
     7  N    0.000014   0.006105  -0.100832   0.194063  -0.047591   0.010395
     8  C    0.008422  -0.000014   0.012474  -0.010652   0.488422  -0.109642
     9  C   -0.000478  -0.000266   0.005658  -0.126005  -0.029465   0.013069
    10  H   -0.000002  -0.000034  -0.003218  -0.025116   0.006035  -0.000071
    11  H    0.000002   0.000005  -0.000102   0.006384  -0.026481  -0.004372
    12  H    0.000003   0.000000  -0.000067   0.005728   0.001630  -0.000138
    13  H   -0.031207   0.367943  -0.038080   0.002526   0.001301   0.003169
    14  H    0.003909  -0.037979   0.362477  -0.035558   0.004371   0.000502
    15  H    0.370945  -0.036438   0.003724   0.001062   0.002348  -0.033983
    16  H   -0.040757   0.004241   0.000640   0.005072  -0.038220   0.367759
               7          8          9         10         11         12
     1  C    0.000014   0.008422  -0.000478  -0.000002   0.000002   0.000003
     2  C    0.006105  -0.000014  -0.000266  -0.000034   0.000005   0.000000
     3  C   -0.100832   0.012474   0.005658  -0.003218  -0.000102  -0.000067
     4  C    0.194063  -0.010652  -0.126005  -0.025116   0.006384   0.005728
     5  C   -0.047591   0.488422  -0.029465   0.006035  -0.026481   0.001630
     6  C    0.010395  -0.109642   0.013069  -0.000071  -0.004372  -0.000138
     7  N    7.090167  -0.068585   0.358051   0.328825   0.003812  -0.043984
     8  C   -0.068585   5.170114   0.410270   0.004386   0.374077  -0.027757
     9  C    0.358051   0.410270   5.016258  -0.029671  -0.050598   0.374642
    10  H    0.328825   0.004386  -0.029671   0.342983  -0.000053  -0.002007
    11  H    0.003812   0.374077  -0.050598  -0.000053   0.485584  -0.000744
    12  H   -0.043984  -0.027757   0.374642  -0.002007  -0.000744   0.473462
    13  H   -0.000109   0.000012   0.000002  -0.000002  -0.000000  -0.000000
    14  H   -0.006281  -0.000278  -0.000008   0.002381   0.000001   0.000003
    15  H    0.000003  -0.000158   0.000004  -0.000000  -0.000002  -0.000000
    16  H   -0.000126  -0.006342  -0.000007   0.000003   0.001860  -0.000000
              13         14         15         16
     1  C   -0.031207   0.003909   0.370945  -0.040757
     2  C    0.367943  -0.037979  -0.036438   0.004241
     3  C   -0.038080   0.362477   0.003724   0.000640
     4  C    0.002526  -0.035558   0.001062   0.005072
     5  C    0.001301   0.004371   0.002348  -0.038220
     6  C    0.003169   0.000502  -0.033983   0.367759
     7  N   -0.000109  -0.006281   0.000003  -0.000126
     8  C    0.000012  -0.000278  -0.000158  -0.006342
     9  C    0.000002  -0.000008   0.000004  -0.000007
    10  H   -0.000002   0.002381  -0.000000   0.000003
    11  H   -0.000000   0.000001  -0.000002   0.001860
    12  H   -0.000000   0.000003  -0.000000  -0.000000
    13  H    0.528553  -0.004314  -0.004276  -0.000147
    14  H   -0.004314   0.547235  -0.000142   0.000015
    15  H   -0.004276  -0.000142   0.532552  -0.004458
    16  H   -0.000147   0.000015  -0.004458   0.548178
 Mulliken charges:
               1
     1  C   -0.218435
     2  C   -0.222432
     3  C   -0.174537
     4  C    0.235834
     5  C    0.024040
     6  C   -0.209156
     7  N   -0.723928
     8  C   -0.244749
     9  C    0.058544
    10  H    0.375562
    11  H    0.210626
    12  H    0.219229
    13  H    0.174628
    14  H    0.163667
    15  H    0.168816
    16  H    0.162289
 Sum of Mulliken charges =  -0.00000
 Mulliken charges with hydrogens summed into heavy atoms:
               1
     1  C   -0.049618
     2  C   -0.047804
     3  C   -0.010870
     4  C    0.235834
     5  C    0.024040
     6  C   -0.046867
     7  N   -0.348366
     8  C   -0.034123
     9  C    0.277773
 Electronic spatial extent (au):  <R**2>=           1008.4571
 Charge=             -0.0000 electrons
 Dipole moment (field-independent basis, Debye):
    X=              3.8608    Y=             -1.7433    Z=              0.0020  Tot=              4.2361
 Quadrupole moment (field-independent basis, Debye-Ang):
   XX=            -42.1772   YY=            -43.7303   ZZ=            -58.2716
   XY=             -2.2069   XZ=              0.0025   YZ=             -0.0034
 Traceless Quadrupole moment (field-independent basis, Debye-Ang):
   XX=              5.8825   YY=              4.3294   ZZ=            -10.2119
   XY=             -2.2069   XZ=              0.0025   YZ=             -0.0034
 Octapole moment (field-independent basis, Debye-Ang**2):
  XXX=             26.7681  YYY=            -10.7785  ZZZ=              0.0012  XYY=             12.5591
  XXY=             -7.4296  XXZ=              0.0120  XZZ=              4.0601  YZZ=             -1.9019
  YYZ=              0.0067  XYZ=             -0.0088
 Hexadecapole moment (field-independent basis, Debye-Ang**3):
 XXXX=           -778.2476 YYYY=           -359.6892 ZZZZ=            -62.0834 XXXY=            -15.5358
 XXXZ=              0.0111 YYYX=            -16.2467 YYYZ=             -0.0143 ZZZX=              0.0006
 ZZZY=             -0.0019 XXYY=           -184.3435 XXZZ=           -181.0295 YYZZ=            -89.8007
 XXYZ=             -0.0157 YYXZ=              0.0077 ZZXY=             -2.2837
 N-N= 3.998542490966D+02 E-N=-1.642050635944D+03  KE= 3.603339887463D+02
 Calling FoFJK, ICntrl=  10005127 FMM=F ISym2X=0 I1Cent= 0 IOpClX= 0 NMat=1 NMatS=1 NMatT=0.
 ***** Axes restored to original set *****
 -------------------------------------------------------------------
 Center     Atomic                   Forces (Hartrees/Bohr)
 Number     Number              X              Y              Z
 -------------------------------------------------------------------
      1        6          -0.022205383   -0.032507571   -0.000023774
      2        6          -0.043940556    0.047218604    0.000034553
      3        6           0.052149276   -0.031201614   -0.000007268
      4        6          -0.023141536    0.003259073   -0.000028067
      5        6           0.037570115   -0.003038791   -0.000005783
      6        6          -0.003903697    0.035892866    0.000012528
      7        7           0.030260523    0.030448803    0.000086595
      8        6          -0.058661411    0.027517383    0.000002720
      9        6           0.026673716   -0.071867271   -0.000051550
     10        1           0.000756308   -0.001158700   -0.000016161
     11        1          -0.000924323   -0.003611734    0.000006218
     12        1          -0.004257390   -0.000127049    0.000002476
     13        1           0.003838529    0.002437006   -0.000009078
     14        1           0.001078401    0.004853082   -0.000001318
     15        1           0.003820154   -0.002699119    0.000000870
     16        1           0.000887274   -0.005414968   -0.000002960
 -------------------------------------------------------------------
 Cartesian Forces:  Max     0.071867271 RMS     0.022694827

 GradGradGradGradGradGradGradGradGradGradGradGradGradGradGradGradGradGrad
 Berny optimization.
 FormGI is forming the generalized inverse of G from B-inverse, IUseBI=4.
 Internal  Forces:  Max     0.051083873 RMS     0.010776784
 Search for a local minimum.
 Step number   1 out of a maximum of   94
 All quantities printed in internal units (Hartrees-Bohrs-Radians)
 Mixed Optimization -- RFO/linear search
 Second derivative matrix not updated -- first step.
 ITU=  0
     Eigenvalues ---    0.01790   0.01867   0.01928   0.01947   0.02010
     Eigenvalues ---    0.02041   0.02076   0.02089   0.02098   0.02135
     Eigenvalues ---    0.02159   0.02173   0.02275   0.16000   0.16000
     Eigenvalues ---    0.16000   0.16000   0.16000   0.16000   0.16000
     Eigenvalues ---    0.22000   0.22188   0.22662   0.24010   0.24651
     Eigenvalues ---    0.35146   0.35149   0.35175   0.35209   0.35824
     Eigenvalues ---    0.35837   0.36510   0.37931   0.41898   0.42676
     Eigenvalues ---    0.44901   0.45975   0.46333   0.46561   0.46716
     Eigenvalues ---    0.47115   0.50040
 RFO step:  Lambda=-2.06635341D-02 EMin= 1.79046333D-02
 Linear search not attempted -- first point.
 Iteration  1 RMS(Cart)=  0.02838334 RMS(Int)=  0.00023117
 Iteration  2 RMS(Cart)=  0.00022435 RMS(Int)=  0.00009873
 Iteration  3 RMS(Cart)=  0.00000005 RMS(Int)=  0.00009873
 Variable       Old X    -DE/DX   Delta X   Delta X   Delta X     New X
                                 (Linear)    (Quad)   (Total)
    R1        2.66556  -0.02091   0.00000  -0.04450  -0.04451   2.62106
    R2        2.62396   0.02195   0.00000   0.04516   0.04515   2.66911
    R3        2.05391  -0.00464   0.00000  -0.01247  -0.01247   2.04144
    R4        2.62661   0.05034   0.00000   0.10191   0.10191   2.72852
    R5        2.05336  -0.00454   0.00000  -0.01219  -0.01219   2.04117
    R6        2.64382  -0.01116   0.00000  -0.02429  -0.02428   2.61954
    R7        2.05439  -0.00483   0.00000  -0.01299  -0.01299   2.04140
    R8        2.69075   0.00054   0.00000  -0.00201  -0.00215   2.68859
    R9        2.60940   0.01731   0.00000   0.03199   0.03216   2.64156
   R10        2.65756   0.02531   0.00000   0.05428   0.05428   2.71184
   R11        2.71599  -0.02506   0.00000  -0.05860  -0.05886   2.65713
   R12        2.05433  -0.00544   0.00000  -0.01461  -0.01461   2.03972
   R13        2.61412  -0.03730   0.00000  -0.07311  -0.07285   2.54127
   R14        1.90458   0.00134   0.00000   0.00276   0.00276   1.90734
   R15        2.58827   0.05108   0.00000   0.09847   0.09847   2.68673
   R16        2.04358  -0.00371   0.00000  -0.00979  -0.00979   2.03379
   R17        2.04337  -0.00422   0.00000  -0.01113  -0.01113   2.03224
    A1        2.11385  -0.00048   0.00000   0.00134   0.00129   2.11514
    A2        2.08080  -0.00035   0.00000  -0.00392  -0.00389   2.07690
    A3        2.08854   0.00083   0.00000   0.00258   0.00261   2.09115
    A4        2.11529   0.00296   0.00000   0.01364   0.01360   2.12889
    A5        2.08444  -0.00164   0.00000  -0.00771  -0.00769   2.07675
    A6        2.08345  -0.00132   0.00000  -0.00593  -0.00591   2.07755
    A7        2.05063  -0.00315   0.00000  -0.01562  -0.01565   2.03498
    A8        2.11449   0.00277   0.00000   0.01440   0.01441   2.12890
    A9        2.11807   0.00039   0.00000   0.00123   0.00124   2.11930
   A10        2.13538   0.00165   0.00000   0.00609   0.00607   2.14145
   A11        2.27776  -0.00605   0.00000  -0.01661  -0.01661   2.26115
   A12        1.87005   0.00440   0.00000   0.01053   0.01054   1.88059
   A13        2.07153   0.00480   0.00000   0.01701   0.01719   2.08872
   A14        1.86523  -0.00532   0.00000  -0.02133  -0.02171   1.84351
   A15        2.34643   0.00052   0.00000   0.00432   0.00453   2.35096
   A16        2.07970  -0.00578   0.00000  -0.02245  -0.02249   2.05721
   A17        2.10382   0.00365   0.00000   0.01543   0.01545   2.11927
   A18        2.09967   0.00213   0.00000   0.00702   0.00704   2.10671
   A19        1.90782   0.00531   0.00000   0.01855   0.01893   1.92675
   A20        2.18874  -0.00231   0.00000  -0.00737  -0.00757   2.18117
   A21        2.18663  -0.00300   0.00000  -0.01117  -0.01136   2.17527
   A22        1.86991   0.00654   0.00000   0.03268   0.03243   1.90234
   A23        2.21509  -0.00289   0.00000  -0.01424  -0.01411   2.20098
   A24        2.19819  -0.00365   0.00000  -0.01844  -0.01832   2.17987
   A25        1.91178  -0.01092   0.00000  -0.04043  -0.04019   1.87159
   A26        2.10007   0.00487   0.00000   0.01692   0.01680   2.11687
   A27        2.27133   0.00606   0.00000   0.02351   0.02339   2.29472
    D1        0.00023  -0.00001   0.00000  -0.00017  -0.00017   0.00006
    D2        3.14148   0.00000   0.00000   0.00002   0.00002   3.14149
    D3       -3.14149  -0.00000   0.00000  -0.00006  -0.00006  -3.14155
    D4       -0.00024   0.00000   0.00000   0.00013   0.00013  -0.00012
    D5       -0.00025   0.00001   0.00000   0.00017   0.00017  -0.00008
    D6       -3.14143   0.00000   0.00000   0.00005   0.00005  -3.14139
    D7        3.14147   0.00000   0.00000   0.00006   0.00006   3.14153
    D8        0.00028  -0.00000   0.00000  -0.00006  -0.00006   0.00022
    D9       -0.00005   0.00000   0.00000   0.00008   0.00008   0.00003
   D10        3.14159   0.00000   0.00000   0.00008   0.00008  -3.14151
   D11       -3.14130  -0.00000   0.00000  -0.00010  -0.00011  -3.14140
   D12        0.00035  -0.00001   0.00000  -0.00011  -0.00011   0.00024
   D13       -0.00010  -0.00000   0.00000  -0.00000   0.00000  -0.00010
   D14       -3.14138  -0.00001   0.00000  -0.00011  -0.00010  -3.14148
   D15        3.14144  -0.00000   0.00000   0.00000   0.00000   3.14145
   D16        0.00016  -0.00001   0.00000  -0.00010  -0.00010   0.00006
   D17        0.00008   0.00000   0.00000   0.00000   0.00000   0.00008
   D18       -3.14152   0.00001   0.00000   0.00003   0.00003  -3.14149
   D19        3.14142   0.00000   0.00000   0.00008   0.00008   3.14150
   D20       -0.00017   0.00001   0.00000   0.00011   0.00011  -0.00006
   D21       -3.14132  -0.00000   0.00000  -0.00026  -0.00027  -3.14159
   D22       -0.00154   0.00002   0.00000   0.00027   0.00026  -0.00128
   D23        0.00055  -0.00001   0.00000  -0.00035  -0.00037   0.00018
   D24        3.14033   0.00001   0.00000   0.00017   0.00016   3.14049
   D25        0.00010  -0.00001   0.00000  -0.00009  -0.00009   0.00001
   D26        3.14129   0.00000   0.00000   0.00004   0.00004   3.14133
   D27       -3.14149  -0.00001   0.00000  -0.00013  -0.00012   3.14157
   D28       -0.00031  -0.00000   0.00000  -0.00000   0.00000  -0.00030
   D29       -0.00026   0.00001   0.00000   0.00020   0.00019  -0.00007
   D30        3.14133   0.00000   0.00000   0.00001   0.00001   3.14134
   D31        3.14133   0.00001   0.00000   0.00023   0.00023   3.14156
   D32       -0.00026   0.00000   0.00000   0.00004   0.00004  -0.00022
   D33       -0.00074   0.00003   0.00000   0.00052   0.00051  -0.00022
   D34        3.14136   0.00001   0.00000   0.00022   0.00022   3.14158
   D35       -3.14052   0.00001   0.00000  -0.00001  -0.00002  -3.14054
   D36        0.00157  -0.00001   0.00000  -0.00031  -0.00031   0.00126
   D37        0.00061  -0.00002   0.00000  -0.00042  -0.00043   0.00018
   D38       -3.14155  -0.00000   0.00000  -0.00009  -0.00010   3.14154
   D39       -3.14099  -0.00001   0.00000  -0.00024  -0.00024  -3.14123
   D40        0.00004   0.00001   0.00000   0.00009   0.00009   0.00013
         Item               Value     Threshold  Converged?
 Maximum Force            0.051084     0.000450     NO 
 RMS     Force            0.010777     0.000300     NO 
 Maximum Displacement     0.091951     0.001800     NO 
 RMS     Displacement     0.028380     0.001200     NO 
 Predicted change in Energy=-1.080418D-02
 GradGradGradGradGradGradGradGradGradGradGradGradGradGradGradGradGradGrad

                          Input orientation:                          
 ---------------------------------------------------------------------
 Center     Atomic      Atomic             Coordinates (Angstroms)
 Number     Number       Type             X           Y           Z
 ---------------------------------------------------------------------
      1          6           0       -2.190313    0.694652    0.000040
      2          6           0       -2.148759   -0.691729   -0.000004
      3          6           0       -0.901613   -1.419317   -0.000015
      4          6           0        0.259040   -0.661401    0.000061
      5          6           0        0.247890    0.761297    0.000030
      6          6           0       -1.004477    1.461956    0.000010
      7          7           0        1.593651   -1.077101   -0.000046
      8          6           0        1.599009    1.150626   -0.000008
      9          6           0        2.415930   -0.013004    0.000090
     10          1           0        1.900037   -2.038794    0.000858
     11          1           0        1.967672    2.161751   -0.000262
     12          1           0        3.484625   -0.133015    0.000052
     13          1           0       -3.077465   -1.243282    0.000118
     14          1           0       -0.869231   -2.499094   -0.000125
     15          1           0       -3.150437    1.189805    0.000086
     16          1           0       -1.032357    2.540971    0.000235
 ---------------------------------------------------------------------
                    Distance matrix (angstroms):
                    1          2          3          4          5
     1  C    0.000000
     2  C    1.387003   0.000000
     3  C    2.475806   1.443869   0.000000
     4  C    2.799680   2.407990   1.386200   0.000000
     5  C    2.439114   2.802715   2.465043   1.422742   0.000000
     6  C    1.412432   2.438799   2.883109   2.470854   1.435042
     7  N    4.178216   3.762199   2.518621   1.397853   2.278328
     8  C    3.816657   4.176127   3.585766   2.253655   1.406093
     9  C    4.660285   4.614873   3.603305   2.252242   2.302160
    10  H    4.919623   4.267005   2.869320   2.142448   3.251169
    11  H    4.409220   5.008728   4.588774   3.299942   2.217864
    12  H    5.734977   5.661023   4.570958   3.268577   3.358013
    13  H    2.131344   1.080142   2.182962   3.386865   3.882825
    14  H    3.456193   2.214443   1.080262   2.156411   3.446464
    15  H    1.080284   2.131556   3.444522   3.879626   3.425236
    16  H    2.179393   3.420044   3.962445   3.452954   2.192320
                    6          7          8          9         10
     6  C    0.000000
     7  N    3.632778   0.000000
     8  C    2.622034   2.227734   0.000000
     9  C    3.724875   1.344784   1.421758   0.000000
    10  H    4.548786   1.009320   3.203595   2.090447   0.000000
    11  H    3.053422   3.260376   1.076237   2.220472   4.201090
    12  H    4.764029   2.113547   2.281071   1.075413   2.478490
    13  H    3.408166   4.674071   5.253590   5.629474   5.040671
    14  H    3.963358   2.843915   4.405981   4.119821   2.807263
    15  H    2.163148   5.257873   4.749607   5.694839   5.994259
    16  H    1.079375   4.470610   2.976095   4.291092   5.438123
                   11         12         13         14         15
    11  H    0.000000
    12  H    2.750836   0.000000
    13  H    6.086679   6.655353   0.000000
    14  H    5.456326   4.955239   2.540346   0.000000
    15  H    5.209580   6.765641   2.434181   4.337266   0.000000
    16  H    3.023902   5.249126   4.301516   5.042703   2.512352
                   16
    16  H    0.000000
 Stoichiometry    C8H7N
 Framework group  C1[X(C8H7N)]
 Deg. of freedom    42
 Full point group                 C1      NOp   1
 Largest Abelian subgroup         C1      NOp   1
 Largest concise Abelian subgroup C1      NOp   1
                         Standard orientation:                         
 ---------------------------------------------------------------------
 Center     Atomic      Atomic             Coordinates (Angstroms)
 Number     Number       Type             X           Y           Z
 ---------------------------------------------------------------------
      1          6           0       -2.209864    0.629427    0.000010
      2          6           0       -2.128632   -0.755196   -0.000034
      3          6           0       -0.861166   -1.446778   -0.000045
      4          6           0        0.277311   -0.655942    0.000031
      5          6           0        0.225432    0.765854    0.000000
      6          6           0       -1.046483    1.430369   -0.000020
      7          7           0        1.623277   -1.033259   -0.000076
      8          6           0        1.564850    1.193708   -0.000039
      9          6           0        2.414752    0.053944    0.000060
     10          1           0        1.957072   -1.985786    0.000828
     11          1           0        1.904412    2.214974   -0.000292
     12          1           0        3.486446   -0.035419    0.000022
     13          1           0       -3.041166   -1.333113    0.000088
     14          1           0       -0.797882   -2.525185   -0.000155
     15          1           0       -3.183771    1.096888    0.000056
     16          1           0       -1.105245    2.508143    0.000205
 ---------------------------------------------------------------------
 Rotational constants (GHZ):           3.8802704           1.6096196           1.1376839
 Standard basis: 6-31G(d) (6D, 7F)
 There are   149 symmetry adapted cartesian basis functions of A   symmetry.
 There are   149 symmetry adapted basis functions of A   symmetry.
   149 basis functions,   280 primitive gaussians,   149 cartesian basis functions
    31 alpha electrons       31 beta electrons
       nuclear repulsion energy       398.4879627436 Hartrees.
 NAtoms=   16 NActive=   16 NUniq=   16 SFac= 1.00D+00 NAtFMM=   60 NAOKFM=F Big=F
 Integral buffers will be    131072 words long.
 Raffenetti 1 integral format.
 Two-electron integral symmetry is turned on.
 One-electron integrals computed using PRISM.
 NBasis=   149 RedAO= T EigKep=  4.38D-04  NBF=   149
 NBsUse=   149 1.00D-06 EigRej= -1.00D+00 NBFU=   149
 Initial guess from the checkpoint file:  "FuncsM06HF2nd.chk"
 B after Tr=    -0.000000    0.000000   -0.000000
         Rot=    0.999904    0.000004    0.000002   -0.013832 Ang=   1.59 deg.
 ExpMin= 1.61D-01 ExpMax= 4.17D+03 ExpMxC= 6.27D+02 IAcc=3 IRadAn=         5 AccDes= 0.00D+00
 Harris functional with IExCor= 1009 and IRadAn=       5 diagonalized for initial guess.
 HarFok:  IExCor= 1009 AccDes= 0.00D+00 IRadAn=         5 IDoV= 1 UseB2=F ITyADJ=14
 ICtDFT=  3500011 ScaDFX=  1.000000  1.000000  1.000000  1.000000
 FoFCou: FMM=F IPFlag=           0 FMFlag=      100000 FMFlg1=           0
         NFxFlg=           0 DoJE=T BraDBF=F KetDBF=T FulRan=T
         wScrn=  0.000000 ICntrl=       500 IOpCl=  0 I1Cent=   200000004 NGrid=           0
         NMat0=    1 NMatS0=      1 NMatT0=    0 NMatD0=    1 NMtDS0=    0 NMtDT0=    0
 Petite list used in FoFCou.
 Keep R1 ints in memory in canonical form, NReq=64402215.
 Requested convergence on RMS density matrix=1.00D-08 within 128 cycles.
 Requested convergence on MAX density matrix=1.00D-06.
 Requested convergence on             energy=1.00D-06.
 No special actions if energy rises.
 Integral accuracy reduced to 1.0D-05 until final iterations.
 Initial convergence to 1.0D-05 achieved.  Increase integral accuracy.
 SCF Done:  E(RM06HF) =  -363.717394981     A.U. after   16 cycles
            NFock= 16  Conv=0.35D-08     -V/T= 2.0101
 DoSCS=F DFT=T ScalE2(SS,OS)=  1.000000  1.000000
 ExpMin= 1.61D-01 ExpMax= 4.17D+03 ExpMxC= 6.27D+02 IAcc=3 IRadAn=         5 AccDes= 0.00D+00
 HarFok:  IExCor=  205 AccDes= 0.00D+00 IRadAn=         5 IDoV=-2 UseB2=F ITyADJ=14
 ICtDFT= 12500011 ScaDFX=  1.000000  1.000000  1.000000  1.000000
 Range of M.O.s used for correlation:    10   149
 NBasis=   149 NAE=    31 NBE=    31 NFC=     9 NFV=     0
 NROrb=    140 NOA=    22 NOB=    22 NVA=   118 NVB=   118

 **** Warning!!: The largest alpha MO coefficient is  0.10674086D+02

 Orbital symmetries:
       Occupied  (A) (A) (A) (A) (A) (A) (A) (A) (A) (A) (A) (A)
                 (A) (A) (A) (A) (A) (A) (A) (A) (A) (A) (A) (A)
                 (A) (A) (A) (A) (A) (A) (A)
       Virtual   (A) (A) (A) (A) (A) (A) (A) (A) (A) (A) (A) (A)
                 (A) (A) (A) (A) (A) (A) (A) (A) (A) (A) (A) (A)
                 (A) (A) (A) (A) (A) (A) (A) (A) (A) (A) (A) (A)
                 (A) (A) (A) (A) (A) (A) (A) (A) (A) (A) (A) (A)
                 (A) (A) (A) (A) (A) (A) (A) (A) (A) (A) (A) (A)
                 (A) (A) (A) (A) (A) (A) (A) (A) (A) (A) (A) (A)
                 (A) (A) (A) (A) (A) (A) (A) (A) (A) (A) (A) (A)
                 (A) (A) (A) (A) (A) (A) (A) (A) (A) (A) (A) (A)
                 (A) (A) (A) (A) (A) (A) (A) (A) (A) (A) (A) (A)
                 (A) (A) (A) (A) (A) (A) (A) (A) (A) (A)
 Generating guess from densities on rwf.
 Convergence on wavefunction:    0.000001000000000
 Iteration     1 Dimension    12 NMult     0 NNew     12
 CISAX will form    12 AO SS matrices at one time.
 New state      1 was old state      2
 New state      2 was old state      1
 New state      4 was old state      5
 New state      5 was old state      6
 New state      6 was old state      4
 Iteration     2 Dimension    24 NMult    12 NNew     12
 Iteration     3 Dimension    36 NMult    24 NNew     12
 Iteration     4 Dimension    48 NMult    36 NNew     12
 Iteration     5 Dimension    60 NMult    48 NNew     12
 Iteration     6 Dimension    72 NMult    60 NNew     12
 Iteration     7 Dimension    84 NMult    72 NNew     12
 Iteration     8 Dimension    96 NMult    84 NNew     12
 Iteration     9 Dimension   104 NMult    96 NNew      8
 Iteration    10 Dimension   110 NMult   104 NNew      6
 Iteration    11 Dimension   116 NMult   110 NNew      6
 Iteration    12 Dimension   122 NMult   116 NNew      6
 Iteration    13 Dimension   128 NMult   122 NNew      6
 Iteration    14 Dimension   134 NMult   128 NNew      6
 Iteration    15 Dimension   138 NMult   134 NNew      4
 Iteration    16 Dimension   140 NMult   138 NNew      2
 Iteration    17 Dimension   142 NMult   140 NNew      2
 ***********************************************************************
 Excited states from <AA,BB:AA,BB> singles matrix:
 ***********************************************************************
 
 Ground to excited state transition densities written to RWF  633
 Ground to excited state transition electric dipole moments (Au):
       state          X           Y           Z        Dip. S.      Osc.
         1        -0.1518     -0.2795     -0.0001      0.1011      0.0132
         2        -1.0375      0.7633     -0.0000      1.6590      0.2061
         3        -1.9464     -0.7791     -0.0000      4.3955      0.7138
         4        -0.0022     -0.0014      0.0487      0.0024      0.0004
         5         0.4797     -0.0575      0.0001      0.2334      0.0420
         6         0.8171     -0.7337     -0.0000      1.2059      0.2209
 Ground to excited state transition velocity dipole moments (Au):
       state          X           Y           Z        Dip. S.      Osc.
         1         0.0310      0.0636      0.0000      0.0050      0.0170
         2         0.2007     -0.1728     -0.0000      0.0701      0.2509
         3         0.5144      0.2183      0.0000      0.3123      0.8547
         4         0.0006      0.0004     -0.0430      0.0019      0.0047
         5        -0.1462      0.0076     -0.0001      0.0214      0.0529
         6        -0.2421      0.2257      0.0000      0.1095      0.2658
 Ground to excited state transition magnetic dipole moments (Au):
       state          X           Y           Z
         1        -0.0001     -0.0001      0.1131
         2         0.0001      0.0001      0.0460
         3        -0.0002     -0.0001     -0.7039
         4         0.3291      0.1033      0.0009
         5         0.0005      0.0002     -1.1819
         6        -0.0001      0.0000     -0.3211
 Ground to excited state transition velocity quadrupole moments (Au):
       state          XX          YY          ZZ          XY          XZ          YZ
         1        -0.0293     -0.0999      0.0175      0.0631      0.0000     -0.0000
         2         0.2071     -0.1968     -0.0100     -0.0141     -0.0000      0.0000
         3        -0.0487     -0.0814     -0.0239     -0.5131      0.0001     -0.0002
         4        -0.0015      0.0004     -0.0001      0.0005     -0.1616      0.2076
         5         1.1163     -0.4053     -0.0176     -0.9148     -0.0002      0.0002
         6         0.9178     -0.2112      0.0455     -0.4802     -0.0000      0.0001
 <0|del|b> * <b|rxdel|0> + <0|del|b> * <b|delr+rdel|0>
 Rotatory Strengths (R) in cgs (10**-40 erg-esu-cm/Gauss)
       state          XX          YY          ZZ    R(velocity)    E-M Angle
         1        -0.0142     -0.0067     -0.0157     -0.0122       90.00
         2        -0.0583      0.0560     -0.0018     -0.0014       90.00
         3        -0.1585     -0.3280      0.0083     -0.1594       90.02
         4         0.0632      0.4389      0.0729      0.1916       89.17
         5         0.1723     -0.1195     -0.0574     -0.0015       90.00
         6         0.0177      0.0193      0.0548      0.0306       90.00
 1/2[<0|r|b>*<b|rxdel|0> + (<0|rxdel|b>*<b|r|0>)*]
 Rotatory Strengths (R) in cgs (10**-40 erg-esu-cm/Gauss)
       state          XX          YY          ZZ     R(length)
         1        -0.0142     -0.0254      0.0052     -0.0115
         2         0.0882     -0.0775      0.0012      0.0040
         3        -0.2835     -0.0768     -0.0170     -0.1258
         4         0.5115      0.1022     -0.0307      0.1943
         5        -0.1766      0.0093      0.0944     -0.0243
         6         0.0756      0.0107     -0.0018      0.0282
  1/2[<0|del|b>*<b|r|0> + (<0|r|b>*<b|del|0>)*] (Au)
       state          X           Y           Z        Dip. S.   Osc.(frdel)
         1        -0.0047     -0.0178     -0.0000      0.0225      0.0150
         2        -0.2082     -0.1319      0.0000      0.3401      0.2268
         3        -1.0012     -0.1701     -0.0000      1.1713      0.7809
         4        -0.0000     -0.0000     -0.0021      0.0021      0.0014
         5        -0.0701     -0.0004     -0.0000      0.0706      0.0470
         6        -0.1978     -0.1656     -0.0000      0.3634      0.2423

 Excitation energies and oscillator strengths:
 
 Excited State   1:      Singlet-A      5.3323 eV  232.52 nm  f=0.0132  <S**2>=0.000
      29 -> 33         0.10206
      30 -> 32         0.55076
      31 -> 33        -0.41742
 
 Excited State   2:      Singlet-A      5.0716 eV  244.47 nm  f=0.2061  <S**2>=0.000
      30 -> 33         0.10984
      31 -> 32         0.69301
 This state for optimization and/or second-order correction.
 Total Energy, E(TD-HF/TD-DFT) =  -363.531017225    
 Copying the excited state density for this state as the 1-particle RhoCI density.
 
 Excited State   3:      Singlet-A      6.6283 eV  187.05 nm  f=0.7138  <S**2>=0.000
      30 -> 32         0.42456
      31 -> 33         0.55121
 
 Excited State   4:      Singlet-A      7.2008 eV  172.18 nm  f=0.0004  <S**2>=0.000
      29 -> 34         0.18378
      30 -> 34        -0.11875
      31 -> 34         0.64110
 
 Excited State   5:      Singlet-A      7.3536 eV  168.60 nm  f=0.0420  <S**2>=0.000
      29 -> 32         0.57925
      31 -> 35        -0.37916
 
 Excited State   6:      Singlet-A      7.4767 eV  165.83 nm  f=0.2209  <S**2>=0.000
      30 -> 33         0.67634
      31 -> 32        -0.10085
      31 -> 35        -0.11078
 SavETr:  write IOETrn=   770 NScale= 10 NData=  16 NLR=1 NState=    6 LETran=     118.
          IDoAtm=1111111111111111
          Differentiating once with respect to electric field.
                with respect to dipole field.
          Differentiating once with respect to nuclear coordinates.
 Keep R1 ints in memory in canonical form, NReq=64414501.
          There are     1 degrees of freedom in the 1st order CPHF.  IDoFFX=0 NUNeed=     1.
 LinEq1:  Iter=  0 NonCon=     1 RMS=6.21D-03 Max=1.27D-01 NDo=     1
 AX will form     1 AO Fock derivatives at one time.
 LinEq1:  Iter=  1 NonCon=     1 RMS=2.62D-03 Max=6.44D-02 NDo=     1
 LinEq1:  Iter=  2 NonCon=     1 RMS=7.78D-04 Max=1.74D-02 NDo=     1
 LinEq1:  Iter=  3 NonCon=     1 RMS=4.53D-04 Max=1.46D-02 NDo=     1
 LinEq1:  Iter=  4 NonCon=     1 RMS=1.70D-04 Max=4.46D-03 NDo=     1
 LinEq1:  Iter=  5 NonCon=     1 RMS=6.06D-05 Max=1.57D-03 NDo=     1
 LinEq1:  Iter=  6 NonCon=     1 RMS=2.84D-05 Max=6.60D-04 NDo=     1
 LinEq1:  Iter=  7 NonCon=     1 RMS=1.22D-05 Max=2.74D-04 NDo=     1
 LinEq1:  Iter=  8 NonCon=     1 RMS=6.33D-06 Max=1.79D-04 NDo=     1
 LinEq1:  Iter=  9 NonCon=     1 RMS=2.01D-06 Max=3.49D-05 NDo=     1
 LinEq1:  Iter= 10 NonCon=     1 RMS=5.94D-07 Max=8.57D-06 NDo=     1
 LinEq1:  Iter= 11 NonCon=     1 RMS=3.17D-07 Max=8.50D-06 NDo=     1
 LinEq1:  Iter= 12 NonCon=     1 RMS=9.65D-08 Max=1.80D-06 NDo=     1
 LinEq1:  Iter= 13 NonCon=     1 RMS=3.85D-08 Max=7.43D-07 NDo=     1
 LinEq1:  Iter= 14 NonCon=     1 RMS=1.33D-08 Max=2.43D-07 NDo=     1
 LinEq1:  Iter= 15 NonCon=     1 RMS=4.49D-09 Max=6.23D-08 NDo=     1
 LinEq1:  Iter= 16 NonCon=     1 RMS=1.37D-09 Max=2.34D-08 NDo=     1
 LinEq1:  Iter= 17 NonCon=     1 RMS=2.95D-10 Max=5.86D-09 NDo=     1
 LinEq1:  Iter= 18 NonCon=     1 RMS=1.22D-10 Max=1.87D-09 NDo=     1
 LinEq1:  Iter= 19 NonCon=     0 RMS=3.15D-11 Max=4.78D-10 NDo=     1
 Linear equations converged to 1.000D-10 1.000D-09 after    19 iterations.
 End of Minotr F.D. properties file   721 does not exist.
 End of Minotr F.D. properties file   722 does not exist.
 End of Minotr F.D. properties file   788 does not exist.
 Calling FoFJK, ICntrl=  10005127 FMM=F ISym2X=0 I1Cent= 0 IOpClX= 0 NMat=1 NMatS=1 NMatT=0.
 ***** Axes restored to original set *****
 -------------------------------------------------------------------
 Center     Atomic                   Forces (Hartrees/Bohr)
 Number     Number              X              Y              Z
 -------------------------------------------------------------------
      1        6           0.002231889   -0.014427280   -0.000010301
      2        6          -0.010246201    0.015824820    0.000012820
      3        6           0.016328496   -0.007607123   -0.000000719
      4        6          -0.020508743   -0.001853799   -0.000010645
      5        6           0.011287562   -0.004806208   -0.000000094
      6        6           0.001261095    0.006635776    0.000007047
      7        7           0.006445744    0.012566996    0.000049083
      8        6          -0.014333591    0.012755629   -0.000011805
      9        6           0.007083484   -0.018671474   -0.000018629
     10        1          -0.001166752   -0.001400812   -0.000022219
     11        1           0.001830550    0.000335652    0.000004742
     12        1          -0.000288800    0.001638974    0.000005920
     13        1           0.000722644   -0.001508546   -0.000003723
     14        1          -0.001521287    0.000561724   -0.000000985
     15        1           0.000001159    0.000869373    0.000001070
     16        1           0.000872752   -0.000913703   -0.000001561
 -------------------------------------------------------------------
 Cartesian Forces:  Max     0.020508743 RMS     0.007212516

 GradGradGradGradGradGradGradGradGradGradGradGradGradGradGradGradGradGrad
 Berny optimization.
 Using GEDIIS/GDIIS optimizer.
 FormGI is forming the generalized inverse of G from B-inverse, IUseBI=4.
 Internal  Forces:  Max     0.011556733 RMS     0.002783446
 Search for a local minimum.
 Step number   2 out of a maximum of   94
 All quantities printed in internal units (Hartrees-Bohrs-Radians)
 Mixed Optimization -- RFO/linear search
 Update second derivatives using D2CorX and points    1    2
 DE= -1.23D-02 DEPred=-1.08D-02 R= 1.14D+00
 TightC=F SS=  1.41D+00  RLast= 2.14D-01 DXNew= 5.0454D-01 6.4132D-01
 Trust test= 1.14D+00 RLast= 2.14D-01 DXMaxT set to 5.05D-01
 ITU=  1  0
 Use linear search instead of GDIIS.
     Eigenvalues ---    0.01791   0.01869   0.01928   0.01945   0.02010
     Eigenvalues ---    0.02041   0.02076   0.02091   0.02098   0.02137
     Eigenvalues ---    0.02159   0.02173   0.02277   0.15867   0.16000
     Eigenvalues ---    0.16000   0.16000   0.16000   0.16000   0.16035
     Eigenvalues ---    0.20543   0.22057   0.22669   0.24521   0.24824
     Eigenvalues ---    0.35096   0.35147   0.35193   0.35285   0.35777
     Eigenvalues ---    0.35885   0.36333   0.37709   0.40213   0.42184
     Eigenvalues ---    0.43166   0.45942   0.46311   0.46618   0.46932
     Eigenvalues ---    0.48521   0.48816
 RFO step:  Lambda=-1.83538875D-03 EMin= 1.79075448D-02
 Quartic linear search produced a step of  0.20509.
 Iteration  1 RMS(Cart)=  0.00927515 RMS(Int)=  0.00008481
 Iteration  2 RMS(Cart)=  0.00012768 RMS(Int)=  0.00004102
 Iteration  3 RMS(Cart)=  0.00000000 RMS(Int)=  0.00004102
 Variable       Old X    -DE/DX   Delta X   Delta X   Delta X     New X
                                 (Linear)    (Quad)   (Total)
    R1        2.62106  -0.00854  -0.00913  -0.01725  -0.02643   2.59462
    R2        2.66911   0.00347   0.00926   0.00281   0.01204   2.68115
    R3        2.04144   0.00040  -0.00256   0.00306   0.00050   2.04195
    R4        2.72852   0.00853   0.02090   0.00846   0.02932   2.75784
    R5        2.04117   0.00015  -0.00250   0.00217  -0.00033   2.04085
    R6        2.61954  -0.00635  -0.00498  -0.01341  -0.01836   2.60118
    R7        2.04140  -0.00061  -0.00266  -0.00029  -0.00296   2.03844
    R8        2.68859  -0.00053  -0.00044  -0.00233  -0.00268   2.68592
    R9        2.64156   0.00404   0.00660   0.00463   0.01132   2.65288
   R10        2.71184  -0.00083   0.01113  -0.00963   0.00153   2.71337
   R11        2.65713  -0.00450  -0.01207  -0.00484  -0.01698   2.64015
   R12        2.03972  -0.00094  -0.00300  -0.00119  -0.00419   2.03554
   R13        2.54127  -0.00603  -0.01494  -0.00529  -0.02021   2.52106
   R14        1.90734   0.00098   0.00057   0.00218   0.00274   1.91008
   R15        2.68673   0.01156   0.02019   0.01545   0.03556   2.72230
   R16        2.03379   0.00094  -0.00201   0.00449   0.00248   2.03627
   R17        2.03224  -0.00047  -0.00228  -0.00005  -0.00234   2.02990
    A1        2.11514   0.00347   0.00026   0.01896   0.01916   2.13429
    A2        2.07690  -0.00094  -0.00080  -0.00306  -0.00382   2.07308
    A3        2.09115  -0.00253   0.00053  -0.01590  -0.01533   2.07581
    A4        2.12889  -0.00085   0.00279  -0.00581  -0.00310   2.12579
    A5        2.07675   0.00212  -0.00158   0.01569   0.01415   2.09090
    A6        2.07755  -0.00128  -0.00121  -0.00988  -0.01105   2.06650
    A7        2.03498  -0.00404  -0.00321  -0.01904  -0.02224   2.01274
    A8        2.12890   0.00048   0.00295  -0.00299  -0.00004   2.12886
    A9        2.11930   0.00356   0.00025   0.02203   0.02228   2.14158
   A10        2.14145   0.00594   0.00125   0.02904   0.03030   2.17175
   A11        2.26115  -0.00100  -0.00341  -0.00053  -0.00405   2.25710
   A12        1.88059  -0.00494   0.00216  -0.02850  -0.02625   1.85434
   A13        2.08872  -0.00227   0.00353  -0.01386  -0.01022   2.07849
   A14        1.84351   0.00524  -0.00445   0.02819   0.02367   1.86718
   A15        2.35096  -0.00297   0.00093  -0.01433  -0.01345   2.33751
   A16        2.05721  -0.00224  -0.00461  -0.00930  -0.01390   2.04331
   A17        2.11927   0.00199   0.00317   0.01042   0.01359   2.13285
   A18        2.10671   0.00025   0.00144  -0.00113   0.00031   2.10702
   A19        1.92675   0.00508   0.00388   0.02261   0.02662   1.95337
   A20        2.18117  -0.00401  -0.00155  -0.02254  -0.02415   2.15702
   A21        2.17527  -0.00107  -0.00233  -0.00007  -0.00247   2.17280
   A22        1.90234  -0.00257   0.00665  -0.01535  -0.00882   1.89352
   A23        2.20098   0.00292  -0.00289   0.01950   0.01666   2.21764
   A24        2.17987  -0.00035  -0.00376  -0.00415  -0.00784   2.17203
   A25        1.87159  -0.00281  -0.00824  -0.00695  -0.01522   1.85638
   A26        2.11687   0.00302   0.00344   0.01607   0.01953   2.13640
   A27        2.29472  -0.00022   0.00480  -0.00912  -0.00431   2.29041
    D1        0.00006  -0.00000  -0.00004  -0.00004  -0.00008  -0.00003
    D2        3.14149   0.00000   0.00000   0.00004   0.00004   3.14153
    D3       -3.14155  -0.00000  -0.00001  -0.00002  -0.00003  -3.14159
    D4       -0.00012   0.00000   0.00003   0.00006   0.00009  -0.00003
    D5       -0.00008   0.00000   0.00004   0.00005   0.00008   0.00000
    D6       -3.14139  -0.00000   0.00001  -0.00003  -0.00002  -3.14141
    D7        3.14153   0.00000   0.00001   0.00002   0.00003   3.14156
    D8        0.00022  -0.00000  -0.00001  -0.00005  -0.00007   0.00015
    D9        0.00003   0.00000   0.00002   0.00005   0.00006   0.00010
   D10       -3.14151   0.00000   0.00002   0.00003   0.00005  -3.14146
   D11       -3.14140  -0.00000  -0.00002  -0.00004  -0.00006  -3.14146
   D12        0.00024  -0.00000  -0.00002  -0.00005  -0.00007   0.00016
   D13       -0.00010  -0.00000   0.00000  -0.00006  -0.00006  -0.00016
   D14       -3.14148  -0.00000  -0.00002  -0.00006  -0.00008  -3.14156
   D15        3.14145  -0.00000   0.00000  -0.00004  -0.00004   3.14140
   D16        0.00006  -0.00000  -0.00002  -0.00004  -0.00006  -0.00000
   D17        0.00008   0.00000   0.00000   0.00007   0.00007   0.00014
   D18       -3.14149   0.00000   0.00001   0.00010   0.00011  -3.14138
   D19        3.14150   0.00000   0.00002   0.00007   0.00008   3.14159
   D20       -0.00006   0.00000   0.00002   0.00010   0.00013   0.00006
   D21       -3.14159  -0.00000  -0.00006  -0.00007  -0.00013   3.14147
   D22       -0.00128   0.00001   0.00005   0.00043   0.00048  -0.00081
   D23        0.00018  -0.00000  -0.00007  -0.00007  -0.00015   0.00003
   D24        3.14049   0.00001   0.00003   0.00043   0.00045   3.14095
   D25        0.00001  -0.00000  -0.00002  -0.00006  -0.00007  -0.00006
   D26        3.14133   0.00000   0.00001   0.00002   0.00003   3.14136
   D27        3.14157  -0.00000  -0.00003  -0.00010  -0.00013   3.14145
   D28       -0.00030  -0.00000   0.00000  -0.00003  -0.00002  -0.00033
   D29       -0.00007   0.00000   0.00004  -0.00010  -0.00006  -0.00013
   D30        3.14134   0.00000   0.00000   0.00006   0.00006   3.14140
   D31        3.14156   0.00000   0.00005  -0.00005  -0.00001   3.14155
   D32       -0.00022   0.00000   0.00001   0.00010   0.00011  -0.00011
   D33       -0.00022   0.00000   0.00011   0.00001   0.00012  -0.00011
   D34        3.14158   0.00000   0.00004  -0.00002   0.00003  -3.14158
   D35       -3.14054  -0.00001  -0.00000  -0.00047  -0.00048  -3.14102
   D36        0.00126  -0.00001  -0.00006  -0.00049  -0.00056   0.00070
   D37        0.00018  -0.00000  -0.00009   0.00005  -0.00004   0.00015
   D38        3.14154   0.00000  -0.00002   0.00009   0.00007  -3.14158
   D39       -3.14123  -0.00000  -0.00005  -0.00011  -0.00015  -3.14138
   D40        0.00013  -0.00000   0.00002  -0.00007  -0.00005   0.00008
         Item               Value     Threshold  Converged?
 Maximum Force            0.011557     0.000450     NO 
 RMS     Force            0.002783     0.000300     NO 
 Maximum Displacement     0.031328     0.001800     NO 
 RMS     Displacement     0.009264     0.001200     NO 
 Predicted change in Energy=-1.329851D-03
 GradGradGradGradGradGradGradGradGradGradGradGradGradGradGradGradGradGrad

                          Input orientation:                          
 ---------------------------------------------------------------------
 Center     Atomic      Atomic             Coordinates (Angstroms)
 Number     Number       Type             X           Y           Z
 ---------------------------------------------------------------------
      1          6           0       -2.181361    0.683888    0.000032
      2          6           0       -2.153063   -0.688836    0.000025
      3          6           0       -0.897136   -1.432110    0.000009
      4          6           0        0.243202   -0.661176    0.000122
      5          6           0        0.252407    0.760120    0.000064
      6          6           0       -0.997789    1.466295    0.000054
      7          7           0        1.588421   -1.062632    0.000109
      8          6           0        1.591214    1.159503   -0.000063
      9          6           0        2.419576   -0.019090    0.000088
     10          1           0        1.883459   -2.029386    0.000686
     11          1           0        1.967716    2.169135   -0.000302
     12          1           0        3.487611   -0.133795    0.000066
     13          1           0       -3.078963   -1.244752    0.000065
     14          1           0       -0.871584   -2.510503   -0.000116
     15          1           0       -3.138969    1.184466    0.000051
     16          1           0       -1.021540    2.543193    0.000229
 ---------------------------------------------------------------------
                    Distance matrix (angstroms):
                    1          2          3          4          5
     1  C    0.000000
     2  C    1.373016   0.000000
     3  C    2.475214   1.459386   0.000000
     4  C    2.772671   2.396424   1.376484   0.000000
     5  C    2.434962   2.808159   2.475342   1.421326   0.000000
[...]
 ! A26   A(7,9,12)             122.5945         -DE/DX =    0.0                 !
 ! A27   A(8,9,12)             131.0338         -DE/DX =    0.0                 !
 ! D1    D(6,1,2,3)             -0.0017         -DE/DX =    0.0                 !
 ! D2    D(6,1,2,13)           179.9978         -DE/DX =    0.0                 !
 ! D3    D(15,1,2,3)           180.0004         -DE/DX =    0.0                 !
 ! D4    D(15,1,2,13)           -0.0001         -DE/DX =    0.0                 !
 ! D5    D(2,1,6,5)              0.0013         -DE/DX =    0.0                 !
 ! D6    D(2,1,6,16)          -179.9944         -DE/DX =    0.0                 !
 ! D7    D(15,1,6,5)           179.9993         -DE/DX =    0.0                 !
 ! D8    D(15,1,6,16)            0.0035         -DE/DX =    0.0                 !
 ! D9    D(1,2,3,4)              0.0021         -DE/DX =    0.0                 !
 ! D10   D(1,2,3,14)          -179.9949         -DE/DX =    0.0                 !
 ! D11   D(13,2,3,4)          -179.9974         -DE/DX =    0.0                 !
 ! D12   D(13,2,3,14)            0.0056         -DE/DX =    0.0                 !
 ! D13   D(2,3,4,5)             -0.0024         -DE/DX =    0.0                 !
 ! D14   D(2,3,4,7)           -179.9973         -DE/DX =    0.0                 !
 ! D15   D(14,3,4,5)           179.9946         -DE/DX =    0.0                 !
 ! D16   D(14,3,4,7)            -0.0003         -DE/DX =    0.0                 !
 ! D17   D(3,4,5,6)              0.0022         -DE/DX =    0.0                 !
 ! D18   D(3,4,5,8)           -179.9945         -DE/DX =    0.0                 !
 ! D19   D(7,4,5,6)            179.9981         -DE/DX =    0.0                 !
 ! D20   D(7,4,5,8)              0.0014         -DE/DX =    0.0                 !
 ! D21   D(3,4,7,9)            179.992          -DE/DX =    0.0                 !
 ! D22   D(3,4,7,10)            -0.0082         -DE/DX =    0.0                 !
 ! D23   D(5,4,7,9)             -0.0036         -DE/DX =    0.0                 !
 ! D24   D(5,4,7,10)           179.9961         -DE/DX =    0.0                 !
 ! D25   D(4,5,6,1)             -0.0015         -DE/DX =    0.0                 !
 ! D26   D(4,5,6,16)           179.9943         -DE/DX =    0.0                 !
 ! D27   D(8,5,6,1)            179.9941         -DE/DX =    0.0                 !
 ! D28   D(8,5,6,16)            -0.01           -DE/DX =    0.0                 !
 ! D29   D(4,5,8,9)              0.0011         -DE/DX =    0.0                 !
 ! D30   D(4,5,8,11)           179.9963         -DE/DX =    0.0                 !
 ! D31   D(6,5,8,9)            180.0051         -DE/DX =    0.0                 !
 ! D32   D(6,5,8,11)             0.0003         -DE/DX =    0.0                 !
 ! D33   D(4,7,9,8)              0.0042         -DE/DX =    0.0                 !
 ! D34   D(4,7,9,12)           179.9989         -DE/DX =    0.0                 !
 ! D35   D(10,7,9,8)           180.0045         -DE/DX =    0.0                 !
 ! D36   D(10,7,9,12)           -0.0008         -DE/DX =    0.0                 !
 ! D37   D(5,8,9,7)             -0.0032         -DE/DX =    0.0                 !
 ! D38   D(5,8,9,12)          -179.9973         -DE/DX =    0.0                 !
 ! D39   D(11,8,9,7)          -179.9986         -DE/DX =    0.0                 !
 ! D40   D(11,8,9,12)            0.0073         -DE/DX =    0.0                 !
 --------------------------------------------------------------------------------
 GradGradGradGradGradGradGradGradGradGradGradGradGradGradGradGradGradGrad

                          Input orientation:                          
 ---------------------------------------------------------------------
 Center     Atomic      Atomic             Coordinates (Angstroms)
 Number     Number       Type             X           Y           Z
 ---------------------------------------------------------------------
      1          6           0       -2.180054    0.681738   -0.000007
      2          6           0       -2.157023   -0.690696    0.000058
      3          6           0       -0.895903   -1.433528    0.000124
      4          6           0        0.239519   -0.660218    0.000162
      5          6           0        0.250808    0.761683    0.000092
      6          6           0       -0.995046    1.464066    0.000022
      7          7           0        1.587793   -1.062323    0.000175
      8          6           0        1.593513    1.163292    0.000034
      9          6           0        2.421476   -0.018360    0.000042
     10          1           0        1.878520   -2.030904    0.000279
     11          1           0        1.973851    2.171110   -0.000082
     12          1           0        3.489938   -0.130952    0.000047
     13          1           0       -3.081201   -1.249591    0.000069
     14          1           0       -0.872621   -2.511986    0.000094
     15          1           0       -3.135291    1.189492   -0.000048
     16          1           0       -1.025080    2.541497    0.000059
 ---------------------------------------------------------------------
                    Distance matrix (angstroms):
                    1          2          3          4          5
     1  C    0.000000
     2  C    1.372627   0.000000
     3  C    2.474549   1.463634   0.000000
     4  C    2.766800   2.396737   1.373751   0.000000
     5  C    2.432176   2.811949   2.476670   1.421946   0.000000
     6  C    1.419958   2.448099   2.899289   2.456977   1.430207
     7  N    4.151918   3.763211   2.511282   1.406958   2.261532
     8  C    3.804169   4.183753   3.597313   2.271230   1.401480
     9  C    4.654484   4.627602   3.606619   2.274405   2.306571
    10  H    4.881644   4.252266   2.838006   2.136610   3.232335
    11  H    4.412841   5.025342   4.607483   3.320290   2.226064
    12  H    5.727939   5.674636   4.575183   3.293227   3.359875
    13  H    2.131219   1.080031   2.193026   3.372617   3.891980
    14  H    3.450978   2.228629   1.078710   2.160069   3.461069
    15  H    1.081800   2.119461   3.448926   3.848477   3.413017
    16  H    2.189217   3.424671   3.977123   3.442411   2.189892
                    6          7          8          9         10
     6  C    0.000000
     7  N    3.612990   0.000000
     8  C    2.605974   2.225622   0.000000
     9  C    3.724274   1.335996   1.442853   0.000000
    10  H    4.524621   1.011272   3.206886   2.084499   0.000000
    11  H    3.051928   3.256398   1.077197   2.234759   4.203095
    12  H    4.760165   2.117925   2.295974   1.074378   2.491282
    13  H    3.422860   4.672748   5.260699   5.638740   5.020884
    14  H    3.977936   2.855724   4.426001   4.131494   2.792886
    15  H    2.157785   5.232418   4.728876   5.686525   5.958964
    16  H    1.077850   4.451362   2.959134   4.293206   5.416433
                   11         12         13         14         15
    11  H    0.000000
    12  H    2.756448   0.000000
    13  H    6.103667   6.665675   0.000000
    14  H    5.480309   4.970034   2.543908   0.000000
    15  H    5.202587   6.755533   2.439683   4.338273   0.000000
    16  H    3.021717   5.246653   4.312770   5.055782   2.506174
                   16
    16  H    0.000000
 Stoichiometry    C8H7N
 Framework group  C1[X(C8H7N)]
 Deg. of freedom    42
 Full point group                 C1      NOp   1
 Largest Abelian subgroup         C1      NOp   1
 Largest concise Abelian subgroup C1      NOp   1
                         Standard orientation:                         
 ---------------------------------------------------------------------
 Center     Atomic      Atomic             Coordinates (Angstroms)
 Number     Number       Type             X           Y           Z
 ---------------------------------------------------------------------
      1          6           0       -2.193707    0.634197   -0.000084
      2          6           0       -2.142370   -0.737469   -0.000020
      3          6           0       -0.866195   -1.454128    0.000047
      4          6           0        0.253034   -0.657562    0.000084
      5          6           0        0.234989    0.764269    0.000014
      6          6           0       -1.025088    1.440803   -0.000056
      7          7           0        1.609315   -1.031769    0.000098
      8          6           0        1.569124    1.193490   -0.000044
      9          6           0        2.421287    0.029168   -0.000035
     10          1           0        1.919960   -1.994148    0.000201
     11          1           0        1.928593    2.208939   -0.000159
     12          1           0        3.491843   -0.061360   -0.000030
     13          1           0       -3.054822   -1.315308   -0.000008
     14          1           0       -0.820672   -2.531877    0.000016
     15          1           0       -3.159214    1.122140   -0.000126
     16          1           0       -1.077340    2.517386   -0.000019
 ---------------------------------------------------------------------
 Rotational constants (GHZ):           3.8686383           1.6141529           1.1389406

 **********************************************************************

            Population analysis using the CI Density.

 **********************************************************************

 Orbital symmetries:
       Occupied  (A) (A) (A) (A) (A) (A) (A) (A) (A) (A) (A) (A)
                 (A) (A) (A) (A) (A) (A) (A) (A) (A) (A) (A) (A)
                 (A) (A) (A) (A) (A) (A) (A)
       Virtual   (A) (A) (A) (A) (A) (A) (A) (A) (A) (A) (A) (A)
                 (A) (A) (A) (A) (A) (A) (A) (A) (A) (A) (A) (A)
                 (A) (A) (A) (A) (A) (A) (A) (A) (A) (A) (A) (A)
                 (A) (A) (A) (A) (A) (A) (A) (A) (A) (A) (A) (A)
                 (A) (A) (A) (A) (A) (A) (A) (A) (A) (A) (A) (A)
                 (A) (A) (A) (A) (A) (A) (A) (A) (A) (A) (A) (A)
                 (A) (A) (A) (A) (A) (A) (A) (A) (A) (A) (A) (A)
                 (A) (A) (A) (A) (A) (A) (A) (A) (A) (A) (A) (A)
                 (A) (A) (A) (A) (A) (A) (A) (A) (A) (A) (A) (A)
                 (A) (A) (A) (A) (A) (A) (A) (A) (A) (A)
 The electronic state is 1-A.
 Alpha  occ. eigenvalues --  -15.30727 -11.01320 -11.00195 -10.97625 -10.96922
 Alpha  occ. eigenvalues --  -10.96665 -10.96513 -10.95999 -10.95328  -1.21357
 Alpha  occ. eigenvalues --   -1.04880  -0.97823  -0.94088  -0.89797  -0.81096
 Alpha  occ. eigenvalues --   -0.77551  -0.75033  -0.71128  -0.64695  -0.63227
 Alpha  occ. eigenvalues --   -0.59046  -0.58383  -0.58018  -0.54953  -0.53254
 Alpha  occ. eigenvalues --   -0.48087  -0.47675  -0.47567  -0.39689  -0.33951
 Alpha  occ. eigenvalues --   -0.28606
 Alpha virt. eigenvalues --    0.06223   0.12394   0.16112   0.17392   0.20035
 Alpha virt. eigenvalues --    0.22731   0.24088   0.25800   0.27333   0.28409
 Alpha virt. eigenvalues --    0.30365   0.31891   0.35053   0.36586   0.38061
 Alpha virt. eigenvalues --    0.42073   0.43548   0.47117   0.55136   0.59305
 Alpha virt. eigenvalues --    0.62127   0.63014   0.64057   0.64299   0.66759
 Alpha virt. eigenvalues --    0.67082   0.68476   0.69889   0.70176   0.72565
 Alpha virt. eigenvalues --    0.72582   0.72891   0.73257   0.75575   0.76310
 Alpha virt. eigenvalues --    0.79951   0.82182   0.88100   0.91680   0.92673
 Alpha virt. eigenvalues --    0.93952   0.98054   0.99784   1.00358   1.00889
 Alpha virt. eigenvalues --    1.02698   1.03011   1.05269   1.06133   1.07433
 Alpha virt. eigenvalues --    1.08196   1.11875   1.15140   1.18726   1.20908
 Alpha virt. eigenvalues --    1.28249   1.34908   1.35390   1.37699   1.44449
 Alpha virt. eigenvalues --    1.44768   1.46635   1.52610   1.53264   1.56117
 Alpha virt. eigenvalues --    1.59503   1.60700   1.62372   1.63135   1.63417
 Alpha virt. eigenvalues --    1.67190   1.84993   1.87906   1.95069   1.96242
 Alpha virt. eigenvalues --    1.99856   2.06172   2.08530   2.09854   2.12183
 Alpha virt. eigenvalues --    2.13825   2.18218   2.19280   2.22699   2.23167
 Alpha virt. eigenvalues --    2.26876   2.28933   2.30396   2.33380   2.36189
 Alpha virt. eigenvalues --    2.36515   2.43695   2.48169   2.49193   2.54587
 Alpha virt. eigenvalues --    2.61003   2.61409   2.65287   2.69382   2.69694
 Alpha virt. eigenvalues --    2.76007   2.77432   2.83503   2.85717   2.93295
 Alpha virt. eigenvalues --    2.97120   3.15156   3.19894   3.42279   3.97788
 Alpha virt. eigenvalues --    4.07075   4.09658   4.13051   4.19876   4.31148
 Alpha virt. eigenvalues --    4.38166   4.43512   4.72607
          Condensed to atoms (all electrons):
               1          2          3          4          5          6
     1  C    4.930235   0.602316  -0.045092  -0.044402   0.007519   0.451028
     2  C    0.602316   5.018554   0.368625   0.016512  -0.037074  -0.046967
     3  C   -0.045092   0.368625   5.197222   0.541382  -0.074097  -0.032010
     4  C   -0.044402   0.016512   0.541382   4.782059   0.499094  -0.048569
     5  C    0.007519  -0.037074  -0.074097   0.499094   4.749504   0.448219
     6  C    0.451028  -0.046967  -0.032010  -0.048569   0.448219   5.188016
     7  N    0.000064   0.005527  -0.105379   0.212588  -0.039106   0.008487
     8  C    0.008572   0.000063   0.013779  -0.013910   0.478191  -0.111179
     9  C   -0.000424  -0.000245   0.006467  -0.124714  -0.037901   0.011737
    10  H   -0.000003  -0.000040  -0.003350  -0.023453   0.005958  -0.000061
    11  H    0.000007   0.000006  -0.000132   0.006850  -0.027373  -0.004372
    12  H    0.000002   0.000000  -0.000092   0.004640   0.001581  -0.000091
    13  H   -0.033337   0.369790  -0.037354   0.002139   0.001277   0.003330
    14  H    0.003503  -0.034964   0.362561  -0.035556   0.004556   0.000457
    15  H    0.371385  -0.038179   0.003687   0.001079   0.002180  -0.035625
    16  H   -0.039597   0.004007   0.000576   0.004890  -0.037514   0.367877
               7          8          9         10         11         12
     1  C    0.000064   0.008572  -0.000424  -0.000003   0.000007   0.000002
     2  C    0.005527   0.000063  -0.000245  -0.000040   0.000006   0.000000
     3  C   -0.105379   0.013779   0.006467  -0.003350  -0.000132  -0.000092
     4  C    0.212588  -0.013910  -0.124714  -0.023453   0.006850   0.004640
     5  C   -0.039106   0.478191  -0.037901   0.005958  -0.027373   0.001581
     6  C    0.008487  -0.111179   0.011737  -0.000061  -0.004372  -0.000091
     7  N    7.048773  -0.066944   0.356282   0.324976   0.003989  -0.043228
     8  C   -0.066944   5.252324   0.380323   0.005096   0.373300  -0.026005
     9  C    0.356282   0.380323   5.040660  -0.032229  -0.048585   0.377628
    10  H    0.324976   0.005096  -0.032229   0.345032  -0.000067  -0.002540
    11  H    0.003989   0.373300  -0.048585  -0.000067   0.487203  -0.000499
    12  H   -0.043228  -0.026005   0.377628  -0.002540  -0.000499   0.465224
    13  H   -0.000105   0.000011   0.000002  -0.000001  -0.000000  -0.000000
    14  H   -0.006614  -0.000285  -0.000009   0.002572   0.000002   0.000002
    15  H    0.000003  -0.000167   0.000004  -0.000000  -0.000002  -0.000000
    16  H   -0.000113  -0.006099  -0.000045   0.000003   0.001936  -0.000000
              13         14         15         16
     1  C   -0.033337   0.003503   0.371385  -0.039597
     2  C    0.369790  -0.034964  -0.038179   0.004007
     3  C   -0.037354   0.362561   0.003687   0.000576
     4  C    0.002139  -0.035556   0.001079   0.004890
     5  C    0.001277   0.004556   0.002180  -0.037514
     6  C    0.003330   0.000457  -0.035625   0.367877
     7  N   -0.000105  -0.006614   0.000003  -0.000113
     8  C    0.000011  -0.000285  -0.000167  -0.006099
     9  C    0.000002  -0.000009   0.000004  -0.000045
    10  H   -0.000001   0.002572  -0.000000   0.000003
    11  H   -0.000000   0.000002  -0.000002   0.001936
    12  H   -0.000000   0.000002  -0.000000  -0.000000
    13  H    0.532555  -0.003119  -0.005115  -0.000142
    14  H   -0.003119   0.543654  -0.000128   0.000012
    15  H   -0.005115  -0.000128   0.534623  -0.003742
    16  H   -0.000142   0.000012  -0.003742   0.542944
 Mulliken charges:
               1
     1  C   -0.211779
     2  C   -0.227932
     3  C   -0.196795
     4  C    0.219369
     5  C    0.054987
     6  C   -0.200278
     7  N   -0.699201
     8  C   -0.287070
     9  C    0.071047
    10  H    0.378108
    11  H    0.207738
    12  H    0.223377
    13  H    0.170070
    14  H    0.163355
    15  H    0.169997
    16  H    0.165007
 Sum of Mulliken charges =  -0.00000
 Mulliken charges with hydrogens summed into heavy atoms:
               1
     1  C   -0.041782
     2  C   -0.057863
     3  C   -0.033440
     4  C    0.219369
     5  C    0.054987
     6  C   -0.035272
     7  N   -0.321093
     8  C   -0.079332
     9  C    0.294424
 Electronic spatial extent (au):  <R**2>=           1015.0606
 Charge=             -0.0000 electrons
 Dipole moment (field-independent basis, Debye):
    X=              4.1294    Y=             -1.6170    Z=              0.0001  Tot=              4.4347
 Quadrupole moment (field-independent basis, Debye-Ang):
   XX=            -41.7982   YY=            -43.7802   ZZ=            -58.3735
   XY=             -2.8051   XZ=              0.0003   YZ=             -0.0008
 Traceless Quadrupole moment (field-independent basis, Debye-Ang):
   XX=              6.1858   YY=              4.2038   ZZ=            -10.3895
   XY=             -2.8051   XZ=              0.0003   YZ=             -0.0008
 Octapole moment (field-independent basis, Debye-Ang**2):
  XXX=             28.7828  YYY=             -9.9726  ZZZ=              0.0005  XYY=             12.5229
  XXY=             -7.5054  XXZ=              0.0000  XZZ=              4.3120  YZZ=             -1.7645
  YYZ=              0.0007  XYZ=             -0.0017
 Hexadecapole moment (field-independent basis, Debye-Ang**3):
 XXXX=           -779.2426 YYYY=           -361.0880 ZZZZ=            -62.2822 XXXY=            -19.4859
 XXXZ=             -0.0031 YYYX=            -16.8946 YYYZ=              0.0041 ZZZX=             -0.0055
 ZZZY=              0.0088 XXYY=           -186.8058 XXZZ=           -182.3556 YYZZ=            -90.2044
 XXYZ=             -0.0014 YYXZ=             -0.0002 ZZXY=             -2.8107
 N-N= 3.984928318364D+02 E-N=-1.639243545685D+03  KE= 3.602169701647D+02
 Unable to Open any file for archive entry.
 1\1\GINC-COMET-07-11\FOpt\RM06HF TD-FC\6-31G(d)\C8H7N1\SCAPARAS\14-Feb
 -2021\0\\# td= (nstates=6, root=2) M06HF/6-31G(d) Opt density=current\
 \FuncsM06HF2nd\\0,1\C,-2.1800543594,0.6817375575,-0.0000067757\C,-2.15
 70234867,-0.6906958403,0.0000579982\C,-0.8959026037,-1.43352751,0.0001
 243154\C,0.2395194639,-0.6602182731,0.0001620069\C,0.2508078368,0.7616
 831605,0.0000918938\C,-0.995046194,1.4640655986,0.0000215056\N,1.58779
 3185,-1.0623229486,0.0001753216\C,1.5935127328,1.1632920587,0.00003380
 74\C,2.4214764978,-0.0183602304,0.0000422598\H,1.8785195812,-2.0309043
 066,0.0002788017\H,1.9738514299,2.1711097205,-0.0000818736\H,3.4899381
 335,-0.1309522151,0.000047325\H,-3.0812010509,-1.2495905925,0.00006921
 66\H,-0.8726207227,-2.5119857783,0.000093811\H,-3.1352908498,1.1894923
 1,-0.0000484285\H,-1.0250795937,2.541497289,0.0000588147\\Version=ES64
 L-G16RevC.01\State=1-A\HF=-363.7117907\RMSD=7.698e-09\RMSF=9.543e-05\D
 ipole=1.6246165,-0.6361698,0.000055\Quadrupole=4.5989677,3.1254078,-7.
 7243755,-2.0855451,0.00023,-0.0005615\PG=C01 [X(C8H7N1)]\\@
 The archive entry for this job was punched.


 VIRTUE IS LEARNED AT YOUR MOTHER'S KNEE,
 VICES ARE PICKED UP AT SOME OTHER JOINT.
 Job cpu time:       0 days  2 hours  0 minutes 19.9 seconds.
 Elapsed time:       0 days  1 hours  0 minutes 23.9 seconds.
 File lengths (MBytes):  RWF=    202 Int=      0 D2E=      0 Chk=      8 Scr=      1
 Normal termination of Gaussian 16 at Sun Feb 14 22:13:52 2021.
