 Entering Gaussian System, Link 0=/cm/shared/apps/spack/cpu/opt/spack/linux-centos8-zen/gcc-8.3.1/gaussian-16.C.01-po5bqktfeugvmjyga3v7eigbecnokxng/g16/g16
 Initial command:
 /cm/shared/apps/spack/cpu/opt/spack/linux-centos8-zen/gcc-8.3.1/gaussian-16.C.01-po5bqktfeugvmjyga3v7eigbecnokxng/g16/l1.exe "/scratch/cwaldt/job_3581963/Gau-16465.inp" -scrdir="/scratch/cwaldt/job_3581963/"
 Entering Link 1 = /cm/shared/apps/spack/cpu/opt/spack/linux-centos8-zen/gcc-8.3.1/gaussian-16.C.01-po5bqktfeugvmjyga3v7eigbecnokxng/g16/l1.exe PID=     16466.
  
 Copyright (c) 1988-2019, Gaussian, Inc.  All Rights Reserved.
  
 This is part of the Gaussian(R) 16 program.  It is based on
 the Gaussian(R) 09 system (copyright 2009, Gaussian, Inc.),
 the Gaussian(R) 03 system (copyright 2003, Gaussian, Inc.),
 the Gaussian(R) 98 system (copyright 1998, Gaussian, Inc.),
 the Gaussian(R) 94 system (copyright 1995, Gaussian, Inc.),
 the Gaussian 92(TM) system (copyright 1992, Gaussian, Inc.),
 the Gaussian 90(TM) system (copyright 1990, Gaussian, Inc.),
 the Gaussian 88(TM) system (copyright 1988, Gaussian, Inc.),
 the Gaussian 86(TM) system (copyright 1986, Carnegie Mellon
 University), and the Gaussian 82(TM) system (copyright 1983,
 Carnegie Mellon University). Gaussian is a federally registered
 trademark of Gaussian, Inc.
  
 This software contains proprietary and confidential information,
 including trade secrets, belonging to Gaussian, Inc.
  
 This software is provided under written license and may be
 used, copied, transmitted, or stored only in accord with that
 written license.
  
 The following legend is applicable only to US Government
 contracts under FAR:
  
                    RESTRICTED RIGHTS LEGEND
  
 Use, reproduction and disclosure by the US Government is
 subject to restrictions as set forth in subparagraphs (a)
 and (c) of the Commercial Computer Software - Restricted
 Rights clause in FAR 52.227-19.
  
 Gaussian, Inc.
 340 Quinnipiac St., Bldg. 40, Wallingford CT 06492
  
  
 ---------------------------------------------------------------
 Warning -- This program may not be used in any manner that
 competes with the business of Gaussian, Inc. or will provide
 assistance to any competitor of Gaussian, Inc.  The licensee
 of this program is prohibited from giving any competitor of
 Gaussian, Inc. access to this program.  By using this program,
 the user acknowledges that Gaussian, Inc. is engaged in the
 business of creating and licensing software in the field of
 computational chemistry and represents and warrants to the
 licensee that it is not a competitor of Gaussian, Inc. and that
 it will not use this program in any manner prohibited above.
 ---------------------------------------------------------------
  

 Cite this work as:
 Gaussian 16, Revision C.01,
 M. J. Frisch, G. W. Trucks, H. B. Schlegel, G. E. Scuseria, 
 M. A. Robb, J. R. Cheeseman, G. Scalmani, V. Barone, 
 G. A. Petersson, H. Nakatsuji, X. Li, M. Caricato, A. V. Marenich, 
 J. Bloino, B. G. Janesko, R. Gomperts, B. Mennucci, H. P. Hratchian, 
 J. V. Ortiz, A. F. Izmaylov, J. L. Sonnenberg, D. Williams-Young, 
 F. Ding, F. Lipparini, F. Egidi, J. Goings, B. Peng, A. Petrone, 
 T. Henderson, D. Ranasinghe, V. G. Zakrzewski, J. Gao, N. Rega, 
 G. Zheng, W. Liang, M. Hada, M. Ehara, K. Toyota, R. Fukuda, 
 J. Hasegawa, M. Ishida, T. Nakajima, Y. Honda, O. Kitao, H. Nakai, 
 T. Vreven, K. Throssell, J. A. Montgomery, Jr., J. E. Peralta, 
 F. Ogliaro, M. J. Bearpark, J. J. Heyd, E. N. Brothers, K. N. Kudin, 
 V. N. Staroverov, T. A. Keith, R. Kobayashi, J. Normand, 
 K. Raghavachari, A. P. Rendell, J. C. Burant, S. S. Iyengar, 
 J. Tomasi, M. Cossi, J. M. Millam, M. Klene, C. Adamo, R. Cammi, 
 J. W. Ochterski, R. L. Martin, K. Morokuma, O. Farkas, 
 J. B. Foresman, and D. J. Fox, Gaussian, Inc., Wallingford CT, 2019.
 
 ******************************************
 Gaussian 16:  AS64L-G16RevC.01  3-Jul-2019
                23-Jun-2021 
 ******************************************
 %nprocshared=4
 Will use up to    4 processors via shared memory.
 %chk=FuncsWB97XD-V-2nd.chk
 %Mem=3GB
 ------------------------------------------------------------
 # td= (nstates=6, root=2) WB97XD/6-31+G* Opt density=current
 ------------------------------------------------------------
 1/18=20,19=15,26=3,38=1/1,3;
 2/9=110,12=2,17=6,18=5,40=1/2;
 3/5=1,6=6,7=11,11=9,25=1,30=1,71=1,74=-58/1,2,3,8;
 4//1;
 5/5=2,38=5/2;
 8/6=1,10=2,107=2,108=6/1;
 9/8=2,15=2,41=6,42=1,70=2/14;
 10/5=4,28=2/2;
 6/7=2,8=2,9=2,10=2,22=-1/1;
 7/12=6,13=5,14=2/1,2,3,16;
 1/18=20,19=15,26=3/3(2);
 2/9=110/2;
 99//99;
 2/9=110/2;
 3/5=1,6=6,7=11,11=9,25=1,30=1,71=1,74=-58/1,2,3,8;
 4/5=5,16=3,69=1/1;
 5/5=2,38=5/2;
 8/6=1,10=2,107=2,108=6/1;
 9/8=2,15=2,41=6,42=1,49=4,70=2/14;
 10/5=4,28=2/2;
 7/12=6,13=5,14=2/1,2,3,16;
 1/18=20,19=15,26=3/3(-8);
 2/9=110/2;
 6/7=2,8=2,9=2,10=2,22=-1/1;
 99/9=10/99;
 -----------------
 FuncsWB97XD-V-2nd
 -----------------
 Symbolic Z-matrix:
 Charge =  0 Multiplicity = 1
 C                    -2.15106   0.68921   0.00009 
 C                    -2.12793  -0.71582   0.00008 
 C                    -0.9323   -1.4131   -0.00001 
 C                     0.24691  -0.6702   -0.00004 
 C                     0.24819   0.7483    0. 
 C                    -0.97947   1.42353   0.00003 
 N                     1.56177  -1.07759  -0.00029 
 C                     1.62013   1.1629   -0.00016 
 C                     2.38201   0.03081   0.00025 
 H                     1.87632  -2.03001   0.00044 
 H                     1.99217   2.17301  -0.00035 
 H                     3.45255  -0.08243   0.00041 
 H                    -3.06159  -1.26202   0.00009 
 H                    -0.91725  -2.49534  -0.00007 
 H                    -3.1042    1.20079   0.00009 
 H                    -1.00935   2.50542  -0.00002 
 

 GradGradGradGradGradGradGradGradGradGradGradGradGradGradGradGradGradGrad
 Berny optimization.
 Initialization pass.
                           ----------------------------
                           !    Initial Parameters    !
                           ! (Angstroms and Degrees)  !
 --------------------------                            --------------------------
 ! Name  Definition              Value          Derivative Info.                !
 --------------------------------------------------------------------------------
 ! R1    R(1,2)                  1.4052         estimate D2E/DX2                !
 ! R2    R(1,6)                  1.3827         estimate D2E/DX2                !
 ! R3    R(1,15)                 1.0818         estimate D2E/DX2                !
 ! R4    R(2,3)                  1.3841         estimate D2E/DX2                !
 ! R5    R(2,13)                 1.0817         estimate D2E/DX2                !
 ! R6    R(3,4)                  1.3937         estimate D2E/DX2                !
 ! R7    R(3,14)                 1.0823         estimate D2E/DX2                !
 ! R8    R(4,5)                  1.4185         estimate D2E/DX2                !
 ! R9    R(4,7)                  1.3765         estimate D2E/DX2                !
 ! R10   R(5,6)                  1.4011         estimate D2E/DX2                !
 ! R11   R(5,8)                  1.4332         estimate D2E/DX2                !
 ! R12   R(6,16)                 1.0823         estimate D2E/DX2                !
 ! R13   R(7,9)                  1.3789         estimate D2E/DX2                !
 ! R14   R(7,10)                 1.003          estimate D2E/DX2                !
 ! R15   R(8,9)                  1.3646         estimate D2E/DX2                !
 ! R16   R(8,11)                 1.0764         estimate D2E/DX2                !
 ! R17   R(9,12)                 1.0765         estimate D2E/DX2                !
 ! A1    A(2,1,6)              121.1349         estimate D2E/DX2                !
 ! A2    A(2,1,15)             119.1671         estimate D2E/DX2                !
 ! A3    A(6,1,15)             119.698          estimate D2E/DX2                !
 ! A4    A(1,2,3)              121.1938         estimate D2E/DX2                !
 ! A5    A(1,2,13)             119.3846         estimate D2E/DX2                !
 ! A6    A(3,2,13)             119.4217         estimate D2E/DX2                !
 ! A7    A(2,3,4)              117.5387         estimate D2E/DX2                !
 ! A8    A(2,3,14)             121.0469         estimate D2E/DX2                !
 ! A9    A(4,3,14)             121.4144         estimate D2E/DX2                !
 ! A10   A(3,4,5)              122.2626         estimate D2E/DX2                !
 ! A11   A(3,4,7)              130.5743         estimate D2E/DX2                !
 ! A12   A(5,4,7)              107.163          estimate D2E/DX2                !
 ! A13   A(4,5,6)              118.7594         estimate D2E/DX2                !
 ! A14   A(4,5,8)              106.8666         estimate D2E/DX2                !
 ! A15   A(6,5,8)              134.374          estimate D2E/DX2                !
 ! A16   A(1,6,5)              119.1105         estimate D2E/DX2                !
 ! A17   A(1,6,16)             120.4966         estimate D2E/DX2                !
 ! A18   A(5,6,16)             120.3928         estimate D2E/DX2                !
 ! A19   A(4,7,9)              109.2874         estimate D2E/DX2                !
 ! A20   A(4,7,10)             125.4909         estimate D2E/DX2                !
 ! A21   A(9,7,10)             125.2217         estimate D2E/DX2                !
 ! A22   A(5,8,9)              107.125          estimate D2E/DX2                !
 ! A23   A(5,8,11)             127.0344         estimate D2E/DX2                !
 ! A24   A(9,8,11)             125.8405         estimate D2E/DX2                !
 ! A25   A(7,9,8)              109.5578         estimate D2E/DX2                !
 ! A26   A(7,9,12)             120.4645         estimate D2E/DX2                !
 ! A27   A(8,9,12)             129.9776         estimate D2E/DX2                !
 ! D1    D(6,1,2,3)             -0.0008         estimate D2E/DX2                !
 ! D2    D(6,1,2,13)          -179.9981         estimate D2E/DX2                !
 ! D3    D(15,1,2,3)           179.996          estimate D2E/DX2                !
 ! D4    D(15,1,2,13)           -0.0013         estimate D2E/DX2                !
 ! D5    D(2,1,6,5)             -0.0018         estimate D2E/DX2                !
 ! D6    D(2,1,6,16)           179.9965         estimate D2E/DX2                !
 ! D7    D(15,1,6,5)          -179.9986         estimate D2E/DX2                !
 ! D8    D(15,1,6,16)           -0.0003         estimate D2E/DX2                !
 ! D9    D(1,2,3,4)              0.002          estimate D2E/DX2                !
 ! D10   D(1,2,3,14)          -179.9968         estimate D2E/DX2                !
 ! D11   D(13,2,3,4)           179.9992         estimate D2E/DX2                !
 ! D12   D(13,2,3,14)            0.0005         estimate D2E/DX2                !
 ! D13   D(2,3,4,5)             -0.0005         estimate D2E/DX2                !
 ! D14   D(2,3,4,7)           -179.9911         estimate D2E/DX2                !
 ! D15   D(14,3,4,5)           179.9982         estimate D2E/DX2                !
 ! D16   D(14,3,4,7)             0.0076         estimate D2E/DX2                !
 ! D17   D(3,4,5,6)             -0.002          estimate D2E/DX2                !
 ! D18   D(3,4,5,8)           -179.9955         estimate D2E/DX2                !
 ! D19   D(7,4,5,6)            179.9905         estimate D2E/DX2                !
 ! D20   D(7,4,5,8)             -0.003          estimate D2E/DX2                !
 ! D21   D(3,4,7,9)           -179.98           estimate D2E/DX2                !
 ! D22   D(3,4,7,10)            -0.0649         estimate D2E/DX2                !
 ! D23   D(5,4,7,9)              0.0284         estimate D2E/DX2                !
 ! D24   D(5,4,7,10)           179.9434         estimate D2E/DX2                !
 ! D25   D(4,5,6,1)              0.0031         estimate D2E/DX2                !
 ! D26   D(4,5,6,16)          -179.9951         estimate D2E/DX2                !
 ! D27   D(8,5,6,1)            179.9944         estimate D2E/DX2                !
 ! D28   D(8,5,6,16)            -0.0038         estimate D2E/DX2                !
 ! D29   D(4,5,8,9)             -0.0234         estimate D2E/DX2                !
 ! D30   D(4,5,8,11)           179.9883         estimate D2E/DX2                !
 ! D31   D(6,5,8,9)            179.9846         estimate D2E/DX2                !
 ! D32   D(6,5,8,11)            -0.0037         estimate D2E/DX2                !
 ! D33   D(4,7,9,8)             -0.0444         estimate D2E/DX2                !
 ! D34   D(4,7,9,12)           179.9847         estimate D2E/DX2                !
 ! D35   D(10,7,9,8)          -179.9597         estimate D2E/DX2                !
 ! D36   D(10,7,9,12)            0.0693         estimate D2E/DX2                !
 ! D37   D(5,8,9,7)              0.0414         estimate D2E/DX2                !
 ! D38   D(5,8,9,12)          -179.9913         estimate D2E/DX2                !
 ! D39   D(11,8,9,7)          -179.9702         estimate D2E/DX2                !
 ! D40   D(11,8,9,12)           -0.0029         estimate D2E/DX2                !
 --------------------------------------------------------------------------------
 Trust Radius=3.00D-01 FncErr=1.00D-07 GrdErr=1.00D-06 EigMax=2.50D+02 EigMin=1.00D-04
 Number of steps in this run=     94 maximum allowed number of steps=    100.
 GradGradGradGradGradGradGradGradGradGradGradGradGradGradGradGradGradGrad

                          Input orientation:                          
 ---------------------------------------------------------------------
 Center     Atomic      Atomic             Coordinates (Angstroms)
 Number     Number       Type             X           Y           Z
 ---------------------------------------------------------------------
      1          6           0       -2.151063    0.689208    0.000088
      2          6           0       -2.127927   -0.715818    0.000075
      3          6           0       -0.932297   -1.413100   -0.000011
      4          6           0        0.246911   -0.670201   -0.000042
      5          6           0        0.248193    0.748299    0.000000
      6          6           0       -0.979474    1.423526    0.000032
      7          7           0        1.561774   -1.077592   -0.000285
      8          6           0        1.620133    1.162900   -0.000157
      9          6           0        2.382013    0.030806    0.000248
     10          1           0        1.876315   -2.030011    0.000438
     11          1           0        1.992173    2.173010   -0.000348
     12          1           0        3.452549   -0.082425    0.000408
     13          1           0       -3.061594   -1.262020    0.000088
     14          1           0       -0.917252   -2.495342   -0.000073
     15          1           0       -3.104203    1.200785    0.000090
     16          1           0       -1.009348    2.505421   -0.000015
 ---------------------------------------------------------------------
                    Distance matrix (angstroms):
                    1          2          3          4          5
     1  C    0.000000
     2  C    1.405216   0.000000
     3  C    2.430039   1.384100   0.000000
     4  C    2.756496   2.375276   1.393711   0.000000
     5  C    2.399984   2.790983   2.462763   1.418501   0.000000
     6  C    1.382694   2.428114   2.837018   2.426461   1.401106
     7  N    4.111781   3.707395   2.516536   1.376529   2.249305
     8  C    3.800829   4.192557   3.626386   2.290414   1.433218
     9  C    4.580641   4.571324   3.615178   2.247236   2.251218
    10  H    4.859416   4.214387   2.875566   2.122273   3.220216
    11  H    4.400917   5.031953   4.627387   3.336134   2.251948
    12  H    5.656491   5.616307   4.582311   3.259079   3.310287
    13  H    2.153220   1.081698   2.134650   3.361020   3.872476
    14  H    3.415208   2.152310   1.082347   2.164813   3.446661
    15  H    1.081752   2.150926   3.398466   3.838040   3.382795
    16  H    2.145261   3.409927   3.919278   3.415079   2.160761
                    6          7          8          9         10
     6  C    0.000000
     7  N    3.565604   0.000000
     8  C    2.612639   2.241252   0.000000
     9  C    3.638580   1.378890   1.364587   0.000000
    10  H    4.481345   1.003015   3.203172   2.121956   0.000000
    11  H    3.064704   3.278972   1.076446   2.177387   4.204618
    12  H    4.680888   2.136677   2.215532   1.076508   2.505515
    13  H    3.398144   4.627045   5.272457   5.595021   4.997275
    14  H    3.919362   2.855798   4.452085   4.155307   2.832058
    15  H    2.136372   5.192528   4.724488   5.609583   5.936632
    16  H    1.082307   4.410062   2.952378   4.198220   5.375611
                   11         12         13         14         15
    11  H    0.000000
    12  H    2.686947   0.000000
    13  H    6.110646   6.620083   0.000000
    14  H    5.500751   4.991726   2.473719   0.000000
    15  H    5.188282   6.681139   2.463174   4.294661   0.000000
    16  H    3.019872   5.158049   4.290143   5.001611   2.467892
                   16
    16  H    0.000000
 Stoichiometry    C8H7N
 Framework group  C1[X(C8H7N)]
 Deg. of freedom    42
 Full point group                 C1      NOp   1
 Largest Abelian subgroup         C1      NOp   1
 Largest concise Abelian subgroup C1      NOp   1
                         Standard orientation:                         
 ---------------------------------------------------------------------
 Center     Atomic      Atomic             Coordinates (Angstroms)
 Number     Number       Type             X           Y           Z
 ---------------------------------------------------------------------
      1          6           0       -2.151063    0.689208    0.000088
      2          6           0       -2.127927   -0.715818    0.000075
      3          6           0       -0.932297   -1.413100   -0.000011
      4          6           0        0.246911   -0.670201   -0.000042
      5          6           0        0.248193    0.748299    0.000000
      6          6           0       -0.979474    1.423526    0.000032
      7          7           0        1.561774   -1.077592   -0.000285
      8          6           0        1.620133    1.162900   -0.000157
      9          6           0        2.382013    0.030806    0.000248
     10          1           0        1.876315   -2.030011    0.000438
     11          1           0        1.992173    2.173010   -0.000348
     12          1           0        3.452549   -0.082425    0.000408
     13          1           0       -3.061594   -1.262020    0.000088
     14          1           0       -0.917252   -2.495342   -0.000073
     15          1           0       -3.104203    1.200785    0.000090
     16          1           0       -1.009348    2.505421   -0.000015
 ---------------------------------------------------------------------
 Rotational constants (GHZ):           3.9080822           1.6429452           1.1566805
 Standard basis: 6-31+G(d) (6D, 7F)
 There are   185 symmetry adapted cartesian basis functions of A   symmetry.
 There are   185 symmetry adapted basis functions of A   symmetry.
   185 basis functions,   316 primitive gaussians,   185 cartesian basis functions
    31 alpha electrons       31 beta electrons
       nuclear repulsion energy       401.3368668897 Hartrees.
 NAtoms=   16 NActive=   16 NUniq=   16 SFac= 1.00D+00 NAtFMM=   60 NAOKFM=F Big=F
 Integral buffers will be    131072 words long.
 Raffenetti 1 integral format.
 Two-electron integral symmetry is turned on.
 Nuclear repulsion after empirical dispersion term =      401.3294111108 Hartrees.
 One-electron integrals computed using PRISM.
 NBasis=   185 RedAO= T EigKep=  1.26D-06  NBF=   185
 NBsUse=   185 1.00D-06 EigRej= -1.00D+00 NBFU=   185
 ExpMin= 4.38D-02 ExpMax= 4.17D+03 ExpMxC= 6.27D+02 IAcc=3 IRadAn=         5 AccDes= 0.00D+00
 Harris functional with IExCor= 4639 and IRadAn=       5 diagonalized for initial guess.
 HarFok:  IExCor= 4639 AccDes= 0.00D+00 IRadAn=         5 IDoV= 1 UseB2=F ITyADJ=14
 ICtDFT=  3500011 ScaDFX=  1.000000  1.000000  1.000000  1.000000
 FoFCou: FMM=F IPFlag=           0 FMFlag=      100000 FMFlg1=           0
         NFxFlg=           0 DoJE=T BraDBF=F KetDBF=T FulRan=T
         wScrn=  0.000000 ICntrl=       500 IOpCl=  0 I1Cent=   200000004 NGrid=           0
         NMat0=    1 NMatS0=      1 NMatT0=    0 NMatD0=    1 NMtDS0=    0 NMtDT0=    0
 Petite list used in FoFCou.
 Keep R1 ints in memory in canonical form, NReq=303303409.
 Requested convergence on RMS density matrix=1.00D-08 within 128 cycles.
 Requested convergence on MAX density matrix=1.00D-06.
 Requested convergence on             energy=1.00D-06.
 No special actions if energy rises.
 SCF Done:  E(RwB97XD) =  -363.703484374     A.U. after   15 cycles
            NFock= 15  Conv=0.76D-08     -V/T= 2.0093
 DoSCS=F DFT=T ScalE2(SS,OS)=  1.000000  1.000000
 ExpMin= 4.38D-02 ExpMax= 4.17D+03 ExpMxC= 6.27D+02 IAcc=3 IRadAn=         5 AccDes= 0.00D+00
 HarFok:  IExCor=  205 AccDes= 0.00D+00 IRadAn=         5 IDoV=-2 UseB2=F ITyADJ=14
 ICtDFT= 12500011 ScaDFX=  1.000000  1.000000  1.000000  1.000000
 Range of M.O.s used for correlation:    10   185
 NBasis=   185 NAE=    31 NBE=    31 NFC=     9 NFV=     0
 NROrb=    176 NOA=    22 NOB=    22 NVA=   154 NVB=   154

 **** Warning!!: The largest alpha MO coefficient is  0.16859342D+03

 Orbital symmetries:
       Occupied  (A) (A) (A) (A) (A) (A) (A) (A) (A) (A) (A) (A)
                 (A) (A) (A) (A) (A) (A) (A) (A) (A) (A) (A) (A)
                 (A) (A) (A) (A) (A) (A) (A)
       Virtual   (A) (A) (A) (A) (A) (A) (A) (A) (A) (A) (A) (A)
                 (A) (A) (A) (A) (A) (A) (A) (A) (A) (A) (A) (A)
                 (A) (A) (A) (A) (A) (A) (A) (A) (A) (A) (A) (A)
                 (A) (A) (A) (A) (A) (A) (A) (A) (A) (A) (A) (A)
                 (A) (A) (A) (A) (A) (A) (A) (A) (A) (A) (A) (A)
                 (A) (A) (A) (A) (A) (A) (A) (A) (A) (A) (A) (A)
                 (A) (A) (A) (A) (A) (A) (A) (A) (A) (A) (A) (A)
                 (A) (A) (A) (A) (A) (A) (A) (A) (A) (A) (A) (A)
                 (A) (A) (A) (A) (A) (A) (A) (A) (A) (A) (A) (A)
                 (A) (A) (A) (A) (A) (A) (A) (A) (A) (A) (A) (A)
                 (A) (A) (A) (A) (A) (A) (A) (A) (A) (A) (A) (A)
                 (A) (A) (A) (A) (A) (A) (A) (A) (A) (A) (A) (A)
                 (A) (A) (A) (A) (A) (A) (A) (A) (A) (A)
    24 initial guesses have been made.
 Convergence on wavefunction:    0.000001000000000
 Iteration     1 Dimension    24 NMult     0 NNew     24
 CISAX will form    24 AO SS matrices at one time.
 New state      1 was old state      3
 New state      2 was old state      1
 New state      3 was old state      2
 New state      5 was old state      6
 New state      6 was old state      5
 Iteration     2 Dimension    36 NMult    24 NNew     12
 Iteration     3 Dimension    48 NMult    36 NNew     12
 Iteration     4 Dimension    60 NMult    48 NNew     12
 Iteration     5 Dimension    72 NMult    60 NNew     12
 Iteration     6 Dimension    84 NMult    72 NNew     12
 Iteration     7 Dimension    96 NMult    84 NNew     12
 Iteration     8 Dimension   108 NMult    96 NNew     12
 No map to state      6
 Iteration     9 Dimension   120 NMult   108 NNew     12
 Iteration    10 Dimension   132 NMult   120 NNew     12
 Iteration    11 Dimension   140 NMult   132 NNew      8
 Iteration    12 Dimension   144 NMult   140 NNew      4
 Iteration    13 Dimension   146 NMult   144 NNew      2
 Iteration    14 Dimension   148 NMult   146 NNew      2
 Iteration    15 Dimension   150 NMult   148 NNew      2
 Iteration    16 Dimension   152 NMult   150 NNew      2
 ***********************************************************************
 Excited states from <AA,BB:AA,BB> singles matrix:
 ***********************************************************************
 
 Ground to excited state transition densities written to RWF  633
 Ground to excited state transition electric dipole moments (Au):
       state          X           Y           Z        Dip. S.      Osc.
         1        -0.0276     -0.5654      0.0000      0.3205      0.0399
         2        -0.8621      0.4139     -0.0002      0.9145      0.1150
         3         0.0004     -0.0003     -0.1750      0.0306      0.0043
         4        -0.0014     -0.0004     -0.1729      0.0299      0.0045
         5         0.0035      0.0010     -0.0527      0.0028      0.0004
         6        -1.8936     -0.6847     -0.0019      4.0546      0.6303
 Ground to excited state transition velocity dipole moments (Au):
       state          X           Y           Z        Dip. S.      Osc.
         1         0.0075      0.1129     -0.0000      0.0128      0.0457
         2         0.1518     -0.0843      0.0000      0.0301      0.1066
         3        -0.0001      0.0001      0.0278      0.0008      0.0025
         4         0.0003      0.0001      0.0399      0.0016      0.0047
         5        -0.0008     -0.0002      0.0118      0.0001      0.0004
         6         0.4315      0.1596      0.0004      0.2117      0.6052
 Ground to excited state transition magnetic dipole moments (Au):
       state          X           Y           Z
         1        -0.0002     -0.0001     -0.1576
         2         0.0002     -0.0002      0.0572
         3         0.1417     -0.1361     -0.0000
         4         0.1271     -0.3268     -0.0004
         5         0.1980     -0.3756      0.0012
         6        -0.0049     -0.0048     -0.8086
 Ground to excited state transition velocity quadrupole moments (Au):
       state          XX          YY          ZZ          XY          XZ          YZ
         1        -0.1064     -0.0009      0.0079     -0.0207     -0.0000     -0.0001
         2         0.2177     -0.1827      0.0250      0.0026      0.0002      0.0000
         3        -0.0002      0.0001      0.0001     -0.0000      0.1156      0.0662
         4         0.0001     -0.0001      0.0000     -0.0002      0.2485      0.0751
         5        -0.0006      0.0004      0.0000      0.0009      0.4067      0.2455
         6         0.1548     -0.1441     -0.0332     -0.5402      0.0035     -0.0031
 <0|del|b> * <b|rxdel|0> + <0|del|b> * <b|delr+rdel|0>
 Rotatory Strengths (R) in cgs (10**-40 erg-esu-cm/Gauss)
       state          XX          YY          ZZ    R(velocity)    E-M Angle
         1        -0.0168     -0.0040     -0.0218     -0.0142       90.00
         2         0.0649      0.0593      0.0414      0.0552       90.00
         3        -0.0313     -0.0213     -0.0100     -0.0209       90.00
         4        -0.1117      0.0856      0.0155     -0.0035       90.00
         5         0.3339     -0.5352      0.0462     -0.0517       90.00
         6        -2.9329     -5.3931     -1.5042     -3.2767       90.50
 1/2[<0|r|b>*<b|rxdel|0> + (<0|rxdel|b>*<b|r|0>)*]
 Rotatory Strengths (R) in cgs (10**-40 erg-esu-cm/Gauss)
       state          XX          YY          ZZ     R(length)
         1        -0.0045     -0.0346      0.0031     -0.0120
         2         0.0981      0.0626      0.0075      0.0561
         3        -0.0357     -0.0269     -0.0058     -0.0228
         4         0.1252     -0.0882     -0.0507     -0.0046
         5        -0.4928      0.2726      0.0463     -0.0580
         6        -6.5443     -2.3365     -1.0932     -3.3247
  1/2[<0|del|b>*<b|r|0> + (<0|r|b>*<b|del|0>)*] (Au)
       state          X           Y           Z        Dip. S.   Osc.(frdel)
         1        -0.0002     -0.0638     -0.0000      0.0640      0.0427
         2        -0.1308     -0.0349     -0.0000      0.1658      0.1105
         3        -0.0000     -0.0000     -0.0049      0.0049      0.0032
         4        -0.0000     -0.0000     -0.0069      0.0069      0.0046
         5        -0.0000     -0.0000     -0.0006      0.0006      0.0004
         6        -0.8171     -0.1093     -0.0000      0.9264      0.6176

 Excitation energies and oscillator strengths:
 
 Excited State   1:      Singlet-A      5.0785 eV  244.13 nm  f=0.0399  <S**2>=0.000
      30 -> 32         0.50533
      30 -> 36        -0.10996
      31 -> 32        -0.36683
      31 -> 36        -0.27912
 
 Excited State   2:      Singlet-A      5.1328 eV  241.55 nm  f=0.1150  <S**2>=0.000
      30 -> 32         0.29983
      30 -> 36         0.16044
      31 -> 32         0.56133
      31 -> 36        -0.23839
 This state for optimization and/or second-order correction.
 Total Energy, E(TD-HF/TD-DFT) =  -363.514858750    
 Copying the excited state density for this state as the 1-particle RhoCI density.
 
 Excited State   3:      Singlet-A      5.6664 eV  218.81 nm  f=0.0043  <S**2>=0.000
      29 -> 33         0.10025
      31 -> 33         0.67219
      31 -> 40         0.11141
 
 Excited State   4:      Singlet-A      6.1617 eV  201.22 nm  f=0.0045  <S**2>=0.000
      30 -> 33         0.60740
      30 -> 34        -0.11494
      30 -> 40         0.12311
      31 -> 34         0.24629
 
 Excited State   5:      Singlet-A      6.3226 eV  196.10 nm  f=0.0004  <S**2>=0.000
      30 -> 33        -0.24585
      31 -> 34         0.53718
      31 -> 35        -0.30405
 
 Excited State   6:      Singlet-A      6.3456 eV  195.39 nm  f=0.6303  <S**2>=0.000
      30 -> 32         0.34506
      31 -> 36         0.57707
      31 -> 39         0.11352
 SavETr:  write IOETrn=   770 NScale= 10 NData=  16 NLR=1 NState=    6 LETran=     118.
          IDoAtm=1111111111111111
          Differentiating once with respect to electric field.
                with respect to dipole field.
          Differentiating once with respect to nuclear coordinates.
 Keep R1 ints in memory in canonical form, NReq=303315801.
          There are     1 degrees of freedom in the 1st order CPHF.  IDoFFX=0 NUNeed=     1.
 LinEq1:  Iter=  0 NonCon=     1 RMS=6.09D-03 Max=1.29D-01 NDo=     1
 AX will form     1 AO Fock derivatives at one time.
 LinEq1:  Iter=  1 NonCon=     1 RMS=1.93D-03 Max=5.31D-02 NDo=     1
 LinEq1:  Iter=  2 NonCon=     1 RMS=8.64D-04 Max=2.15D-02 NDo=     1
 LinEq1:  Iter=  3 NonCon=     1 RMS=4.89D-04 Max=1.03D-02 NDo=     1
 LinEq1:  Iter=  4 NonCon=     1 RMS=1.63D-04 Max=3.71D-03 NDo=     1
 LinEq1:  Iter=  5 NonCon=     1 RMS=7.54D-05 Max=1.95D-03 NDo=     1
 LinEq1:  Iter=  6 NonCon=     1 RMS=3.56D-05 Max=8.80D-04 NDo=     1
 LinEq1:  Iter=  7 NonCon=     1 RMS=1.86D-05 Max=5.01D-04 NDo=     1
 LinEq1:  Iter=  8 NonCon=     1 RMS=7.07D-06 Max=1.80D-04 NDo=     1
 LinEq1:  Iter=  9 NonCon=     1 RMS=3.07D-06 Max=6.21D-05 NDo=     1
 LinEq1:  Iter= 10 NonCon=     1 RMS=1.07D-06 Max=2.01D-05 NDo=     1
 LinEq1:  Iter= 11 NonCon=     1 RMS=4.49D-07 Max=8.15D-06 NDo=     1
 LinEq1:  Iter= 12 NonCon=     1 RMS=2.07D-07 Max=5.01D-06 NDo=     1
 LinEq1:  Iter= 13 NonCon=     1 RMS=6.33D-08 Max=1.44D-06 NDo=     1
 LinEq1:  Iter= 14 NonCon=     1 RMS=2.01D-08 Max=4.69D-07 NDo=     1
 LinEq1:  Iter= 15 NonCon=     1 RMS=1.12D-08 Max=2.31D-07 NDo=     1
 LinEq1:  Iter= 16 NonCon=     1 RMS=3.07D-09 Max=6.18D-08 NDo=     1
 LinEq1:  Iter= 17 NonCon=     1 RMS=1.61D-09 Max=3.33D-08 NDo=     1
 LinEq1:  Iter= 18 NonCon=     1 RMS=4.99D-10 Max=6.66D-09 NDo=     1
 LinEq1:  Iter= 19 NonCon=     1 RMS=1.11D-10 Max=1.41D-09 NDo=     1
 LinEq1:  Iter= 20 NonCon=     0 RMS=4.22D-11 Max=6.85D-10 NDo=     1
 Linear equations converged to 1.000D-10 1.000D-09 after    20 iterations.
 End of Minotr F.D. properties file   721 does not exist.
 End of Minotr F.D. properties file   722 does not exist.
 End of Minotr F.D. properties file   788 does not exist.

 **********************************************************************

            Population analysis using the CI Density.

 **********************************************************************

 Orbital symmetries:
       Occupied  (A) (A) (A) (A) (A) (A) (A) (A) (A) (A) (A) (A)
                 (A) (A) (A) (A) (A) (A) (A) (A) (A) (A) (A) (A)
                 (A) (A) (A) (A) (A) (A) (A)
       Virtual   (A) (A) (A) (A) (A) (A) (A) (A) (A) (A) (A) (A)
                 (A) (A) (A) (A) (A) (A) (A) (A) (A) (A) (A) (A)
                 (A) (A) (A) (A) (A) (A) (A) (A) (A) (A) (A) (A)
                 (A) (A) (A) (A) (A) (A) (A) (A) (A) (A) (A) (A)
                 (A) (A) (A) (A) (A) (A) (A) (A) (A) (A) (A) (A)
                 (A) (A) (A) (A) (A) (A) (A) (A) (A) (A) (A) (A)
                 (A) (A) (A) (A) (A) (A) (A) (A) (A) (A) (A) (A)
                 (A) (A) (A) (A) (A) (A) (A) (A) (A) (A) (A) (A)
                 (A) (A) (A) (A) (A) (A) (A) (A) (A) (A) (A) (A)
                 (A) (A) (A) (A) (A) (A) (A) (A) (A) (A) (A) (A)
                 (A) (A) (A) (A) (A) (A) (A) (A) (A) (A) (A) (A)
                 (A) (A) (A) (A) (A) (A) (A) (A) (A) (A) (A) (A)
                 (A) (A) (A) (A) (A) (A) (A) (A) (A) (A)
 The electronic state is 1-A.
 Alpha  occ. eigenvalues --  -14.50216 -10.33554 -10.33314 -10.30296 -10.29832
 Alpha  occ. eigenvalues --  -10.29776 -10.29772 -10.29227 -10.28912  -1.08716
 Alpha  occ. eigenvalues --   -0.94360  -0.88517  -0.83680  -0.81815  -0.72127
 Alpha  occ. eigenvalues --   -0.69061  -0.67706  -0.63364  -0.57351  -0.56185
 Alpha  occ. eigenvalues --   -0.52510  -0.51751  -0.51461  -0.49803  -0.47736
 Alpha  occ. eigenvalues --   -0.43909  -0.42344  -0.41757  -0.36207  -0.29768
 Alpha  occ. eigenvalues --   -0.28000
 Alpha virt. eigenvalues --    0.04897   0.05772   0.07557   0.08012   0.08771
 Alpha virt. eigenvalues --    0.09303   0.09651   0.11127   0.11769   0.12158
 Alpha virt. eigenvalues --    0.12165   0.12680   0.14584   0.15136   0.16046
 Alpha virt. eigenvalues --    0.16243   0.17316   0.18646   0.19791   0.20144
 Alpha virt. eigenvalues --    0.21404   0.21610   0.22661   0.22874   0.23286
 Alpha virt. eigenvalues --    0.24436   0.24920   0.25095   0.25759   0.26320
 Alpha virt. eigenvalues --    0.26749   0.27722   0.28125   0.28944   0.29448
 Alpha virt. eigenvalues --    0.30045   0.30121   0.30752   0.32049   0.32447
 Alpha virt. eigenvalues --    0.33439   0.33619   0.34909   0.36507   0.37551
 Alpha virt. eigenvalues --    0.38574   0.38745   0.40337   0.42262   0.44387
 Alpha virt. eigenvalues --    0.45382   0.47720   0.52092   0.52976   0.59809
 Alpha virt. eigenvalues --    0.66716   0.71344   0.75682   0.75783   0.78331
 Alpha virt. eigenvalues --    0.80042   0.80430   0.81843   0.82032   0.82823
 Alpha virt. eigenvalues --    0.83719   0.84349   0.86261   0.87719   0.88658
 Alpha virt. eigenvalues --    0.90205   0.93939   0.98081   0.99068   1.00262
 Alpha virt. eigenvalues --    1.02576   1.03297   1.04173   1.04732   1.07299
 Alpha virt. eigenvalues --    1.09131   1.11871   1.13554   1.15657   1.18066
 Alpha virt. eigenvalues --    1.20055   1.20514   1.25749   1.26672   1.29242
 Alpha virt. eigenvalues --    1.31124   1.32273   1.34053   1.40589   1.40894
 Alpha virt. eigenvalues --    1.42889   1.45549   1.50335   1.50513   1.53940
 Alpha virt. eigenvalues --    1.54986   1.55449   1.58652   1.59280   1.62741
 Alpha virt. eigenvalues --    1.67782   1.73978   1.87670   1.93671   1.97703
 Alpha virt. eigenvalues --    1.98206   2.01496   2.03439   2.08735   2.09121
 Alpha virt. eigenvalues --    2.09608   2.15649   2.19266   2.23360   2.26490
 Alpha virt. eigenvalues --    2.26500   2.29017   2.34137   2.35240   2.35769
 Alpha virt. eigenvalues --    2.37528   2.40544   2.47411   2.50207   2.53754
 Alpha virt. eigenvalues --    2.64096   2.65293   2.72754   2.74928   2.76413
 Alpha virt. eigenvalues --    2.79404   2.83030   2.90367   2.93975   2.95322
 Alpha virt. eigenvalues --    3.04945   3.07181   3.21169   3.33949   3.54599
 Alpha virt. eigenvalues --    4.24874   4.35963   4.38864   4.42374   4.46010
 Alpha virt. eigenvalues --    4.49575   4.57908   4.61878   4.88824
          Condensed to atoms (all electrons):
               1          2          3          4          5          6
     1  C    5.825220   0.395600   0.241853  -0.595447   0.025490  -0.252692
     2  C    0.395600   5.958506  -0.332727   0.467429  -0.728637   0.645554
     3  C    0.241853  -0.332727  13.352987  -2.286926  -3.469971  -2.777562
     4  C   -0.595447   0.467429  -2.286926  12.345804  -2.895131  -0.795164
     5  C    0.025490  -0.728637  -3.469971  -2.895131  13.706024  -0.330352
     6  C   -0.252692   0.645554  -2.777562  -0.795164  -0.330352  12.385340
     7  N   -0.028038   0.006020  -0.545431  -0.333840   0.861286   0.179075
     8  C    0.169048  -0.328897   3.107490   1.472591  -4.324952  -3.415094
     9  C   -0.100074   0.050845  -1.208827  -0.576367   1.712985   0.975169
    10  H   -0.002009  -0.008216  -0.125482  -0.054801   0.153515   0.023712
    11  H    0.004133   0.001072   0.000807   0.004883   0.027443   0.014992
    12  H    0.001302  -0.000004   0.039021   0.104539  -0.116346  -0.024433
    13  H    0.025708   0.255048   0.011083   0.007744   0.013123  -0.004940
    14  H    0.004879   0.052940   0.173108   0.081450   0.002799  -0.010832
    15  H    0.283443   0.005781   0.016692  -0.017082   0.032141  -0.014657
    16  H    0.019203   0.007304  -0.026422   0.030420   0.096707   0.205910
               7          8          9         10         11         12
     1  C   -0.028038   0.169048  -0.100074  -0.002009   0.004133   0.001302
     2  C    0.006020  -0.328897   0.050845  -0.008216   0.001072  -0.000004
     3  C   -0.545431   3.107490  -1.208827  -0.125482   0.000807   0.039021
     4  C   -0.333840   1.472591  -0.576367  -0.054801   0.004883   0.104539
     5  C    0.861286  -4.324952   1.712985   0.153515   0.027443  -0.116346
     6  C    0.179075  -3.415094   0.975169   0.023712   0.014992  -0.024433
     7  N    7.236031  -0.778744   0.646381   0.277878   0.005295  -0.056620
     8  C   -0.778744  11.585736  -1.948315  -0.008192   0.259137   0.069255
     9  C    0.646381  -1.948315   6.451776  -0.015177  -0.011419   0.298322
    10  H    0.277878  -0.008192  -0.015177   0.312210  -0.000066  -0.001829
    11  H    0.005295   0.259137  -0.011419  -0.000066   0.455354  -0.000412
    12  H   -0.056620   0.069255   0.298322  -0.001829  -0.000412   0.449798
    13  H   -0.000461   0.000559   0.000986  -0.000002   0.000000  -0.000000
    14  H   -0.006996  -0.008806   0.009589   0.001764   0.000002   0.000002
    15  H    0.000269   0.005518   0.000040  -0.000000  -0.000002  -0.000000
    16  H   -0.000848  -0.039104   0.005532   0.000004   0.001198  -0.000001
              13         14         15         16
     1  C    0.025708   0.004879   0.283443   0.019203
     2  C    0.255048   0.052940   0.005781   0.007304
     3  C    0.011083   0.173108   0.016692  -0.026422
     4  C    0.007744   0.081450  -0.017082   0.030420
     5  C    0.013123   0.002799   0.032141   0.096707
     6  C   -0.004940  -0.010832  -0.014657   0.205910
     7  N   -0.000461  -0.006996   0.000269  -0.000848
     8  C    0.000559  -0.008806   0.005518  -0.039104
     9  C    0.000986   0.009589   0.000040   0.005532
    10  H   -0.000002   0.001764  -0.000000   0.000004
    11  H    0.000000   0.000002  -0.000002   0.001198
    12  H   -0.000000   0.000002  -0.000000  -0.000001
    13  H    0.490577  -0.003460  -0.003567  -0.000133
    14  H   -0.003460   0.499525  -0.000135   0.000015
    15  H   -0.003567  -0.000135   0.496338  -0.003532
    16  H   -0.000133   0.000015  -0.003532   0.500955
 Mulliken charges:
               1
     1  C   -0.017621
     2  C   -0.447617
     3  C   -0.169693
     4  C   -0.960102
     5  C    1.233875
     6  C   -0.804024
     7  N   -0.461256
     8  C    0.182767
     9  C   -0.291446
    10  H    0.446692
    11  H    0.237584
    12  H    0.237406
    13  H    0.207735
    14  H    0.204156
    15  H    0.198752
    16  H    0.202793
 Sum of Mulliken charges =  -0.00000
 Mulliken charges with hydrogens summed into heavy atoms:
               1
     1  C    0.181131
     2  C   -0.239882
     3  C    0.034463
     4  C   -0.960102
     5  C    1.233875
     6  C   -0.601232
     7  N   -0.014563
     8  C    0.420351
     9  C   -0.054040
 Electronic spatial extent (au):  <R**2>=           1006.7431
 Charge=             -0.0000 electrons
 Dipole moment (field-independent basis, Debye):
    X=              3.4974    Y=             -1.6588    Z=             -0.0002  Tot=              3.8709
 Quadrupole moment (field-independent basis, Debye-Ang):
   XX=            -44.5342   YY=            -46.1801   ZZ=            -60.0019
   XY=             -1.6205   XZ=              0.0008   YZ=             -0.0015
 Traceless Quadrupole moment (field-independent basis, Debye-Ang):
   XX=              5.7045   YY=              4.0587   ZZ=             -9.7632
   XY=             -1.6205   XZ=              0.0008   YZ=             -0.0015
 Octapole moment (field-independent basis, Debye-Ang**2):
  XXX=             24.3335  YYY=            -10.2854  ZZZ=             -0.0090  XYY=             13.5388
  XXY=             -7.6676  XXZ=              0.0005  XZZ=              4.1621  YZZ=             -1.6962
  YYZ=             -0.0043  XYZ=             -0.0037
 Hexadecapole moment (field-independent basis, Debye-Ang**3):
 XXXX=           -822.8511 YYYY=           -385.4835 ZZZZ=            -83.0280 XXXY=            -11.5817
 XXXZ=             -0.0022 YYYX=            -15.0101 YYYZ=             -0.0018 ZZZX=             -0.0068
 ZZZY=              0.0065 XXYY=           -193.6370 XXZZ=           -197.0866 YYZZ=           -101.2156
 XXYZ=             -0.0043 YYXZ=              0.0044 ZZXY=             -1.2867
 N-N= 4.013294111108D+02 E-N=-1.645017783595D+03  KE= 3.605240902999D+02
 Calling FoFJK, ICntrl=  10005127 FMM=F ISym2X=0 I1Cent= 0 IOpClX= 0 NMat=1 NMatS=1 NMatT=0.
 ***** Axes restored to original set *****
 -------------------------------------------------------------------
 Center     Atomic                   Forces (Hartrees/Bohr)
 Number     Number              X              Y              Z
 -------------------------------------------------------------------
      1        6          -0.022662602   -0.015556040   -0.000004063
      2        6          -0.028408720    0.026855367    0.000000552
      3        6           0.031045956   -0.034280100    0.000007017
      4        6          -0.005389012    0.005365233   -0.000016067
      5        6           0.033360579    0.003318207   -0.000020567
      6        6          -0.000097390    0.035174944    0.000000317
      7        7           0.022337253    0.014260007    0.000043766
      8        6          -0.051365029    0.020683399    0.000024275
      9        6           0.018742902   -0.052867305   -0.000046768
     10        1           0.002166314   -0.004179530    0.000004061
     11        1           0.001174921    0.003116751    0.000005010
     12        1           0.003372330   -0.000892152    0.000000741
     13        1          -0.002702167   -0.001635570    0.000000074
     14        1           0.000616825   -0.002568178   -0.000002187
     15        1          -0.002602666    0.000717840    0.000001208
     16        1           0.000410506    0.002487129    0.000002631
 -------------------------------------------------------------------
 Cartesian Forces:  Max     0.052867305 RMS     0.016975855

 GradGradGradGradGradGradGradGradGradGradGradGradGradGradGradGradGradGrad
 Berny optimization.
 FormGI is forming the generalized inverse of G from B-inverse, IUseBI=4.
 Internal  Forces:  Max     0.046130632 RMS     0.009492626
 Search for a local minimum.
 Step number   1 out of a maximum of   94
 All quantities printed in internal units (Hartrees-Bohrs-Radians)
 Mixed Optimization -- RFO/linear search
 Second derivative matrix not updated -- first step.
 ITU=  0
     Eigenvalues ---    0.01853   0.01931   0.01986   0.02012   0.02070
     Eigenvalues ---    0.02113   0.02148   0.02153   0.02172   0.02209
     Eigenvalues ---    0.02233   0.02248   0.02338   0.16000   0.16000
     Eigenvalues ---    0.16000   0.16000   0.16000   0.16000   0.16000
     Eigenvalues ---    0.22000   0.22188   0.22662   0.24011   0.24651
     Eigenvalues ---    0.35712   0.35717   0.35783   0.35790   0.36420
     Eigenvalues ---    0.36427   0.37009   0.38432   0.42633   0.43465
     Eigenvalues ---    0.45769   0.46692   0.47162   0.47468   0.47567
     Eigenvalues ---    0.48125   0.50955
 RFO step:  Lambda=-1.60572306D-02 EMin= 1.85287394D-02
 Linear search not attempted -- first point.
 Iteration  1 RMS(Cart)=  0.02871981 RMS(Int)=  0.00020303
 Iteration  2 RMS(Cart)=  0.00027376 RMS(Int)=  0.00005295
 Iteration  3 RMS(Cart)=  0.00000006 RMS(Int)=  0.00005295
 Variable       Old X    -DE/DX   Delta X   Delta X   Delta X     New X
                                 (Linear)    (Quad)   (Total)
    R1        2.65547   0.00282   0.00000   0.00694   0.00693   2.66240
    R2        2.61291   0.02772   0.00000   0.05593   0.05592   2.66884
    R3        2.04421   0.00263   0.00000   0.00704   0.00704   2.05126
    R4        2.61557   0.04407   0.00000   0.08828   0.08827   2.70384
    R5        2.04411   0.00316   0.00000   0.00845   0.00845   2.05256
    R6        2.63373   0.00729   0.00000   0.01434   0.01434   2.64807
    R7        2.04534   0.00258   0.00000   0.00690   0.00690   2.05224
    R8        2.68058   0.01298   0.00000   0.02670   0.02658   2.70716
    R9        2.60126   0.01695   0.00000   0.03211   0.03213   2.63339
   R10        2.64771   0.02839   0.00000   0.06028   0.06029   2.70800
   R11        2.70839  -0.02060   0.00000  -0.04883  -0.04893   2.65946
   R12        2.04526   0.00248   0.00000   0.00663   0.00663   2.05190
   R13        2.60573  -0.02150   0.00000  -0.04133  -0.04119   2.56454
   R14        1.89542   0.00465   0.00000   0.00953   0.00953   1.90495
   R15        2.57870   0.04613   0.00000   0.08743   0.08750   2.66620
   R16        2.03419   0.00333   0.00000   0.00876   0.00876   2.04294
   R17        2.03430   0.00345   0.00000   0.00907   0.00907   2.04337
    A1        2.11420  -0.00112   0.00000  -0.00165  -0.00169   2.11251
    A2        2.07986  -0.00005   0.00000  -0.00264  -0.00262   2.07723
    A3        2.08912   0.00117   0.00000   0.00429   0.00431   2.09344
    A4        2.11523   0.00558   0.00000   0.02532   0.02527   2.14050
    A5        2.08365  -0.00274   0.00000  -0.01239  -0.01237   2.07129
    A6        2.08430  -0.00284   0.00000  -0.01293  -0.01291   2.07140
    A7        2.05144  -0.00567   0.00000  -0.02555  -0.02559   2.02585
    A8        2.11267   0.00343   0.00000   0.01615   0.01617   2.12883
    A9        2.11908   0.00224   0.00000   0.00941   0.00942   2.12850
   A10        2.13389   0.00106   0.00000   0.00350   0.00354   2.13742
   A11        2.27895  -0.00651   0.00000  -0.02058  -0.02051   2.25844
   A12        1.87035   0.00545   0.00000   0.01708   0.01698   1.88733
   A13        2.07274   0.00728   0.00000   0.02724   0.02734   2.10008
   A14        1.86517  -0.00548   0.00000  -0.02292  -0.02314   1.84204
   A15        2.34527  -0.00180   0.00000  -0.00432  -0.00420   2.34107
   A16        2.07887  -0.00712   0.00000  -0.02885  -0.02887   2.05000
   A17        2.10306   0.00405   0.00000   0.01721   0.01722   2.12028
   A18        2.10125   0.00307   0.00000   0.01164   0.01165   2.11290
   A19        1.90743   0.00033   0.00000   0.00065   0.00079   1.90821
   A20        2.19023   0.00054   0.00000   0.00369   0.00362   2.19385
   A21        2.18553  -0.00087   0.00000  -0.00434  -0.00441   2.18112
   A22        1.86968   0.00593   0.00000   0.02761   0.02758   1.89727
   A23        2.21717  -0.00294   0.00000  -0.01365  -0.01364   2.20353
   A24        2.19633  -0.00299   0.00000  -0.01395  -0.01394   2.18239
   A25        1.91215  -0.00624   0.00000  -0.02241  -0.02221   1.88993
   A26        2.10250   0.00258   0.00000   0.00812   0.00802   2.11053
   A27        2.26854   0.00366   0.00000   0.01429   0.01419   2.28272
    D1       -0.00001   0.00000   0.00000  -0.00000  -0.00001  -0.00002
    D2       -3.14156  -0.00000   0.00000  -0.00004  -0.00004   3.14159
    D3        3.14152   0.00000   0.00000   0.00006   0.00006   3.14158
    D4       -0.00002   0.00000   0.00000   0.00003   0.00003   0.00000
    D5       -0.00003   0.00000   0.00000   0.00008   0.00008   0.00005
    D6        3.14153   0.00000   0.00000   0.00008   0.00008  -3.14157
    D7       -3.14157   0.00000   0.00000   0.00001   0.00001  -3.14155
    D8       -0.00001   0.00000   0.00000   0.00001   0.00001   0.00001
    D9        0.00003  -0.00000   0.00000  -0.00007  -0.00008  -0.00004
   D10       -3.14154  -0.00000   0.00000  -0.00001  -0.00001  -3.14154
   D11        3.14158  -0.00000   0.00000  -0.00004  -0.00004   3.14154
   D12        0.00001   0.00000   0.00000   0.00003   0.00003   0.00004
   D13       -0.00001   0.00000   0.00000   0.00008   0.00008   0.00007
   D14       -3.14144  -0.00000   0.00000  -0.00002  -0.00002  -3.14145
   D15        3.14156  -0.00000   0.00000   0.00001   0.00001   3.14157
   D16        0.00013  -0.00000   0.00000  -0.00008  -0.00008   0.00005
   D17       -0.00004   0.00000   0.00000  -0.00000  -0.00001  -0.00004
   D18       -3.14151  -0.00000   0.00000  -0.00010  -0.00010   3.14157
   D19        3.14143   0.00000   0.00000   0.00007   0.00007   3.14149
   D20       -0.00005   0.00000   0.00000  -0.00002  -0.00002  -0.00008
   D21       -3.14124  -0.00000   0.00000  -0.00021  -0.00022  -3.14146
   D22       -0.00113   0.00001   0.00000   0.00009   0.00008  -0.00105
   D23        0.00049  -0.00001   0.00000  -0.00030  -0.00031   0.00019
   D24        3.14060   0.00000   0.00000   0.00000  -0.00000   3.14060
   D25        0.00005  -0.00000   0.00000  -0.00008  -0.00007  -0.00002
   D26       -3.14151  -0.00000   0.00000  -0.00008  -0.00008  -3.14158
   D27        3.14150  -0.00000   0.00000   0.00005   0.00005   3.14154
   D28       -0.00007   0.00000   0.00000   0.00005   0.00005  -0.00002
   D29       -0.00041   0.00002   0.00000   0.00035   0.00035  -0.00006
   D30        3.14139   0.00001   0.00000   0.00010   0.00009   3.14148
   D31        3.14132   0.00001   0.00000   0.00024   0.00024   3.14156
   D32       -0.00006   0.00000   0.00000  -0.00002  -0.00002  -0.00009
   D33       -0.00077   0.00003   0.00000   0.00056   0.00055  -0.00023
   D34        3.14133   0.00001   0.00000   0.00018   0.00017   3.14150
   D35       -3.14089   0.00001   0.00000   0.00025   0.00024  -3.14065
   D36        0.00121  -0.00000   0.00000  -0.00013  -0.00014   0.00107
   D37        0.00072  -0.00002   0.00000  -0.00054  -0.00054   0.00018
   D38       -3.14144  -0.00000   0.00000  -0.00011  -0.00012  -3.14156
   D39       -3.14107  -0.00001   0.00000  -0.00029  -0.00029  -3.14136
   D40       -0.00005   0.00001   0.00000   0.00014   0.00013   0.00008
         Item               Value     Threshold  Converged?
 Maximum Force            0.046131     0.000450     NO 
 RMS     Force            0.009493     0.000300     NO 
 Maximum Displacement     0.098238     0.001800     NO 
 RMS     Displacement     0.028694     0.001200     NO 
 Predicted change in Energy=-8.316607D-03
 GradGradGradGradGradGradGradGradGradGradGradGradGradGradGradGradGradGrad

                          Input orientation:                          
 ---------------------------------------------------------------------
 Center     Atomic      Atomic             Coordinates (Angstroms)
 Number     Number       Type             X           Y           Z
 ---------------------------------------------------------------------
      1          6           0       -2.184087    0.705588    0.000008
      2          6           0       -2.139265   -0.702582    0.000025
      3          6           0       -0.910493   -1.435619    0.000044
      4          6           0        0.263284   -0.670186   -0.000006
      5          6           0        0.247194    0.762291    0.000014
      6          6           0       -0.997784    1.471904    0.000034
      7          7           0        1.592374   -1.089049   -0.000153
      8          6           0        1.598747    1.154556   -0.000022
      9          6           0        2.405778   -0.002733    0.000017
     10          1           0        1.907327   -2.046643    0.000612
     11          1           0        1.969710    2.169997   -0.000117
     12          1           0        3.481354   -0.113895    0.000031
     13          1           0       -3.075147   -1.253840    0.000011
     14          1           0       -0.888611   -2.521399    0.000011
     15          1           0       -3.149585    1.201650   -0.000013
     16          1           0       -1.023895    2.557406    0.000040
 ---------------------------------------------------------------------
                    Distance matrix (angstroms):
                    1          2          3          4          5
     1  C    0.000000
     2  C    1.408883   0.000000
     3  C    2.491347   1.430813   0.000000
     4  C    2.807558   2.402768   1.401300   0.000000
     5  C    2.431942   2.800186   2.484159   1.432567   0.000000
     6  C    1.412288   2.455885   2.908833   2.485727   1.433010
     7  N    4.181194   3.751599   2.526748   1.393530   2.288443
     8  C    3.809384   4.173931   3.606285   2.261226   1.407327
     9  C    4.644199   4.598610   3.612591   2.244053   2.290142
    10  H    4.930968   4.263967   2.883307   2.144181   3.262844
    11  H    4.404376   5.013521   4.614763   3.313386   2.224567
    12  H    5.724402   5.651364   4.586423   3.265798   3.350746
    13  H    2.152520   1.086167   2.172273   3.389067   3.886223
    14  H    3.477312   2.207313   1.086000   2.180333   3.474575
    15  H    1.085478   2.155654   3.459584   3.892486   3.425075
    16  H    2.185241   3.445516   3.994636   3.474793   2.199569
                    6          7          8          9         10
     6  C    0.000000
     7  N    3.642444   0.000000
     8  C    2.615852   2.243614   0.000000
     9  C    3.709284   1.357095   1.410892   0.000000
    10  H    4.562876   1.008059   3.216037   2.103811   0.000000
    11  H    3.048500   3.280817   1.081080   2.216057   4.217101
    12  H    4.751572   2.125834   2.270061   1.081305   2.492605
    13  H    3.427115   4.670429   5.257913   5.621904   5.045155
    14  H    3.994795   2.864772   4.438422   4.146888   2.835960
    15  H    2.168706   5.266258   4.748565   5.684417   6.010305
    16  H    1.085817   4.487928   2.974263   4.279833   5.457961
                   11         12         13         14         15
    11  H    0.000000
    12  H    2.738837   0.000000
    13  H    6.096986   6.654862   0.000000
    14  H    5.493559   4.989256   2.527378   0.000000
    15  H    5.210075   6.760178   2.456618   4.355811   0.000000
    16  H    3.018569   5.237664   4.328190   5.080607   2.521236
                   16
    16  H    0.000000
 Stoichiometry    C8H7N
 Framework group  C1[X(C8H7N)]
 Deg. of freedom    42
 Full point group                 C1      NOp   1
 Largest Abelian subgroup         C1      NOp   1
 Largest concise Abelian subgroup C1      NOp   1
                         Standard orientation:                         
 ---------------------------------------------------------------------
 Center     Atomic      Atomic             Coordinates (Angstroms)
 Number     Number       Type             X           Y           Z
 ---------------------------------------------------------------------
      1          6           0       -2.202863    0.647076    0.000005
      2          6           0       -2.121225   -0.759440    0.000022
      3          6           0       -0.873700   -1.460087    0.000041
      4          6           0        0.279656   -0.664216   -0.000009
      5          6           0        0.226104    0.767351    0.000011
      6          6           0       -1.037008    1.444158    0.000031
      7          7           0        1.619246   -1.048173   -0.000156
      8          6           0        1.566935    1.194831   -0.000025
      9          6           0        2.403959    0.059046    0.000014
     10          1           0        1.959138   -1.997201    0.000609
     11          1           0        1.911212    2.219627   -0.000120
     12          1           0        3.482075   -0.023945    0.000028
     13          1           0       -3.042368   -1.334987    0.000008
     14          1           0       -0.823427   -2.544923    0.000008
     15          1           0       -3.181004    1.117716   -0.000016
     16          1           0       -1.091502    2.528606    0.000037
 ---------------------------------------------------------------------
 Rotational constants (GHZ):           3.8146074           1.6169808           1.1356065
 Standard basis: 6-31+G(d) (6D, 7F)
 There are   185 symmetry adapted cartesian basis functions of A   symmetry.
 There are   185 symmetry adapted basis functions of A   symmetry.
   185 basis functions,   316 primitive gaussians,   185 cartesian basis functions
    31 alpha electrons       31 beta electrons
       nuclear repulsion energy       397.6074685291 Hartrees.
 NAtoms=   16 NActive=   16 NUniq=   16 SFac= 1.00D+00 NAtFMM=   60 NAOKFM=F Big=F
 Integral buffers will be    131072 words long.
 Raffenetti 1 integral format.
 Two-electron integral symmetry is turned on.
 Nuclear repulsion after empirical dispersion term =      397.6000524536 Hartrees.
 One-electron integrals computed using PRISM.
 NBasis=   185 RedAO= T EigKep=  1.35D-06  NBF=   185
 NBsUse=   185 1.00D-06 EigRej= -1.00D+00 NBFU=   185
 Initial guess from the checkpoint file:  "FuncsWB97XD-V-2nd.chk"
 B after Tr=     0.000000   -0.000000    0.000000
         Rot=    0.999921    0.000004    0.000002   -0.012542 Ang=   1.44 deg.
 ExpMin= 4.38D-02 ExpMax= 4.17D+03 ExpMxC= 6.27D+02 IAcc=3 IRadAn=         5 AccDes= 0.00D+00
 Harris functional with IExCor= 4639 and IRadAn=       5 diagonalized for initial guess.
 HarFok:  IExCor= 4639 AccDes= 0.00D+00 IRadAn=         5 IDoV= 1 UseB2=F ITyADJ=14
 ICtDFT=  3500011 ScaDFX=  1.000000  1.000000  1.000000  1.000000
 FoFCou: FMM=F IPFlag=           0 FMFlag=      100000 FMFlg1=           0
         NFxFlg=           0 DoJE=T BraDBF=F KetDBF=T FulRan=T
         wScrn=  0.000000 ICntrl=       500 IOpCl=  0 I1Cent=   200000004 NGrid=           0
         NMat0=    1 NMatS0=      1 NMatT0=    0 NMatD0=    1 NMtDS0=    0 NMtDT0=    0
 Petite list used in FoFCou.
 Keep R1 ints in memory in canonical form, NReq=303303409.
 Requested convergence on RMS density matrix=1.00D-08 within 128 cycles.
 Requested convergence on MAX density matrix=1.00D-06.
 Requested convergence on             energy=1.00D-06.
 No special actions if energy rises.
 SCF Done:  E(RwB97XD) =  -363.696901992     A.U. after   14 cycles
            NFock= 14  Conv=0.63D-08     -V/T= 2.0104
 DoSCS=F DFT=T ScalE2(SS,OS)=  1.000000  1.000000
 ExpMin= 4.38D-02 ExpMax= 4.17D+03 ExpMxC= 6.27D+02 IAcc=3 IRadAn=         5 AccDes= 0.00D+00
 HarFok:  IExCor=  205 AccDes= 0.00D+00 IRadAn=         5 IDoV=-2 UseB2=F ITyADJ=14
 ICtDFT= 12500011 ScaDFX=  1.000000  1.000000  1.000000  1.000000
 Range of M.O.s used for correlation:    10   185
 NBasis=   185 NAE=    31 NBE=    31 NFC=     9 NFV=     0
 NROrb=    176 NOA=    22 NOB=    22 NVA=   154 NVB=   154

 **** Warning!!: The largest alpha MO coefficient is  0.18848572D+03

 Orbital symmetries:
       Occupied  (A) (A) (A) (A) (A) (A) (A) (A) (A) (A) (A) (A)
                 (A) (A) (A) (A) (A) (A) (A) (A) (A) (A) (A) (A)
                 (A) (A) (A) (A) (A) (A) (A)
       Virtual   (A) (A) (A) (A) (A) (A) (A) (A) (A) (A) (A) (A)
                 (A) (A) (A) (A) (A) (A) (A) (A) (A) (A) (A) (A)
                 (A) (A) (A) (A) (A) (A) (A) (A) (A) (A) (A) (A)
                 (A) (A) (A) (A) (A) (A) (A) (A) (A) (A) (A) (A)
                 (A) (A) (A) (A) (A) (A) (A) (A) (A) (A) (A) (A)
                 (A) (A) (A) (A) (A) (A) (A) (A) (A) (A) (A) (A)
                 (A) (A) (A) (A) (A) (A) (A) (A) (A) (A) (A) (A)
                 (A) (A) (A) (A) (A) (A) (A) (A) (A) (A) (A) (A)
                 (A) (A) (A) (A) (A) (A) (A) (A) (A) (A) (A) (A)
                 (A) (A) (A) (A) (A) (A) (A) (A) (A) (A) (A) (A)
                 (A) (A) (A) (A) (A) (A) (A) (A) (A) (A) (A) (A)
                 (A) (A) (A) (A) (A) (A) (A) (A) (A) (A) (A) (A)
                 (A) (A) (A) (A) (A) (A) (A) (A) (A) (A)
 Generating guess from densities on rwf.
 Convergence on wavefunction:    0.000001000000000
 Iteration     1 Dimension    12 NMult     0 NNew     12
 CISAX will form    12 AO SS matrices at one time.
 New state      1 was old state      2
 New state      2 was old state      1
 New state      4 was old state      6
 New state      6 was old state      4
 Iteration     2 Dimension    24 NMult    12 NNew     12
 Iteration     3 Dimension    36 NMult    24 NNew     12
 New state      4 was old state      5
 New state      5 was old state      4
 Iteration     4 Dimension    48 NMult    36 NNew     12
 Iteration     5 Dimension    60 NMult    48 NNew     12
 Iteration     6 Dimension    72 NMult    60 NNew     12
 Iteration     7 Dimension    84 NMult    72 NNew     12
 Iteration     8 Dimension    96 NMult    84 NNew     12
 Iteration     9 Dimension   108 NMult    96 NNew     12
 Iteration    10 Dimension   120 NMult   108 NNew     12
 Iteration    11 Dimension   128 NMult   120 NNew      8
 Iteration    12 Dimension   136 NMult   128 NNew      8
 Iteration    13 Dimension   142 NMult   136 NNew      6
 Iteration    14 Dimension   148 NMult   142 NNew      6
 Iteration    15 Dimension   152 NMult   148 NNew      4
 Iteration    16 Dimension   154 NMult   152 NNew      2
 Iteration    17 Dimension   156 NMult   154 NNew      2
 ***********************************************************************
 Excited states from <AA,BB:AA,BB> singles matrix:
 ***********************************************************************
 
 Ground to excited state transition densities written to RWF  633
 Ground to excited state transition electric dipole moments (Au):
       state          X           Y           Z        Dip. S.      Osc.
         1        -0.1288     -0.3294     -0.0000      0.1251      0.0151
         2        -1.0009      0.6392     -0.0001      1.4105      0.1621
         3         0.0003     -0.0001     -0.1927      0.0372      0.0049
         4        -0.0002     -0.0001     -0.1202      0.0145      0.0021
         5        -1.8634     -0.7461     -0.0004      4.0290      0.5999
         6        -0.0048     -0.0019      0.1495      0.0224      0.0034
 Ground to excited state transition velocity dipole moments (Au):
       state          X           Y           Z        Dip. S.      Osc.
         1         0.0228      0.0633      0.0000      0.0045      0.0166
         2         0.1609     -0.1193      0.0000      0.0401      0.1552
         3        -0.0000      0.0000      0.0301      0.0009      0.0030
         4         0.0001      0.0000      0.0266      0.0007      0.0021
         5         0.4057      0.1671      0.0001      0.1925      0.5747
         6         0.0010      0.0004     -0.0312      0.0010      0.0029
 Ground to excited state transition magnetic dipole moments (Au):
       state          X           Y           Z
         1        -0.0001     -0.0001      0.0093
         2         0.0001      0.0000      0.1563
         3         0.1527     -0.1723      0.0001
         4         0.2595     -0.4545     -0.0001
         5        -0.0006     -0.0008     -0.8418
         6         0.2987      0.2489     -0.0019
 Ground to excited state transition velocity quadrupole moments (Au):
       state          XX          YY          ZZ          XY          XZ          YZ
         1        -0.0460     -0.0487      0.0153      0.0111      0.0000     -0.0000
         2         0.2115     -0.1689      0.0167      0.0522      0.0000     -0.0000
         3        -0.0001      0.0001      0.0001      0.0001      0.1316      0.0598
         4        -0.0000     -0.0001     -0.0000     -0.0001      0.4435      0.2618
         5         0.2623     -0.1843     -0.0180     -0.5352      0.0005     -0.0003
         6         0.0007     -0.0005      0.0000     -0.0012     -0.1842      0.1627
 <0|del|b> * <b|rxdel|0> + <0|del|b> * <b|delr+rdel|0>
 Rotatory Strengths (R) in cgs (10**-40 erg-esu-cm/Gauss)
       state          XX          YY          ZZ    R(velocity)    E-M Angle
         1        -0.0105     -0.0049     -0.0111     -0.0088       90.00
         2         0.0092      0.0143      0.0178      0.0138       90.00
         3        -0.0010     -0.0146     -0.0090     -0.0082       90.00
         4        -0.0462      0.0419     -0.0007     -0.0017       90.00
         5        -0.5741     -0.6572     -0.2340     -0.4884       90.07
         6         0.4549      0.7936      0.2698      0.5061       87.72
 1/2[<0|r|b>*<b|rxdel|0> + (<0|rxdel|b>*<b|r|0>)*]
 Rotatory Strengths (R) in cgs (10**-40 erg-esu-cm/Gauss)
       state          XX          YY          ZZ     R(length)
         1        -0.0084     -0.0174      0.0001     -0.0086
         2         0.0420     -0.0017      0.0057      0.0153
         3        -0.0299     -0.0100      0.0147     -0.0084
         4         0.0433     -0.0439     -0.0084     -0.0030
         5        -0.7926     -0.4324     -0.2676     -0.4975
         6         1.0070      0.3427      0.1982      0.5160
  1/2[<0|del|b>*<b|r|0> + (<0|r|b>*<b|del|0>)*] (Au)
       state          X           Y           Z        Dip. S.   Osc.(frdel)
         1        -0.0029     -0.0208     -0.0000      0.0238      0.0159
         2        -0.1611     -0.0763     -0.0000      0.2373      0.1582
         3        -0.0000     -0.0000     -0.0058      0.0058      0.0039
         4        -0.0000     -0.0000     -0.0032      0.0032      0.0021
         5        -0.7560     -0.1247     -0.0000      0.8807      0.5871
         6        -0.0000     -0.0000     -0.0047      0.0047      0.0031

 Excitation energies and oscillator strengths:
 
 Excited State   1:      Singlet-A      4.9378 eV  251.09 nm  f=0.0151  <S**2>=0.000
      30 -> 32         0.55926
      31 -> 36        -0.39339
 
 Excited State   2:      Singlet-A      4.6909 eV  264.31 nm  f=0.1621  <S**2>=0.000
      30 -> 36         0.14809
      31 -> 32         0.67600
 This state for optimization and/or second-order correction.
 Total Energy, E(TD-HF/TD-DFT) =  -363.524514484    
 Copying the excited state density for this state as the 1-particle RhoCI density.
 
 Excited State   3:      Singlet-A      5.4035 eV  229.45 nm  f=0.0049  <S**2>=0.000
      31 -> 33         0.67632
      31 -> 40         0.10774
 
 Excited State   4:      Singlet-A      6.0517 eV  204.87 nm  f=0.0021  <S**2>=0.000
      30 -> 33         0.12409
      31 -> 34         0.61325
      31 -> 35        -0.24171
 
 Excited State   5:      Singlet-A      6.0773 eV  204.01 nm  f=0.5999  <S**2>=0.000
      30 -> 32         0.37658
      31 -> 36         0.55563
      31 -> 39         0.13868
 
 Excited State   6:      Singlet-A      6.1149 eV  202.76 nm  f=0.0034  <S**2>=0.000
      31 -> 34         0.22435
      31 -> 35         0.59397
      31 -> 37         0.15849
      31 -> 43         0.14131
 SavETr:  write IOETrn=   770 NScale= 10 NData=  16 NLR=1 NState=    6 LETran=     118.
          IDoAtm=1111111111111111
          Differentiating once with respect to electric field.
                with respect to dipole field.
          Differentiating once with respect to nuclear coordinates.
 Keep R1 ints in memory in canonical form, NReq=303315801.
          There are     1 degrees of freedom in the 1st order CPHF.  IDoFFX=0 NUNeed=     1.
 LinEq1:  Iter=  0 NonCon=     1 RMS=7.04D-03 Max=1.49D-01 NDo=     1
 AX will form     1 AO Fock derivatives at one time.
 LinEq1:  Iter=  1 NonCon=     1 RMS=2.35D-03 Max=5.87D-02 NDo=     1
 LinEq1:  Iter=  2 NonCon=     1 RMS=1.03D-03 Max=2.44D-02 NDo=     1
 LinEq1:  Iter=  3 NonCon=     1 RMS=5.77D-04 Max=1.17D-02 NDo=     1
 LinEq1:  Iter=  4 NonCon=     1 RMS=1.99D-04 Max=5.20D-03 NDo=     1
 LinEq1:  Iter=  5 NonCon=     1 RMS=9.67D-05 Max=2.24D-03 NDo=     1
 LinEq1:  Iter=  6 NonCon=     1 RMS=4.42D-05 Max=1.26D-03 NDo=     1
 LinEq1:  Iter=  7 NonCon=     1 RMS=2.37D-05 Max=6.36D-04 NDo=     1
 LinEq1:  Iter=  8 NonCon=     1 RMS=9.47D-06 Max=2.29D-04 NDo=     1
 LinEq1:  Iter=  9 NonCon=     1 RMS=3.91D-06 Max=5.69D-05 NDo=     1
 LinEq1:  Iter= 10 NonCon=     1 RMS=1.43D-06 Max=3.03D-05 NDo=     1
 LinEq1:  Iter= 11 NonCon=     1 RMS=6.91D-07 Max=1.16D-05 NDo=     1
 LinEq1:  Iter= 12 NonCon=     1 RMS=3.03D-07 Max=7.67D-06 NDo=     1
 LinEq1:  Iter= 13 NonCon=     1 RMS=1.06D-07 Max=2.86D-06 NDo=     1
 LinEq1:  Iter= 14 NonCon=     1 RMS=5.92D-08 Max=1.14D-06 NDo=     1
 LinEq1:  Iter= 15 NonCon=     1 RMS=2.01D-08 Max=3.95D-07 NDo=     1
 LinEq1:  Iter= 16 NonCon=     1 RMS=5.08D-09 Max=6.89D-08 NDo=     1
 LinEq1:  Iter= 17 NonCon=     1 RMS=2.88D-09 Max=6.21D-08 NDo=     1
 LinEq1:  Iter= 18 NonCon=     1 RMS=6.95D-10 Max=9.54D-09 NDo=     1
 LinEq1:  Iter= 19 NonCon=     1 RMS=1.68D-10 Max=2.30D-09 NDo=     1
 LinEq1:  Iter= 20 NonCon=     1 RMS=7.90D-11 Max=1.50D-09 NDo=     1
 LinEq1:  Iter= 21 NonCon=     0 RMS=2.73D-11 Max=3.66D-10 NDo=     1
 Linear equations converged to 1.000D-10 1.000D-09 after    21 iterations.
 End of Minotr F.D. properties file   721 does not exist.
 End of Minotr F.D. properties file   722 does not exist.
 End of Minotr F.D. properties file   788 does not exist.
 Calling FoFJK, ICntrl=  10005127 FMM=F ISym2X=0 I1Cent= 0 IOpClX= 0 NMat=1 NMatS=1 NMatT=0.
 ***** Axes restored to original set *****
 -------------------------------------------------------------------
 Center     Atomic                   Forces (Hartrees/Bohr)
 Number     Number              X              Y              Z
 -------------------------------------------------------------------
      1        6           0.000366261   -0.021543479    0.000000065
      2        6          -0.010857595    0.023948392   -0.000000054
      3        6           0.016690281   -0.006394383    0.000001938
      4        6          -0.019685133    0.007789596   -0.000001739
      5        6           0.009616396   -0.016639518   -0.000004384
      6        6           0.000694651    0.005869425   -0.000001281
      7        7           0.005890577    0.017916900    0.000026390
      8        6          -0.013719111    0.009543862   -0.000004712
      9        6           0.010555163   -0.020426025   -0.000008480
     10        1          -0.000730205   -0.001072557   -0.000012195
     11        1           0.001900958    0.000182019    0.000002198
     12        1          -0.000558331    0.001444765    0.000002032
     13        1           0.000158083   -0.000573252   -0.000000120
     14        1          -0.001221793    0.000788895   -0.000001338
     15        1           0.000115038   -0.000053923    0.000000184
     16        1           0.000784761   -0.000780717    0.000001497
 -------------------------------------------------------------------
 Cartesian Forces:  Max     0.023948392 RMS     0.008542387

 GradGradGradGradGradGradGradGradGradGradGradGradGradGradGradGradGradGrad
 Berny optimization.
 Using GEDIIS/GDIIS optimizer.
 FormGI is forming the generalized inverse of G from B-inverse, IUseBI=4.
 Internal  Forces:  Max     0.017811538 RMS     0.003631754
 Search for a local minimum.
 Step number   2 out of a maximum of   94
 All quantities printed in internal units (Hartrees-Bohrs-Radians)
 Mixed Optimization -- RFO/linear search
 Update second derivatives using D2CorX and points    1    2
 DE= -9.66D-03 DEPred=-8.32D-03 R= 1.16D+00
 TightC=F SS=  1.41D+00  RLast= 1.90D-01 DXNew= 5.0454D-01 5.6898D-01
 Trust test= 1.16D+00 RLast= 1.90D-01 DXMaxT set to 5.05D-01
 ITU=  1  0
 Use linear search instead of GDIIS.
     Eigenvalues ---    0.01854   0.01932   0.01986   0.02010   0.02071
     Eigenvalues ---    0.02113   0.02148   0.02156   0.02171   0.02210
     Eigenvalues ---    0.02233   0.02248   0.02340   0.15880   0.16000
     Eigenvalues ---    0.16000   0.16000   0.16000   0.16000   0.16027
     Eigenvalues ---    0.19381   0.22056   0.22705   0.24648   0.25329
     Eigenvalues ---    0.33194   0.35714   0.35739   0.35786   0.35835
     Eigenvalues ---    0.36431   0.36475   0.38546   0.38795   0.43029
     Eigenvalues ---    0.44872   0.46664   0.47155   0.47235   0.47691
     Eigenvalues ---    0.49687   0.60623
 RFO step:  Lambda=-3.38311497D-03 EMin= 1.85415907D-02
 Quartic linear search produced a step of  0.12955.
 Iteration  1 RMS(Cart)=  0.01075497 RMS(Int)=  0.00011333
 Iteration  2 RMS(Cart)=  0.00015557 RMS(Int)=  0.00004024
 Iteration  3 RMS(Cart)=  0.00000001 RMS(Int)=  0.00004024
 Variable       Old X    -DE/DX   Delta X   Delta X   Delta X     New X
                                 (Linear)    (Quad)   (Total)
    R1        2.66240  -0.01781   0.00090  -0.04366  -0.04279   2.61961
    R2        2.66884   0.00381   0.00724   0.01216   0.01937   2.68821
    R3        2.05126  -0.00013   0.00091  -0.00008   0.00083   2.05209
    R4        2.70384   0.00991   0.01144   0.02819   0.03962   2.74346
    R5        2.05256   0.00016   0.00109   0.00087   0.00196   2.05452
    R6        2.64807  -0.00612   0.00186  -0.01412  -0.01223   2.63584
    R7        2.05224  -0.00081   0.00089  -0.00223  -0.00133   2.05091
    R8        2.70716  -0.01213   0.00344  -0.03280  -0.02934   2.67782
    R9        2.63339   0.00486   0.00416   0.01125   0.01551   2.64890
   R10        2.70800   0.00109   0.00781   0.00570   0.01352   2.72151
   R11        2.65946  -0.00204  -0.00634  -0.00734  -0.01378   2.64568
   R12        2.05190  -0.00080   0.00086  -0.00220  -0.00134   2.05055
   R13        2.56454  -0.00932  -0.00534  -0.02290  -0.02816   2.53638
   R14        1.90495   0.00079   0.00123   0.00240   0.00364   1.90859
   R15        2.66620   0.01022   0.01134   0.02899   0.04028   2.70648
   R16        2.04294   0.00083   0.00113   0.00294   0.00407   2.04702
   R17        2.04337  -0.00070   0.00117  -0.00174  -0.00057   2.04280
    A1        2.11251   0.00202  -0.00022   0.01115   0.01087   2.12338
    A2        2.07723  -0.00101  -0.00034  -0.00556  -0.00587   2.07137
    A3        2.09344  -0.00101   0.00056  -0.00559  -0.00500   2.08844
    A4        2.14050  -0.00104   0.00327  -0.00371  -0.00048   2.14002
    A5        2.07129   0.00111  -0.00160   0.00596   0.00438   2.07566
    A6        2.07140  -0.00008  -0.00167  -0.00225  -0.00390   2.06750
    A7        2.02585  -0.00262  -0.00332  -0.01419  -0.01748   2.00837
    A8        2.12883   0.00008   0.00209  -0.00144   0.00065   2.12948
    A9        2.12850   0.00254   0.00122   0.01562   0.01683   2.14534
   A10        2.13742   0.00481   0.00046   0.02277   0.02325   2.16067
   A11        2.25844  -0.00054  -0.00266   0.00101  -0.00172   2.25672
   A12        1.88733  -0.00426   0.00220  -0.02378  -0.02153   1.86579
   A13        2.10008  -0.00190   0.00354  -0.00843  -0.00480   2.09528
   A14        1.84204   0.00479  -0.00300   0.01933   0.01621   1.85824
   A15        2.34107  -0.00289  -0.00054  -0.01089  -0.01141   2.32966
   A16        2.05000  -0.00127  -0.00374  -0.00759  -0.01135   2.03865
   A17        2.12028   0.00142   0.00223   0.00917   0.01142   2.13170
   A18        2.11290  -0.00015   0.00151  -0.00159  -0.00006   2.11284
   A19        1.90821   0.00739   0.00010   0.03495   0.03521   1.94343
   A20        2.19385  -0.00467   0.00047  -0.02424  -0.02385   2.17000
   A21        2.18112  -0.00272  -0.00057  -0.01072  -0.01137   2.16975
   A22        1.89727  -0.00095   0.00357   0.00042   0.00387   1.90114
   A23        2.20353   0.00223  -0.00177   0.01191   0.01020   2.21373
   A24        2.18239  -0.00128  -0.00181  -0.01233  -0.01407   2.16832
   A25        1.88993  -0.00696  -0.00288  -0.03092  -0.03376   1.85617
   A26        2.11053   0.00490   0.00104   0.02525   0.02627   2.13679
   A27        2.28272   0.00207   0.00184   0.00567   0.00749   2.29022
    D1       -0.00002   0.00000  -0.00000   0.00003   0.00003   0.00001
    D2        3.14159   0.00000  -0.00001   0.00004   0.00003  -3.14157
    D3        3.14158   0.00000   0.00001  -0.00001  -0.00001   3.14158
    D4        0.00000   0.00000   0.00000   0.00000   0.00000   0.00001
    D5        0.00005  -0.00000   0.00001  -0.00005  -0.00004   0.00001
    D6       -3.14157   0.00000   0.00001  -0.00003  -0.00002  -3.14159
    D7       -3.14155   0.00000   0.00000  -0.00001  -0.00000  -3.14156
    D8        0.00001   0.00000   0.00000   0.00001   0.00001   0.00002
    D9       -0.00004   0.00000  -0.00001   0.00004   0.00003  -0.00001
   D10       -3.14154   0.00000  -0.00000   0.00001   0.00001  -3.14153
   D11        3.14154   0.00000  -0.00001   0.00003   0.00002   3.14156
   D12        0.00004   0.00000   0.00000  -0.00000   0.00000   0.00004
   D13        0.00007  -0.00000   0.00001  -0.00009  -0.00008  -0.00000
   D14       -3.14145  -0.00000  -0.00000  -0.00003  -0.00003  -3.14148
   D15        3.14157  -0.00000   0.00000  -0.00006  -0.00006   3.14152
   D16        0.00005  -0.00000  -0.00001   0.00000  -0.00001   0.00004
   D17       -0.00004   0.00000  -0.00000   0.00007   0.00007   0.00002
   D18        3.14157   0.00000  -0.00001   0.00011   0.00009  -3.14152
   D19        3.14149   0.00000   0.00001   0.00002   0.00003   3.14152
   D20       -0.00008   0.00000  -0.00000   0.00006   0.00005  -0.00002
   D21       -3.14146  -0.00000  -0.00003   0.00003  -0.00000  -3.14146
   D22       -0.00105   0.00001   0.00001   0.00023   0.00024  -0.00081
   D23        0.00019  -0.00000  -0.00004   0.00008   0.00004   0.00023
   D24        3.14060   0.00001  -0.00000   0.00029   0.00028   3.14089
   D25       -0.00002  -0.00000  -0.00001   0.00000  -0.00001  -0.00003
   D26       -3.14158  -0.00000  -0.00001  -0.00001  -0.00002   3.14158
   D27        3.14154  -0.00000   0.00001  -0.00005  -0.00004   3.14150
   D28       -0.00002  -0.00000   0.00001  -0.00006  -0.00006  -0.00008
   D29       -0.00006   0.00000   0.00005  -0.00016  -0.00012  -0.00018
   D30        3.14148   0.00000   0.00001  -0.00001  -0.00000   3.14148
   D31        3.14156   0.00000   0.00003  -0.00012  -0.00009   3.14147
   D32       -0.00009   0.00000  -0.00000   0.00003   0.00003  -0.00006
   D33       -0.00023   0.00000   0.00007  -0.00018  -0.00011  -0.00033
   D34        3.14150   0.00000   0.00002  -0.00003  -0.00001   3.14149
   D35       -3.14065  -0.00000   0.00003  -0.00037  -0.00034  -3.14099
   D36        0.00107  -0.00001  -0.00002  -0.00022  -0.00024   0.00083
   D37        0.00018  -0.00000  -0.00007   0.00021   0.00014   0.00031
   D38       -3.14156  -0.00000  -0.00002   0.00004   0.00003  -3.14154
   D39       -3.14136  -0.00000  -0.00004   0.00007   0.00003  -3.14134
   D40        0.00008  -0.00000   0.00002  -0.00010  -0.00008  -0.00000
         Item               Value     Threshold  Converged?
 Maximum Force            0.017812     0.000450     NO 
 RMS     Force            0.003632     0.000300     NO 
 Maximum Displacement     0.038660     0.001800     NO 
 RMS     Displacement     0.010742     0.001200     NO 
 Predicted change in Energy=-1.978130D-03
 GradGradGradGradGradGradGradGradGradGradGradGradGradGradGradGradGradGrad

                          Input orientation:                          
 ---------------------------------------------------------------------
 Center     Atomic      Atomic             Coordinates (Angstroms)
 Number     Number       Type             X           Y           Z
[...]
 ! D12   D(13,2,3,14)            0.0033         -DE/DX =    0.0                 !
 ! D13   D(2,3,4,5)              0.0014         -DE/DX =    0.0                 !
 ! D14   D(2,3,4,7)           -179.997          -DE/DX =    0.0                 !
 ! D15   D(14,3,4,5)           179.9971         -DE/DX =    0.0                 !
 ! D16   D(14,3,4,7)            -0.0013         -DE/DX =    0.0                 !
 ! D17   D(3,4,5,6)              0.0003         -DE/DX =    0.0                 !
 ! D18   D(3,4,5,8)           -180.0            -DE/DX =    0.0                 !
 ! D19   D(7,4,5,6)            179.999          -DE/DX =    0.0                 !
 ! D20   D(7,4,5,8)             -0.0013         -DE/DX =    0.0                 !
 ! D21   D(3,4,7,9)           -180.0062         -DE/DX =    0.0                 !
 ! D22   D(3,4,7,10)            -0.0126         -DE/DX =    0.0                 !
 ! D23   D(5,4,7,9)             -0.0049         -DE/DX =    0.0                 !
 ! D24   D(5,4,7,10)           179.9887         -DE/DX =    0.0                 !
 ! D25   D(4,5,6,1)             -0.0022         -DE/DX =    0.0                 !
 ! D26   D(4,5,6,16)           179.9959         -DE/DX =    0.0                 !
 ! D27   D(8,5,6,1)            179.9982         -DE/DX =    0.0                 !
 ! D28   D(8,5,6,16)            -0.0037         -DE/DX =    0.0                 !
 ! D29   D(4,5,8,9)              0.0065         -DE/DX =    0.0                 !
 ! D30   D(4,5,8,11)           179.9974         -DE/DX =    0.0                 !
 ! D31   D(6,5,8,9)            180.0061         -DE/DX =    0.0                 !
 ! D32   D(6,5,8,11)            -0.0029         -DE/DX =    0.0                 !
 ! D33   D(4,7,9,8)              0.0088         -DE/DX =    0.0                 !
 ! D34   D(4,7,9,12)           180.0045         -DE/DX =    0.0                 !
 ! D35   D(10,7,9,8)           180.0153         -DE/DX =    0.0                 !
 ! D36   D(10,7,9,12)            0.0109         -DE/DX =    0.0                 !
 ! D37   D(5,8,9,7)             -0.0094         -DE/DX =    0.0                 !
 ! D38   D(5,8,9,12)          -180.0046         -DE/DX =    0.0                 !
 ! D39   D(11,8,9,7)          -180.0007         -DE/DX =    0.0                 !
 ! D40   D(11,8,9,12)            0.0042         -DE/DX =    0.0                 !
 --------------------------------------------------------------------------------
 GradGradGradGradGradGradGradGradGradGradGradGradGradGradGradGradGradGrad

                          Input orientation:                          
 ---------------------------------------------------------------------
 Center     Atomic      Atomic             Coordinates (Angstroms)
 Number     Number       Type             X           Y           Z
 ---------------------------------------------------------------------
      1          6           0       -2.181043    0.685501   -0.000048
      2          6           0       -2.152497   -0.694057    0.000012
      3          6           0       -0.904470   -1.439644    0.000103
      4          6           0        0.245892   -0.659755    0.000098
      5          6           0        0.248777    0.750738    0.000040
      6          6           0       -0.990380    1.465301   -0.000011
      7          7           0        1.588478   -1.065311    0.000116
      8          6           0        1.597000    1.159775    0.000054
      9          6           0        2.420824   -0.009164   -0.000032
     10          1           0        1.885502   -2.030922    0.000321
     11          1           0        1.974669    2.173686   -0.000017
     12          1           0        3.494862   -0.116260   -0.000115
     13          1           0       -3.084622   -1.251517   -0.000003
     14          1           0       -0.888785   -2.523613    0.000103
     15          1           0       -3.141365    1.193373   -0.000095
     16          1           0       -1.015939    2.549316    0.000010
 ---------------------------------------------------------------------
                    Distance matrix (angstroms):
                    1          2          3          4          5
     1  C    0.000000
     2  C    1.379853   0.000000
     3  C    2.479089   1.453779   0.000000
     4  C    2.774838   2.398634   1.389806   0.000000
     5  C    2.430695   2.802418   2.475430   1.410495   0.000000
     6  C    1.423294   2.452212   2.906215   2.458502   1.430424
     7  N    4.156275   3.759351   2.520895   1.402502   2.256730
     8  C    3.807695   4.182753   3.607538   2.266315   1.408906
     9  C    4.654002   4.624321   3.619924   2.270153   2.301139
    10  H    4.890372   4.253545   2.851938   2.137386   3.227460
    11  H    4.414140   5.025679   4.620129   3.319195   2.236847
    12  H    5.732252   5.676841   4.594069   3.294115   3.359874
    13  H    2.137404   1.086103   2.188254   3.382678   3.888518
    14  H    3.459529   2.223565   1.084082   2.182077   3.466326
    15  H    1.086349   2.130787   3.454921   3.861035   3.418916
    16  H    2.198016   3.436747   3.990517   3.448239   2.198724
                    6          7          8          9         10
     6  C    0.000000
     7  N    3.613102   0.000000
     8  C    2.605356   2.225103   0.000000
     9  C    3.716230   1.344711   1.430072   0.000000
    10  H    4.527060   1.010261   3.203714   2.091429   0.000000
    11  H    3.048496   3.261939   1.081965   2.227979   4.205554
    12  H    4.755916   2.129554   2.286952   1.079365   2.501195
    13  H    3.430299   4.676808   5.266110   5.643880   5.030865
    14  H    3.990207   2.874626   4.443700   4.156436   2.817696
    15  H    2.168105   5.241475   4.738484   5.690698   5.972057
    16  H    1.084316   4.455167   2.959437   4.284525   5.421894
                   11         12         13         14         15
    11  H    0.000000
    12  H    2.748607   0.000000
    13  H    6.109701   6.676708   0.000000
    14  H    5.501271   5.001171   2.537702   0.000000
    15  H    5.209109   6.764218   2.445549   4.346274   0.000000
    16  H    3.014105   5.239525   4.327330   5.074522   2.521114
                   16
    16  H    0.000000
 Stoichiometry    C8H7N
 Framework group  C1[X(C8H7N)]
 Deg. of freedom    42
 Full point group                 C1      NOp   1
 Largest Abelian subgroup         C1      NOp   1
 Largest concise Abelian subgroup C1      NOp   1
                         Standard orientation:                         
 ---------------------------------------------------------------------
 Center     Atomic      Atomic             Coordinates (Angstroms)
 Number     Number       Type             X           Y           Z
 ---------------------------------------------------------------------
      1          6           0       -2.193870    0.644376   -0.000086
      2          6           0       -2.140306   -0.734437   -0.000026
      3          6           0       -0.878960   -1.457264    0.000066
      4          6           0        0.257066   -0.656636    0.000061
      5          6           0        0.234366    0.753677    0.000003
      6          6           0       -1.017549    1.445645   -0.000049
      7          7           0        1.606787   -1.037773    0.000079
      8          6           0        1.574948    1.187102    0.000017
      9          6           0        2.419839    0.033298   -0.000070
     10          1           0        1.921277   -1.997838    0.000284
     11          1           0        1.934163    2.207696   -0.000055
     12          1           0        3.495644   -0.054299   -0.000153
     13          1           0       -3.062167   -1.308713   -0.000040
     14          1           0       -0.843616   -2.540769    0.000066
     15          1           0       -3.163247    1.134746   -0.000133
     16          1           0       -1.062766    2.529018   -0.000027
 ---------------------------------------------------------------------
 Rotational constants (GHZ):           3.8600333           1.6133309           1.1377849

 **********************************************************************

            Population analysis using the CI Density.

 **********************************************************************

 Orbital symmetries:
       Occupied  (A) (A) (A) (A) (A) (A) (A) (A) (A) (A) (A) (A)
                 (A) (A) (A) (A) (A) (A) (A) (A) (A) (A) (A) (A)
                 (A) (A) (A) (A) (A) (A) (A)
       Virtual   (A) (A) (A) (A) (A) (A) (A) (A) (A) (A) (A) (A)
                 (A) (A) (A) (A) (A) (A) (A) (A) (A) (A) (A) (A)
                 (A) (A) (A) (A) (A) (A) (A) (A) (A) (A) (A) (A)
                 (A) (A) (A) (A) (A) (A) (A) (A) (A) (A) (A) (A)
                 (A) (A) (A) (A) (A) (A) (A) (A) (A) (A) (A) (A)
                 (A) (A) (A) (A) (A) (A) (A) (A) (A) (A) (A) (A)
                 (A) (A) (A) (A) (A) (A) (A) (A) (A) (A) (A) (A)
                 (A) (A) (A) (A) (A) (A) (A) (A) (A) (A) (A) (A)
                 (A) (A) (A) (A) (A) (A) (A) (A) (A) (A) (A) (A)
                 (A) (A) (A) (A) (A) (A) (A) (A) (A) (A) (A) (A)
                 (A) (A) (A) (A) (A) (A) (A) (A) (A) (A) (A) (A)
                 (A) (A) (A) (A) (A) (A) (A) (A) (A) (A) (A) (A)
                 (A) (A) (A) (A) (A) (A) (A) (A) (A) (A)
 The electronic state is 1-A.
 Alpha  occ. eigenvalues --  -14.50613 -10.34271 -10.33634 -10.31263 -10.30619
 Alpha  occ. eigenvalues --  -10.30346 -10.30188 -10.29842 -10.29011  -1.08954
 Alpha  occ. eigenvalues --   -0.93898  -0.87827  -0.84108  -0.80636  -0.72453
 Alpha  occ. eigenvalues --   -0.69158  -0.67127  -0.63238  -0.57422  -0.56181
 Alpha  occ. eigenvalues --   -0.52569  -0.51905  -0.51457  -0.48885  -0.47765
 Alpha  occ. eigenvalues --   -0.43127  -0.42803  -0.42149  -0.35596  -0.30742
 Alpha  occ. eigenvalues --   -0.26607
 Alpha virt. eigenvalues --    0.03621   0.05664   0.07511   0.08054   0.08771
 Alpha virt. eigenvalues --    0.09240   0.09624   0.10971   0.11689   0.12062
 Alpha virt. eigenvalues --    0.12084   0.12645   0.14615   0.14911   0.16014
 Alpha virt. eigenvalues --    0.16139   0.17254   0.18697   0.19561   0.19951
 Alpha virt. eigenvalues --    0.21183   0.21402   0.22464   0.22824   0.23442
 Alpha virt. eigenvalues --    0.24161   0.24886   0.25110   0.25636   0.26142
 Alpha virt. eigenvalues --    0.26638   0.27294   0.27975   0.28450   0.29530
 Alpha virt. eigenvalues --    0.29678   0.29869   0.30508   0.31574   0.32452
 Alpha virt. eigenvalues --    0.33110   0.33602   0.34658   0.36037   0.36782
 Alpha virt. eigenvalues --    0.37912   0.38677   0.40240   0.42012   0.42966
 Alpha virt. eigenvalues --    0.44750   0.46429   0.50457   0.52954   0.59288
 Alpha virt. eigenvalues --    0.65875   0.69075   0.75129   0.75667   0.78193
 Alpha virt. eigenvalues --    0.79980   0.80651   0.81126   0.81700   0.82184
 Alpha virt. eigenvalues --    0.83910   0.84580   0.85920   0.87277   0.87609
 Alpha virt. eigenvalues --    0.89499   0.93702   0.97308   0.98132   0.99471
 Alpha virt. eigenvalues --    1.03029   1.03435   1.04168   1.04498   1.07242
 Alpha virt. eigenvalues --    1.08555   1.11573   1.13410   1.15035   1.17373
 Alpha virt. eigenvalues --    1.19674   1.21057   1.25722   1.26040   1.29387
 Alpha virt. eigenvalues --    1.30775   1.32384   1.33062   1.40311   1.40555
 Alpha virt. eigenvalues --    1.43264   1.44588   1.49074   1.49163   1.52405
 Alpha virt. eigenvalues --    1.55532   1.55956   1.57759   1.58615   1.62837
 Alpha virt. eigenvalues --    1.66849   1.71895   1.87027   1.90376   1.97094
 Alpha virt. eigenvalues --    1.98556   1.99529   2.02508   2.08007   2.08703
 Alpha virt. eigenvalues --    2.09097   2.11970   2.15337   2.20976   2.24274
 Alpha virt. eigenvalues --    2.24622   2.28406   2.30485   2.32949   2.36004
 Alpha virt. eigenvalues --    2.36324   2.39651   2.45487   2.48758   2.54313
 Alpha virt. eigenvalues --    2.61133   2.64052   2.69956   2.73115   2.73854
 Alpha virt. eigenvalues --    2.75487   2.81565   2.88226   2.91760   2.93333
 Alpha virt. eigenvalues --    3.03450   3.06277   3.17547   3.32448   3.49260
 Alpha virt. eigenvalues --    4.24426   4.34034   4.37566   4.40930   4.45435
 Alpha virt. eigenvalues --    4.49831   4.57180   4.61245   4.86988
          Condensed to atoms (all electrons):
               1          2          3          4          5          6
     1  C    5.616052   0.372878   0.436365  -0.459389  -0.121725  -0.189912
     2  C    0.372878   5.868160  -0.428717   0.242838  -0.389465   0.674895
     3  C    0.436365  -0.428717  13.324477  -1.103979  -4.587155  -2.843343
     4  C   -0.459389   0.242838  -1.103979  12.279352  -3.898767  -1.508423
     5  C   -0.121725  -0.389465  -4.587155  -3.898767  15.087927   0.685576
     6  C   -0.189912   0.674895  -2.843343  -1.508423   0.685576  12.184534
     7  N   -0.024301   0.019705  -0.573122  -0.288599   0.942789   0.139049
     8  C    0.166511  -0.358256   3.044921   2.409876  -4.883408  -3.561108
     9  C   -0.090319   0.050810  -1.043564  -0.762473   1.642211   0.913017
    10  H   -0.003285  -0.003600  -0.136156  -0.055065   0.167293   0.020096
    11  H    0.003267   0.001297   0.002774   0.001126   0.011572   0.026062
    12  H    0.001314  -0.000423   0.033953   0.093740  -0.106953  -0.018312
    13  H    0.029727   0.267670  -0.006434   0.006146   0.012274  -0.000966
    14  H    0.006544   0.037042   0.200303   0.066304   0.006578  -0.008572
    15  H    0.264357   0.026622   0.014600  -0.015524   0.025239  -0.012494
    16  H    0.014760   0.006206  -0.023586   0.027077   0.082243   0.228793
               7          8          9         10         11         12
     1  C   -0.024301   0.166511  -0.090319  -0.003285   0.003267   0.001314
     2  C    0.019705  -0.358256   0.050810  -0.003600   0.001297  -0.000423
     3  C   -0.573122   3.044921  -1.043564  -0.136156   0.002774   0.033953
     4  C   -0.288599   2.409876  -0.762473  -0.055065   0.001126   0.093740
     5  C    0.942789  -4.883408   1.642211   0.167293   0.011572  -0.106953
     6  C    0.139049  -3.561108   0.913017   0.020096   0.026062  -0.018312
     7  N    7.140203  -0.754576   0.577004   0.271202   0.005902  -0.053404
     8  C   -0.754576  11.161267  -1.601824  -0.014915   0.275865   0.056692
     9  C    0.577004  -1.601824   6.301438  -0.009701  -0.021183   0.314198
    10  H    0.271202  -0.014915  -0.009701   0.312197  -0.000066  -0.001803
    11  H    0.005902   0.275865  -0.021183  -0.000066   0.451441  -0.000266
    12  H   -0.053404   0.056692   0.314198  -0.001803  -0.000266   0.438344
    13  H   -0.000348   0.000207   0.001079  -0.000001   0.000000  -0.000000
    14  H   -0.006028  -0.008408   0.008473   0.001800   0.000002   0.000001
    15  H    0.000233   0.006568  -0.000075  -0.000000  -0.000002  -0.000000
    16  H   -0.000656  -0.037423   0.003947   0.000003   0.001228  -0.000001
              13         14         15         16
     1  C    0.029727   0.006544   0.264357   0.014760
     2  C    0.267670   0.037042   0.026622   0.006206
     3  C   -0.006434   0.200303   0.014600  -0.023586
     4  C    0.006146   0.066304  -0.015524   0.027077
     5  C    0.012274   0.006578   0.025239   0.082243
     6  C   -0.000966  -0.008572  -0.012494   0.228793
     7  N   -0.000348  -0.006028   0.000233  -0.000656
     8  C    0.000207  -0.008408   0.006568  -0.037423
     9  C    0.001079   0.008473  -0.000075   0.003947
    10  H   -0.000001   0.001800  -0.000000   0.000003
    11  H    0.000000   0.000002  -0.000002   0.001228
    12  H   -0.000000   0.000001  -0.000000  -0.000001
    13  H    0.498297  -0.002707  -0.003940  -0.000120
    14  H   -0.002707   0.495967  -0.000112   0.000012
    15  H   -0.003940  -0.000112   0.500450  -0.002750
    16  H   -0.000120   0.000012  -0.002750   0.493624
 Mulliken charges:
               1
     1  C   -0.022845
     2  C   -0.387663
     3  C   -0.311337
     4  C   -1.034239
     5  C    1.323771
     6  C   -0.728892
     7  N   -0.395054
     8  C    0.098011
     9  C   -0.283038
    10  H    0.452001
    11  H    0.240982
    12  H    0.242919
    13  H    0.199114
    14  H    0.202801
    15  H    0.196828
    16  H    0.206643
 Sum of Mulliken charges =   0.00000
 Mulliken charges with hydrogens summed into heavy atoms:
               1
     1  C    0.173984
     2  C   -0.188550
     3  C   -0.108537
     4  C   -1.034239
     5  C    1.323771
     6  C   -0.522250
     7  N    0.056947
     8  C    0.338993
     9  C   -0.040119
 Electronic spatial extent (au):  <R**2>=           1021.2030
 Charge=             -0.0000 electrons
 Dipole moment (field-independent basis, Debye):
    X=              4.1797    Y=             -1.4303    Z=              0.0003  Tot=              4.4177
 Quadrupole moment (field-independent basis, Debye-Ang):
   XX=            -44.1691   YY=            -45.8738   ZZ=            -60.4829
   XY=             -2.4331   XZ=              0.0005   YZ=             -0.0008
 Traceless Quadrupole moment (field-independent basis, Debye-Ang):
   XX=              6.0061   YY=              4.3014   ZZ=            -10.3076
   XY=             -2.4331   XZ=              0.0005   YZ=             -0.0008
 Octapole moment (field-independent basis, Debye-Ang**2):
  XXX=             27.4382  YYY=             -9.7942  ZZZ=              0.0012  XYY=             15.0232
  XXY=             -7.3987  XXZ=             -0.0006  XZZ=              4.8502  YZZ=             -1.6890
  YYZ=              0.0023  XYZ=             -0.0022
 Hexadecapole moment (field-independent basis, Debye-Ang**3):
 XXXX=           -831.7099 YYYY=           -390.5921 ZZZZ=            -85.0787 XXXY=            -18.8110
 XXXZ=             -0.0055 YYYX=            -15.3635 YYYZ=              0.0030 ZZZX=             -0.0038
 ZZZY=              0.0089 XXYY=           -195.7216 XXZZ=           -200.0219 YYZZ=           -103.4907
 XXYZ=             -0.0025 YYXZ=              0.0026 ZZXY=             -2.0158
 N-N= 3.981885733991D+02 E-N=-1.638421340763D+03  KE= 3.601318935656D+02
 Unable to Open any file for archive entry.
 1\1\GINC-EXP-2-22\FOpt\RwB97XD TD-FC\6-31+G(d)\C8H7N1\CWALDT\23-Jun-20
 21\0\\# td= (nstates=6, root=2) WB97XD/6-31+G* Opt density=current\\Fu
 ncsWB97XD-V-2nd\\0,1\C,-2.1810425466,0.6855009122,-0.0000482564\C,-2.1
 52497019,-0.6940569681,0.0000115323\C,-0.9044699218,-1.4396443537,0.00
 01033747\C,0.2458921077,-0.6597547939,0.0000983631\C,0.2487769434,0.75
 07377193,0.0000401249\C,-0.9903803662,1.4653009448,-0.0000113841\N,1.5
 884776393,-1.0653112329,0.0001164689\C,1.5969998518,1.1597752547,0.000
 0543751\C,2.42082396,-0.0091641262,-0.0000322714\H,1.8855017483,-2.030
 9223911,0.0003214958\H,1.9746688141,2.1736859587,-0.000017328\H,3.4948
 624535,-0.1162600141,-0.0001153316\H,-3.084622397,-1.2515169736,-0.000
 0029913\H,-0.8887847808,-2.5236128099,0.0001032503\H,-3.1413648037,1.1
 933732271,-0.0000952918\H,-1.0159386831,2.5493156466,0.0000098696\\Ver
 sion=AS64L-G16RevC.01\State=1-A\HF=-363.6922077\RMSD=7.518e-09\RMSF=1.
 458e-04\Dipole=1.6444369,-0.5627167,0.0001071\Quadrupole=4.4654205,3.1
 980217,-7.6634422,-1.8089659,0.0003848,-0.0006154\PG=C01 [X(C8H7N1)]\\
 @
 The archive entry for this job was punched.


 THE UNDERLYING PHYSICAL LAWS NECESSARY FOR THE 
 MATHEMATICAL THEORY OF A LARGE PART OF PHYSICS AND THE
 WHOLE OF CHEMISTRY ARE THUS COMPLETELY KNOWN, AND THE
 DIFFICULTY IS ONLY THAT THE EXACT APPLICATION OF THESE
 LAWS LEADS TO EQUATIONS MUCH TOO COMPLICATED 
 TO BE SOLUBLE.

                                        -- P. A. M. DIRAC, 1929
 Job cpu time:       0 days  3 hours 34 minutes 57.2 seconds.
 Elapsed time:       0 days  0 hours 54 minutes 38.1 seconds.
 File lengths (MBytes):  RWF=    238 Int=      0 D2E=      0 Chk=     11 Scr=      1
 Normal termination of Gaussian 16 at Wed Jun 23 12:54:28 2021.
