 Entering Gaussian System, Link 0=/opt/gaussian/16.B.01/g16/g16
 Initial command:
 /opt/gaussian/16.B.01/g16/l1.exe "/scratch/gfoley1/17401417/Gau-26741.inp" -scrdir="/scratch/gfoley1/17401417/"
 Entering Link 1 = /opt/gaussian/16.B.01/g16/l1.exe PID=     26787.
  
 Copyright (c) 1988-2017, Gaussian, Inc.  All Rights Reserved.
  
 This is part of the Gaussian(R) 16 program.  It is based on
 the Gaussian(R) 09 system (copyright 2009, Gaussian, Inc.),
 the Gaussian(R) 03 system (copyright 2003, Gaussian, Inc.),
 the Gaussian(R) 98 system (copyright 1998, Gaussian, Inc.),
 the Gaussian(R) 94 system (copyright 1995, Gaussian, Inc.),
 the Gaussian 92(TM) system (copyright 1992, Gaussian, Inc.),
 the Gaussian 90(TM) system (copyright 1990, Gaussian, Inc.),
 the Gaussian 88(TM) system (copyright 1988, Gaussian, Inc.),
 the Gaussian 86(TM) system (copyright 1986, Carnegie Mellon
 University), and the Gaussian 82(TM) system (copyright 1983,
 Carnegie Mellon University). Gaussian is a federally registered
 trademark of Gaussian, Inc.
  
 This software contains proprietary and confidential information,
 including trade secrets, belonging to Gaussian, Inc.
  
 This software is provided under written license and may be
 used, copied, transmitted, or stored only in accord with that
 written license.
  
 The following legend is applicable only to US Government
 contracts under FAR:
  
                    RESTRICTED RIGHTS LEGEND
  
 Use, reproduction and disclosure by the US Government is
 subject to restrictions as set forth in subparagraphs (a)
 and (c) of the Commercial Computer Software - Restricted
 Rights clause in FAR 52.227-19.
  
 Gaussian, Inc.
 340 Quinnipiac St., Bldg. 40, Wallingford CT 06492
  
  
 ---------------------------------------------------------------
 Warning -- This program may not be used in any manner that
 competes with the business of Gaussian, Inc. or will provide
 assistance to any competitor of Gaussian, Inc.  The licensee
 of this program is prohibited from giving any competitor of
 Gaussian, Inc. access to this program.  By using this program,
 the user acknowledges that Gaussian, Inc. is engaged in the
 business of creating and licensing software in the field of
 computational chemistry and represents and warrants to the
 licensee that it is not a competitor of Gaussian, Inc. and that
 it will not use this program in any manner prohibited above.
 ---------------------------------------------------------------
  

 Cite this work as:
 Gaussian 16, Revision B.01,
 M. J. Frisch, G. W. Trucks, H. B. Schlegel, G. E. Scuseria, 
 M. A. Robb, J. R. Cheeseman, G. Scalmani, V. Barone, 
 G. A. Petersson, H. Nakatsuji, X. Li, M. Caricato, A. V. Marenich, 
 J. Bloino, B. G. Janesko, R. Gomperts, B. Mennucci, H. P. Hratchian, 
 J. V. Ortiz, A. F. Izmaylov, J. L. Sonnenberg, D. Williams-Young, 
 F. Ding, F. Lipparini, F. Egidi, J. Goings, B. Peng, A. Petrone, 
 T. Henderson, D. Ranasinghe, V. G. Zakrzewski, J. Gao, N. Rega, 
 G. Zheng, W. Liang, M. Hada, M. Ehara, K. Toyota, R. Fukuda, 
 J. Hasegawa, M. Ishida, T. Nakajima, Y. Honda, O. Kitao, H. Nakai, 
 T. Vreven, K. Throssell, J. A. Montgomery, Jr., J. E. Peralta, 
 F. Ogliaro, M. J. Bearpark, J. J. Heyd, E. N. Brothers, K. N. Kudin, 
 V. N. Staroverov, T. A. Keith, R. Kobayashi, J. Normand, 
 K. Raghavachari, A. P. Rendell, J. C. Burant, S. S. Iyengar, 
 J. Tomasi, M. Cossi, J. M. Millam, M. Klene, C. Adamo, R. Cammi, 
 J. W. Ochterski, R. L. Martin, K. Morokuma, O. Farkas, 
 J. B. Foresman, and D. J. Fox, Gaussian, Inc., Wallingford CT, 2016.
 
 ******************************************
 Gaussian 16:  ES64L-G16RevB.01 20-Dec-2017
                26-Jun-2018 
 ******************************************
 %nprocshared=4
 Will use up to    4 processors via shared memory.
 %mem=7GB
 --------------------------------------------------------------------
 # opt td=(root=1) LC-BLYP/6-31+g(d) density=current scf=maxcycle=600
 --------------------------------------------------------------------
 1/18=20,19=15,26=3,38=1/1,3;
 2/9=110,12=2,17=6,18=5,40=1/2;
 3/5=1,6=6,7=11,11=9,25=1,30=1,71=1,74=1000402/1,2,3,8;
 4//1;
 5/5=2,7=600,38=5/2;
 8/6=1,10=2,107=1/1;
 9/8=1,15=2,42=1,70=2/14;
 10/5=4,28=1/2;
 6/7=2,8=2,9=2,10=2,22=-1/1;
 7/12=6,13=5,14=1/1,2,3,16;
 1/18=20,19=15,26=3/3(2);
 2/9=110/2;
 99//99;
 2/9=110/2;
 3/5=1,6=6,7=11,11=9,25=1,30=1,71=1,74=1000402/1,2,3,8;
 4/5=5,16=3,69=1/1;
 5/5=2,7=600,38=5/2;
 8/6=1,10=2,107=1/1;
 9/8=1,15=2,42=1,49=4,70=2/14;
 10/5=4,28=1/2;
 7/12=6,13=5,14=1/1,2,3,16;
 1/18=20,19=15,26=3/3(-8);
 2/9=110/2;
 6/7=2,8=2,9=2,10=2,22=-1/1;
 99/9=10/99;
 -------------------
 Title Card Required
 -------------------
 Symbolic Z-matrix:
 Charge =  0 Multiplicity = 1
 C                     2.38236   0.03088   0. 
 H                     3.45292  -0.08191   0. 
 C                     1.62023   1.16307   0. 
 H                     1.99365   2.17268   0. 
 C                     0.24793   0.74811   0. 
 C                    -0.97967   1.42388   0. 
 C                    -2.15137   0.68945   0. 
 C                    -2.12818  -0.71613   0. 
 C                    -0.93226  -1.41335   0. 
 C                     0.24663  -0.67002   0. 
 H                    -1.00927   2.50561   0. 
 H                    -3.10448   1.20063   0. 
 H                    -3.06168  -1.26218   0. 
 H                    -0.91738  -2.49543   0. 
 N                     1.56222  -1.0778    0. 
 H                     1.8767   -2.03017   0. 
 

 GradGradGradGradGradGradGradGradGradGradGradGradGradGradGradGradGradGrad
 Berny optimization.
 Initialization pass.
                           ----------------------------
                           !    Initial Parameters    !
                           ! (Angstroms and Degrees)  !
 --------------------------                            --------------------------
 ! Name  Definition              Value          Derivative Info.                !
 --------------------------------------------------------------------------------
 ! R1    R(1,2)                  1.0765         estimate D2E/DX2                !
 ! R2    R(1,3)                  1.3648         estimate D2E/DX2                !
 ! R3    R(1,15)                 1.3791         estimate D2E/DX2                !
 ! R4    R(3,4)                  1.0765         estimate D2E/DX2                !
 ! R5    R(3,5)                  1.4337         estimate D2E/DX2                !
 ! R6    R(5,6)                  1.4013         estimate D2E/DX2                !
 ! R7    R(5,10)                 1.4181         estimate D2E/DX2                !
 ! R8    R(6,7)                  1.3828         estimate D2E/DX2                !
 ! R9    R(6,11)                 1.0821         estimate D2E/DX2                !
 ! R10   R(7,8)                  1.4058         estimate D2E/DX2                !
 ! R11   R(7,12)                 1.0815         estimate D2E/DX2                !
 ! R12   R(8,9)                  1.3843         estimate D2E/DX2                !
 ! R13   R(8,13)                 1.0815         estimate D2E/DX2                !
 ! R14   R(9,10)                 1.3937         estimate D2E/DX2                !
 ! R15   R(9,14)                 1.0822         estimate D2E/DX2                !
 ! R16   R(10,15)                1.3773         estimate D2E/DX2                !
 ! R17   R(15,16)                1.003          estimate D2E/DX2                !
 ! A1    A(2,1,3)              129.9608         estimate D2E/DX2                !
 ! A2    A(2,1,15)             120.4778         estimate D2E/DX2                !
 ! A3    A(3,1,15)             109.5614         estimate D2E/DX2                !
 ! A4    A(1,3,4)              125.7558         estimate D2E/DX2                !
 ! A5    A(1,3,5)              107.1223         estimate D2E/DX2                !
 ! A6    A(4,3,5)              127.1219         estimate D2E/DX2                !
 ! A7    A(3,5,6)              134.3441         estimate D2E/DX2                !
 ! A8    A(3,5,10)             106.8769         estimate D2E/DX2                !
 ! A9    A(6,5,10)             118.7789         estimate D2E/DX2                !
 ! A10   A(5,6,7)              119.0888         estimate D2E/DX2                !
 ! A11   A(5,6,11)             120.399          estimate D2E/DX2                !
 ! A12   A(7,6,11)             120.5122         estimate D2E/DX2                !
 ! A13   A(6,7,8)              121.1341         estimate D2E/DX2                !
 ! A14   A(6,7,12)             119.7146         estimate D2E/DX2                !
 ! A15   A(8,7,12)             119.1514         estimate D2E/DX2                !
 ! A16   A(7,8,9)              121.1877         estimate D2E/DX2                !
 ! A17   A(7,8,13)             119.3799         estimate D2E/DX2                !
 ! A18   A(9,8,13)             119.4324         estimate D2E/DX2                !
 ! A19   A(8,9,10)             117.525          estimate D2E/DX2                !
 ! A20   A(8,9,14)             121.0304         estimate D2E/DX2                !
 ! A21   A(10,9,14)            121.4446         estimate D2E/DX2                !
 ! A22   A(5,10,9)             122.2855         estimate D2E/DX2                !
 ! A23   A(5,10,15)            107.1687         estimate D2E/DX2                !
 ! A24   A(9,10,15)            130.5458         estimate D2E/DX2                !
 ! A25   A(1,15,10)            109.2707         estimate D2E/DX2                !
 ! A26   A(1,15,16)            125.234          estimate D2E/DX2                !
 ! A27   A(10,15,16)           125.4953         estimate D2E/DX2                !
 ! D1    D(2,1,3,4)              0.0            estimate D2E/DX2                !
 ! D2    D(2,1,3,5)            180.0            estimate D2E/DX2                !
 ! D3    D(15,1,3,4)           180.0            estimate D2E/DX2                !
 ! D4    D(15,1,3,5)             0.0            estimate D2E/DX2                !
 ! D5    D(2,1,15,10)          180.0            estimate D2E/DX2                !
 ! D6    D(2,1,15,16)            0.0            estimate D2E/DX2                !
 ! D7    D(3,1,15,10)            0.0            estimate D2E/DX2                !
 ! D8    D(3,1,15,16)          180.0            estimate D2E/DX2                !
 ! D9    D(1,3,5,6)            180.0            estimate D2E/DX2                !
 ! D10   D(1,3,5,10)             0.0            estimate D2E/DX2                !
 ! D11   D(4,3,5,6)              0.0            estimate D2E/DX2                !
 ! D12   D(4,3,5,10)           180.0            estimate D2E/DX2                !
 ! D13   D(3,5,6,7)            180.0            estimate D2E/DX2                !
 ! D14   D(3,5,6,11)             0.0            estimate D2E/DX2                !
 ! D15   D(10,5,6,7)             0.0            estimate D2E/DX2                !
 ! D16   D(10,5,6,11)          180.0            estimate D2E/DX2                !
 ! D17   D(3,5,10,9)           180.0            estimate D2E/DX2                !
 ! D18   D(3,5,10,15)            0.0            estimate D2E/DX2                !
 ! D19   D(6,5,10,9)             0.0            estimate D2E/DX2                !
 ! D20   D(6,5,10,15)          180.0            estimate D2E/DX2                !
 ! D21   D(5,6,7,8)              0.0            estimate D2E/DX2                !
 ! D22   D(5,6,7,12)           180.0            estimate D2E/DX2                !
 ! D23   D(11,6,7,8)           180.0            estimate D2E/DX2                !
 ! D24   D(11,6,7,12)            0.0            estimate D2E/DX2                !
 ! D25   D(6,7,8,9)              0.0            estimate D2E/DX2                !
 ! D26   D(6,7,8,13)           180.0            estimate D2E/DX2                !
 ! D27   D(12,7,8,9)           180.0            estimate D2E/DX2                !
 ! D28   D(12,7,8,13)            0.0            estimate D2E/DX2                !
 ! D29   D(7,8,9,10)             0.0            estimate D2E/DX2                !
 ! D30   D(7,8,9,14)           180.0            estimate D2E/DX2                !
 ! D31   D(13,8,9,10)          180.0            estimate D2E/DX2                !
 ! D32   D(13,8,9,14)            0.0            estimate D2E/DX2                !
 ! D33   D(8,9,10,5)             0.0            estimate D2E/DX2                !
 ! D34   D(8,9,10,15)          180.0            estimate D2E/DX2                !
 ! D35   D(14,9,10,5)          180.0            estimate D2E/DX2                !
 ! D36   D(14,9,10,15)           0.0            estimate D2E/DX2                !
 ! D37   D(5,10,15,1)            0.0            estimate D2E/DX2                !
 ! D38   D(5,10,15,16)         180.0            estimate D2E/DX2                !
 ! D39   D(9,10,15,1)          180.0            estimate D2E/DX2                !
 ! D40   D(9,10,15,16)           0.0            estimate D2E/DX2                !
 --------------------------------------------------------------------------------
 Trust Radius=3.00D-01 FncErr=1.00D-07 GrdErr=1.00D-06 EigMax=2.50D+02 EigMin=1.00D-04
 Number of steps in this run=     94 maximum allowed number of steps=    100.
 GradGradGradGradGradGradGradGradGradGradGradGradGradGradGradGradGradGrad

                          Input orientation:                          
 ---------------------------------------------------------------------
 Center     Atomic      Atomic             Coordinates (Angstroms)
 Number     Number       Type             X           Y           Z
 ---------------------------------------------------------------------
      1          6           0        2.382361    0.030881    0.000000
      2          1           0        3.452915   -0.081909    0.000000
      3          6           0        1.620231    1.163065    0.000000
      4          1           0        1.993651    2.172676    0.000000
      5          6           0        0.247934    0.748111    0.000000
      6          6           0       -0.979672    1.423877    0.000000
      7          6           0       -2.151373    0.689454    0.000000
      8          6           0       -2.128177   -0.716127    0.000000
      9          6           0       -0.932262   -1.413347    0.000000
     10          6           0        0.246629   -0.670018    0.000000
     11          1           0       -1.009270    2.505611    0.000000
     12          1           0       -3.104484    1.200634    0.000000
     13          1           0       -3.061678   -1.262176    0.000000
     14          1           0       -0.917376   -2.495432    0.000000
     15          7           0        1.562216   -1.077800    0.000000
     16          1           0        1.876702   -2.030174    0.000000
 ---------------------------------------------------------------------
                    Distance matrix (angstroms):
                    1          2          3          4          5
     1  C    0.000000
     2  H    1.076479   0.000000
     3  C    1.364801   2.215557   0.000000
     4  H    2.176782   2.685629   1.076456   0.000000
     5  C    2.251710   3.310715   1.433662   2.253201   0.000000
     6  C    3.639190   4.681369   2.612952   3.066162   1.401312
     7  C    4.581317   5.657123   3.801224   4.402405   2.400024
     8  C    4.571977   5.617012   4.193081   5.033354   2.791039
     9  C    3.615594   4.582849   3.626723   4.628232   2.462674
    10  C    2.247801   3.259776   2.290628   3.336614   1.418130
    11  H    4.198506   5.158135   2.952407   3.021321   2.160872
    12  H    5.610151   6.681646   4.724864   5.189976   3.382822
    13  H    5.595494   6.620646   5.272766   6.111838   3.872310
    14  H    4.155782   4.992448   4.452421   5.501392   3.446523
    15  N    1.379062   2.136947   2.241616   3.278983   2.249731
    16  H    2.122178   2.506030   3.203522   4.204477   3.220521
                    6          7          8          9         10
     6  C    0.000000
     7  C    1.382845   0.000000
     8  C    2.428720   1.405772   0.000000
     9  C    2.837620   2.430639   1.384315   0.000000
    10  C    2.426563   2.756552   2.375254   1.393672   0.000000
    11  H    1.082139   2.145420   3.410506   3.919715   3.414953
    12  H    2.136507   1.081539   2.151081   3.398742   3.837877
    13  H    3.398475   2.153489   1.081478   2.134775   3.360885
    14  H    3.919804   3.415589   2.152200   1.082187   2.164958
    15  N    3.566452   4.112655   3.708073   2.516945   1.377336
    16  H    4.482113   4.860223   4.214947   2.875892   2.123008
                   11         12         13         14         15
    11  H    0.000000
    12  H    2.468377   0.000000
    13  H    4.290524   2.463182   0.000000
    14  H    5.001887   4.294688   2.473651   0.000000
    15  N    4.410598   5.193202   4.627569   2.856231   0.000000
    16  H    5.376075   5.937199   4.997741   2.832550   1.002954
                   16
    16  H    0.000000
 Stoichiometry    C8H7N
 Framework group  CS[SG(C8H7N)]
 Deg. of freedom    29
 Full point group                 CS      NOp   2
 Largest Abelian subgroup         CS      NOp   2
 Largest concise Abelian subgroup C1      NOp   1
                         Standard orientation:                         
 ---------------------------------------------------------------------
 Center     Atomic      Atomic             Coordinates (Angstroms)
 Number     Number       Type             X           Y           Z
 ---------------------------------------------------------------------
      1          6           0       -2.246377    0.793969    0.000000
      2          1           0       -3.212069    1.269622    0.000000
      3          6           0       -1.922257   -0.531787    0.000000
      4          1           0       -2.621445   -1.350257    0.000000
      5          6           0       -0.491095   -0.616414    0.000000
      6          6           0        0.427510   -1.674640    0.000000
      7          6           0        1.780780   -1.390171    0.000000
      8          6           0        2.244548   -0.063101    0.000000
      9          6           0        1.363093    1.004310    0.000000
     10          6           0        0.000000    0.713968    0.000000
     11          1           0        0.081618   -2.700009    0.000000
     12          1           0        2.498641   -2.199122    0.000000
     13          1           0        3.309209    0.126871    0.000000
     14          1           0        1.722913    2.024927    0.000000
     15          7           0       -1.093741    1.551097    0.000000
     16          1           0       -1.059886    2.553480    0.000000
 ---------------------------------------------------------------------
 Rotational constants (GHZ):           3.9070271           1.6424924           1.1563636
 Standard basis: 6-31+G(d) (6D, 7F)
 There are   140 symmetry adapted cartesian basis functions of A'  symmetry.
 There are    45 symmetry adapted cartesian basis functions of A"  symmetry.
 There are   140 symmetry adapted basis functions of A'  symmetry.
 There are    45 symmetry adapted basis functions of A"  symmetry.
   185 basis functions,   316 primitive gaussians,   185 cartesian basis functions
    31 alpha electrons       31 beta electrons
       nuclear repulsion energy       401.2841188295 Hartrees.
 NAtoms=   16 NActive=   16 NUniq=   16 SFac= 1.00D+00 NAtFMM=   60 NAOKFM=F Big=F
 Integral buffers will be    131072 words long.
 Raffenetti 1 integral format.
 Two-electron integral symmetry is turned on.
 One-electron integrals computed using PRISM.
 NBasis=   185 RedAO= T EigKep=  1.27D-06  NBF=   140    45
 NBsUse=   185 1.00D-06 EigRej= -1.00D+00 NBFU=   140    45
 ExpMin= 4.38D-02 ExpMax= 4.17D+03 ExpMxC= 6.27D+02 IAcc=3 IRadAn=         5 AccDes= 0.00D+00
 Harris functional with IExCor=10402 and IRadAn=       5 diagonalized for initial guess.
 HarFok:  IExCor=10402 AccDes= 0.00D+00 IRadAn=         5 IDoV= 1 UseB2=F ITyADJ=14
 ICtDFT=  3500011 ScaDFX=  1.000000  1.000000  1.000000  1.000000
 FoFCou: FMM=F IPFlag=           0 FMFlag=      100000 FMFlg1=           0
         NFxFlg=           0 DoJE=T BraDBF=F KetDBF=T FulRan=T
         wScrn=  0.000000 ICntrl=       500 IOpCl=  0 I1Cent=   200000004 NGrid=           0
         NMat0=    1 NMatS0=      1 NMatT0=    0 NMatD0=    1 NMtDS0=    0 NMtDT0=    0
 Petite list used in FoFCou.
 Initial guess orbital symmetries:
       Occupied  (A') (A') (A') (A') (A') (A') (A') (A') (A') (A')
                 (A') (A') (A') (A') (A') (A') (A') (A') (A') (A')
                 (A') (A') (A') (A") (A') (A') (A') (A") (A") (A")
                 (A")
       Virtual   (A") (A') (A') (A') (A') (A') (A") (A") (A') (A")
                 (A') (A') (A") (A") (A') (A') (A') (A") (A") (A')
                 (A") (A') (A") (A') (A') (A") (A') (A') (A') (A")
                 (A') (A') (A') (A') (A") (A') (A') (A') (A') (A')
                 (A') (A') (A') (A') (A') (A') (A') (A') (A') (A')
                 (A') (A') (A') (A') (A') (A') (A') (A") (A') (A')
                 (A") (A") (A') (A") (A') (A') (A") (A") (A") (A')
                 (A') (A") (A') (A') (A') (A') (A') (A') (A') (A")
                 (A') (A') (A') (A') (A') (A') (A') (A') (A') (A')
                 (A") (A') (A') (A') (A") (A") (A') (A') (A") (A")
                 (A') (A") (A") (A") (A') (A') (A') (A') (A') (A')
                 (A") (A') (A') (A') (A') (A") (A') (A') (A') (A')
                 (A") (A') (A") (A") (A") (A') (A') (A") (A") (A')
                 (A') (A") (A') (A') (A") (A') (A') (A') (A') (A')
                 (A') (A') (A') (A') (A') (A') (A') (A') (A') (A')
                 (A') (A') (A') (A')
 The electronic state of the initial guess is 1-A'.
 Keep R1 ints in memory in symmetry-blocked form, NReq=454694034.
 Requested convergence on RMS density matrix=1.00D-08 within 600 cycles.
 Requested convergence on MAX density matrix=1.00D-06.
 Requested convergence on             energy=1.00D-06.
 No special actions if energy rises.
 SCF Done:  E(RLC-B+HF-LYP) =  -362.735174233     A.U. after   16 cycles
            NFock= 16  Conv=0.44D-08     -V/T= 2.0089
 DoSCS=F DFT=T ScalE2(SS,OS)=  1.000000  1.000000
 ExpMin= 4.38D-02 ExpMax= 4.17D+03 ExpMxC= 6.27D+02 IAcc=3 IRadAn=         5 AccDes= 0.00D+00
 HarFok:  IExCor=  205 AccDes= 0.00D+00 IRadAn=         5 IDoV=-2 UseB2=F ITyADJ=14
 ICtDFT= 12500011 ScaDFX=  1.000000  1.000000  1.000000  1.000000
 Range of M.O.s used for correlation:    10   185
 NBasis=   185 NAE=    31 NBE=    31 NFC=     9 NFV=     0
 NROrb=    176 NOA=    22 NOB=    22 NVA=   154 NVB=   154

 **** Warning!!: The largest alpha MO coefficient is  0.21384577D+03

 Keep R1, R2, and R3 ints in memory in symmetry-blocked form, NReq=454694374.
 Orbital symmetries:
       Occupied  (A') (A') (A') (A') (A') (A') (A') (A') (A') (A')
                 (A') (A') (A') (A') (A') (A') (A') (A') (A') (A')
                 (A') (A") (A') (A') (A') (A') (A") (A') (A") (A")
                 (A")
       Virtual   (A') (A") (A') (A') (A') (A') (A") (A") (A') (A')
                 (A') (A") (A") (A") (A') (A') (A') (A") (A') (A")
                 (A') (A") (A') (A") (A') (A") (A') (A') (A') (A')
                 (A') (A') (A") (A') (A') (A') (A') (A') (A") (A')
                 (A') (A') (A') (A') (A') (A') (A') (A') (A') (A')
                 (A') (A') (A') (A') (A') (A') (A') (A") (A') (A")
                 (A') (A") (A") (A') (A') (A") (A') (A") (A") (A')
                 (A') (A") (A') (A') (A') (A') (A') (A') (A") (A')
                 (A') (A') (A') (A') (A') (A') (A') (A') (A') (A')
                 (A') (A') (A") (A') (A") (A") (A') (A') (A") (A')
                 (A") (A") (A") (A") (A') (A') (A') (A') (A') (A')
                 (A") (A') (A') (A') (A') (A") (A') (A') (A') (A')
                 (A") (A') (A") (A") (A") (A') (A') (A") (A") (A')
                 (A') (A") (A') (A') (A") (A') (A') (A') (A') (A')
                 (A') (A') (A') (A') (A') (A') (A') (A') (A') (A')
                 (A') (A') (A') (A')
    12 initial guesses have been made.
 Convergence on wavefunction:    0.000001000000000
 Iteration     1 Dimension    12 NMult     0 NNew     12
 CISAX will form    12 AO SS matrices at one time.
 New state      1 was old state      6
 New state      2 was old state      1
 New state      3 was old state      2
 Iteration     2 Dimension    18 NMult    12 NNew      6
 New state      2 was old state      3
 New state      3 was old state      2
 Iteration     3 Dimension    24 NMult    18 NNew      6
 Iteration     4 Dimension    30 NMult    24 NNew      6
 Iteration     5 Dimension    36 NMult    30 NNew      6
 Iteration     6 Dimension    42 NMult    36 NNew      6
 Iteration     7 Dimension    48 NMult    42 NNew      6
 Iteration     8 Dimension    54 NMult    48 NNew      6
 Iteration     9 Dimension    60 NMult    54 NNew      6
 Iteration    10 Dimension    66 NMult    60 NNew      6
 Iteration    11 Dimension    72 NMult    66 NNew      6
 Iteration    12 Dimension    78 NMult    72 NNew      6
 Iteration    13 Dimension    82 NMult    78 NNew      4
 Iteration    14 Dimension    84 NMult    82 NNew      2
 ***********************************************************************
 Excited states from <AA,BB:AA,BB> singles matrix:
 ***********************************************************************
 
 Ground to excited state transition densities written to RWF  633
 Ground to excited state transition electric dipole moments (Au):
       state          X           Y           Z        Dip. S.      Osc.
         1         0.5444      0.1597     -0.0000      0.3219      0.0412
         2         0.5434     -0.8910      0.0000      1.0892      0.1432
         3         0.0000     -0.0000     -0.1766      0.0312      0.0045
 Ground to excited state transition velocity dipole moments (Au):
       state          X           Y           Z        Dip. S.      Osc.
         1        -0.1022     -0.0350      0.0000      0.0117      0.0405
         2        -0.0927      0.1779     -0.0000      0.0403      0.1361
         3        -0.0000     -0.0000      0.0276      0.0008      0.0024
 Ground to excited state transition magnetic dipole moments (Au):
       state          X           Y           Z
         1         0.0000      0.0000     -0.1460
         2         0.0000      0.0000      0.0881
         3        -0.0973      0.1703     -0.0000
 Ground to excited state transition velocity quadrupole moments (Au):
       state          XX          YY          ZZ          XY          XZ          YZ
         1        -0.0251     -0.0682      0.0175     -0.0441      0.0000      0.0000
         2         0.2059     -0.1036      0.0175     -0.1893     -0.0000      0.0000
         3        -0.0000      0.0000     -0.0000      0.0000     -0.1308     -0.0355
 <0|del|b> * <b|rxdel|0> + <0|del|b> * <b|delr+rdel|0>
 Rotatory Strengths (R) in cgs (10**-40 erg-esu-cm/Gauss)
       state          XX          YY          ZZ    R(velocity)    E-M Angle
         1        -0.0000     -0.0000     -0.0000     -0.0000       90.00
         2         0.0000     -0.0000     -0.0000      0.0000       90.00
         3        -0.0000      0.0000      0.0000      0.0000       90.00
 1/2[<0|r|b>*<b|rxdel|0> + (<0|rxdel|b>*<b|r|0>)*]
 Rotatory Strengths (R) in cgs (10**-40 erg-esu-cm/Gauss)
       state          XX          YY          ZZ     R(length)
         1        -0.0000     -0.0000     -0.0000     -0.0000
         2        -0.0000      0.0000     -0.0000      0.0000
         3         0.0000      0.0000     -0.0000     -0.0000
  1/2[<0|del|b>*<b|r|0> + (<0|r|b>*<b|del|0>)*] (Au)
       state          X           Y           Z        Dip. S.   Osc.(frdel)
         1        -0.0556     -0.0056     -0.0000      0.0612      0.0408
         2        -0.0504     -0.1585     -0.0000      0.2089      0.1393
         3        -0.0000      0.0000     -0.0049      0.0049      0.0033

 Excitation energies and oscillator strengths:
 
 Excited State   1:      Singlet-A'     5.2259 eV  237.25 nm  f=0.0412  <S**2>=0.000
      30 -> 33         0.57545
      31 -> 38        -0.32568
 This state for optimization and/or second-order correction.
 Total Energy, E(TD-HF/TD-DFT) =  -362.543127123    
 Copying the excited state density for this state as the 1-particle RhoCI density.
 
 Excited State   2:      Singlet-A'     5.3648 eV  231.11 nm  f=0.1432  <S**2>=0.000
      30 -> 38         0.23088
      31 -> 33         0.64166
 
 Excited State   3:      Singlet-A"     5.8333 eV  212.55 nm  f=0.0045  <S**2>=0.000
      29 -> 32         0.11364
      31 -> 32         0.65360
      31 -> 40         0.12282
 SavETr:  write IOETrn=   770 NScale= 10 NData=  16 NLR=1 NState=    3 LETran=      64.
          IDoAtm=1111111111111111
          Differentiating once with respect to electric field.
                with respect to dipole field.
          Differentiating once with respect to nuclear coordinates.
 Keep R1 ints in memory in symmetry-blocked form, NReq=454696144.
          There are     1 degrees of freedom in the 1st order CPHF.  IDoFFX=0 NUNeed=     1.
 LinEq1:  Iter=  0 NonCon=     1 RMS=3.19D-03 Max=5.74D-02 NDo=     1
 AX will form     1 AO Fock derivatives at one time.
 LinEq1:  Iter=  1 NonCon=     1 RMS=1.38D-03 Max=4.21D-02 NDo=     1
 LinEq1:  Iter=  2 NonCon=     1 RMS=5.48D-04 Max=1.15D-02 NDo=     1
 LinEq1:  Iter=  3 NonCon=     1 RMS=3.15D-04 Max=9.11D-03 NDo=     1
 LinEq1:  Iter=  4 NonCon=     1 RMS=1.07D-04 Max=2.27D-03 NDo=     1
 LinEq1:  Iter=  5 NonCon=     1 RMS=4.63D-05 Max=1.18D-03 NDo=     1
 LinEq1:  Iter=  6 NonCon=     1 RMS=2.07D-05 Max=5.13D-04 NDo=     1
 LinEq1:  Iter=  7 NonCon=     1 RMS=7.10D-06 Max=1.09D-04 NDo=     1
 LinEq1:  Iter=  8 NonCon=     1 RMS=3.40D-06 Max=6.68D-05 NDo=     1
 LinEq1:  Iter=  9 NonCon=     1 RMS=9.79D-07 Max=1.96D-05 NDo=     1
 LinEq1:  Iter= 10 NonCon=     1 RMS=5.20D-07 Max=1.26D-05 NDo=     1
 LinEq1:  Iter= 11 NonCon=     1 RMS=1.82D-07 Max=4.52D-06 NDo=     1
 LinEq1:  Iter= 12 NonCon=     1 RMS=7.78D-08 Max=1.78D-06 NDo=     1
 LinEq1:  Iter= 13 NonCon=     1 RMS=2.82D-08 Max=5.59D-07 NDo=     1
 LinEq1:  Iter= 14 NonCon=     1 RMS=9.52D-09 Max=1.28D-07 NDo=     1
 LinEq1:  Iter= 15 NonCon=     1 RMS=3.82D-09 Max=9.11D-08 NDo=     1
 LinEq1:  Iter= 16 NonCon=     1 RMS=9.01D-10 Max=1.25D-08 NDo=     1
 LinEq1:  Iter= 17 NonCon=     1 RMS=2.45D-10 Max=3.72D-09 NDo=     1
 LinEq1:  Iter= 18 NonCon=     1 RMS=1.07D-10 Max=1.22D-09 NDo=     1
 LinEq1:  Iter= 19 NonCon=     0 RMS=2.85D-11 Max=4.03D-10 NDo=     1
 Linear equations converged to 1.000D-10 1.000D-09 after    19 iterations.
 End of Minotr F.D. properties file   721 does not exist.
 End of Minotr F.D. properties file   722 does not exist.
 End of Minotr F.D. properties file   788 does not exist.

 **********************************************************************

            Population analysis using the CI Density.

 **********************************************************************

 Orbital symmetries:
       Occupied  (A') (A') (A') (A') (A') (A') (A') (A') (A') (A')
                 (A') (A') (A') (A') (A') (A') (A') (A') (A') (A')
                 (A') (A") (A') (A') (A') (A') (A") (A') (A") (A")
                 (A")
       Virtual   (A') (A") (A') (A') (A') (A') (A") (A") (A') (A')
                 (A') (A") (A") (A") (A') (A') (A') (A") (A') (A")
                 (A') (A") (A') (A") (A') (A") (A') (A') (A') (A')
                 (A') (A') (A") (A') (A') (A') (A') (A') (A") (A')
                 (A') (A') (A') (A') (A') (A') (A') (A') (A') (A')
                 (A') (A') (A') (A') (A') (A') (A') (A") (A') (A")
                 (A') (A") (A") (A') (A') (A") (A') (A") (A") (A')
                 (A') (A") (A') (A') (A') (A') (A') (A') (A") (A')
                 (A') (A') (A') (A') (A') (A') (A') (A') (A') (A')
                 (A') (A') (A") (A') (A") (A") (A') (A') (A") (A')
                 (A") (A") (A") (A") (A') (A') (A') (A') (A') (A')
                 (A") (A') (A') (A') (A') (A") (A') (A') (A') (A')
                 (A") (A') (A") (A") (A") (A') (A') (A") (A") (A')
                 (A') (A") (A') (A') (A") (A') (A') (A') (A') (A')
                 (A') (A') (A') (A') (A') (A') (A') (A') (A') (A')
                 (A') (A') (A') (A')
 The electronic state is 1-A'.
 Alpha  occ. eigenvalues --  -14.30555 -10.19622 -10.19323 -10.16264 -10.15827
 Alpha  occ. eigenvalues --  -10.15804 -10.15689 -10.15165 -10.14762  -1.15472
 Alpha  occ. eigenvalues --   -1.01597  -0.95276  -0.90185  -0.88278  -0.78061
 Alpha  occ. eigenvalues --   -0.74685  -0.73455  -0.68894  -0.62376  -0.61379
 Alpha  occ. eigenvalues --   -0.57415  -0.57258  -0.56720  -0.54669  -0.52401
 Alpha  occ. eigenvalues --   -0.48379  -0.47180  -0.46100  -0.40121  -0.32620
 Alpha  occ. eigenvalues --   -0.30856
 Alpha virt. eigenvalues --    0.04616   0.06009   0.06380   0.06813   0.08113
 Alpha virt. eigenvalues --    0.08440   0.10010   0.10584   0.10709   0.10953
 Alpha virt. eigenvalues --    0.11689   0.11720   0.13563   0.14794   0.14864
 Alpha virt. eigenvalues --    0.15054   0.16607   0.17859   0.19368   0.19451
 Alpha virt. eigenvalues --    0.20545   0.21340   0.21776   0.22763   0.22960
 Alpha virt. eigenvalues --    0.24333   0.24359   0.24761   0.26105   0.26500
 Alpha virt. eigenvalues --    0.27346   0.27712   0.28345   0.29041   0.29787
 Alpha virt. eigenvalues --    0.30676   0.30984   0.32129   0.32678   0.32883
 Alpha virt. eigenvalues --    0.34494   0.34999   0.37151   0.37892   0.39933
 Alpha virt. eigenvalues --    0.40711   0.41299   0.42277   0.44726   0.47144
 Alpha virt. eigenvalues --    0.47985   0.51004   0.55663   0.56505   0.62979
 Alpha virt. eigenvalues --    0.70447   0.75258   0.78299   0.78669   0.81093
 Alpha virt. eigenvalues --    0.83080   0.83246   0.84911   0.84961   0.86204
 Alpha virt. eigenvalues --    0.86663   0.87677   0.89188   0.90774   0.91844
 Alpha virt. eigenvalues --    0.93570   0.97022   1.01008   1.01880   1.03085
 Alpha virt. eigenvalues --    1.05616   1.06403   1.07390   1.08086   1.10424
 Alpha virt. eigenvalues --    1.12463   1.14952   1.16625   1.18603   1.21699
 Alpha virt. eigenvalues --    1.23757   1.24574   1.29454   1.30994   1.33548
 Alpha virt. eigenvalues --    1.34853   1.38334   1.38488   1.45027   1.47162
 Alpha virt. eigenvalues --    1.49184   1.50077   1.54980   1.56746   1.58517
 Alpha virt. eigenvalues --    1.61430   1.61790   1.65122   1.65814   1.66765
 Alpha virt. eigenvalues --    1.72435   1.78947   1.93579   1.99271   2.03397
 Alpha virt. eigenvalues --    2.04659   2.06634   2.08867   2.14766   2.14976
 Alpha virt. eigenvalues --    2.16199   2.21536   2.25181   2.29176   2.32428
 Alpha virt. eigenvalues --    2.33138   2.34894   2.40703   2.41838   2.42356
 Alpha virt. eigenvalues --    2.43451   2.46302   2.53975   2.56738   2.59622
 Alpha virt. eigenvalues --    2.69758   2.71930   2.78509   2.80626   2.82961
 Alpha virt. eigenvalues --    2.85039   2.88475   2.95902   2.99459   3.00824
 Alpha virt. eigenvalues --    3.10411   3.12641   3.26828   3.39180   3.60092
 Alpha virt. eigenvalues --    4.27401   4.38153   4.41132   4.44598   4.48280
 Alpha virt. eigenvalues --    4.52043   4.60291   4.64303   4.91470
          Condensed to atoms (all electrons):
               1          2          3          4          5          6
     1  C    6.625074   0.393710  -2.312918  -0.073094   2.022899   0.775897
     2  H    0.393710   0.479223  -0.057433  -0.000714  -0.024061  -0.023449
     3  C   -2.312918  -0.057433  12.913012   0.425716  -5.221406  -2.585607
     4  H   -0.073094  -0.000714   0.425716   0.487039  -0.096521  -0.083758
     5  C    2.022899  -0.024061  -5.221406  -0.096521  14.665012  -1.163323
     6  C    0.775897  -0.023449  -2.585607  -0.083758  -1.163323  12.237855
     7  C   -0.071694   0.000252   0.198592  -0.001831  -0.217725   0.054386
     8  C    0.037383   0.000801  -0.253920   0.000334  -0.549141   0.404202
     9  C   -1.241620   0.015068   3.156504   0.010148  -2.991559  -2.326131
    10  C   -0.250839   0.063411   0.138371   0.115954  -2.423076  -1.001801
    11  H    0.005465  -0.000002  -0.065073   0.001298   0.038111   0.319519
    12  H    0.000135  -0.000000  -0.000154  -0.000001   0.037776  -0.046337
    13  H    0.001711  -0.000000  -0.002900   0.000000  -0.009243   0.030794
    14  H    0.010774   0.000003  -0.010749   0.000001   0.023009  -0.021786
    15  N    0.425085  -0.055657  -0.494516   0.006712   0.612696   0.103202
    16  H   -0.019010  -0.002684  -0.006573  -0.000092   0.192656   0.037128
               7          8          9         10         11         12
     1  C   -0.071694   0.037383  -1.241620  -0.250839   0.005465   0.000135
     2  H    0.000252   0.000801   0.015068   0.063411  -0.000002  -0.000000
     3  C    0.198592  -0.253920   3.156504   0.138371  -0.065073  -0.000154
     4  H   -0.001831   0.000334   0.010148   0.115954   0.001298  -0.000001
     5  C   -0.217725  -0.549141  -2.991559  -2.423076   0.038111   0.037776
     6  C    0.054386   0.404202  -2.326131  -1.001801   0.319519  -0.046337
     7  C    5.621988   0.425273   0.065911  -0.410935  -0.032568   0.342977
     8  C    0.425273   5.878524  -0.120456   0.341355   0.025216  -0.032603
     9  C    0.065911  -0.120456  13.528369  -3.638753  -0.049166   0.028315
    10  C   -0.410935   0.341355  -3.638753  14.152369   0.056344  -0.021208
    11  H   -0.032568   0.025216  -0.049166   0.056344   0.509775  -0.003680
    12  H    0.342977  -0.032603   0.028315  -0.021208  -0.003680   0.502155
    13  H   -0.043874   0.341936  -0.053120   0.045368  -0.000135  -0.003995
    14  H    0.027323  -0.001535   0.311353  -0.039608   0.000015  -0.000136
    15  N   -0.017549   0.001789  -0.378376  -0.282485  -0.000724   0.000193
    16  H   -0.003178  -0.010813  -0.142676  -0.099158   0.000003  -0.000000
              13         14         15         16
     1  C    0.001711   0.010774   0.425085  -0.019010
     2  H   -0.000000   0.000003  -0.055657  -0.002684
     3  C   -0.002900  -0.010749  -0.494516  -0.006573
     4  H    0.000000   0.000001   0.006712  -0.000092
     5  C   -0.009243   0.023009   0.612696   0.192656
     6  C    0.030794  -0.021786   0.103202   0.037128
     7  C   -0.043874   0.027323  -0.017549  -0.003178
     8  C    0.341936  -0.001535   0.001789  -0.010813
     9  C   -0.053120   0.311353  -0.378376  -0.142676
    10  C    0.045368  -0.039608  -0.282485  -0.099158
    11  H   -0.000135   0.000015  -0.000724   0.000003
    12  H   -0.003995  -0.000136   0.000193  -0.000000
    13  H    0.507666  -0.003749  -0.000389  -0.000001
    14  H   -0.003749   0.514626  -0.002695   0.001536
    15  N   -0.000389  -0.002695   7.313059   0.291042
    16  H   -0.000001   0.001536   0.291042   0.332874
 Mulliken charges:
               1
     1  C   -0.328960
     2  H    0.211531
     3  C    0.179053
     4  H    0.208808
     5  C    1.103894
     6  C   -0.710791
     7  C    0.062655
     8  C   -0.488346
     9  C   -0.173811
    10  C   -0.745308
    11  H    0.195602
    12  H    0.196563
    13  H    0.189931
    14  H    0.191618
    15  N   -0.521386
    16  H    0.428947
 Sum of Mulliken charges =  -0.00000
 Mulliken charges with hydrogens summed into heavy atoms:
               1
     1  C   -0.117429
     3  C    0.387861
     5  C    1.103894
     6  C   -0.515189
     7  C    0.259218
     8  C   -0.298415
     9  C    0.017807
    10  C   -0.745308
    15  N   -0.092439
 Electronic spatial extent (au):  <R**2>=           1008.0868
 Charge=              0.0000 electrons
 Dipole moment (field-independent basis, Debye):
    X=             -1.2853    Y=              1.8220    Z=             -0.0000  Tot=              2.2298
 Quadrupole moment (field-independent basis, Debye-Ang):
   XX=            -48.6928   YY=            -43.6640   ZZ=            -59.8491
   XY=             -2.8958   XZ=              0.0000   YZ=             -0.0000
 Traceless Quadrupole moment (field-independent basis, Debye-Ang):
   XX=              2.0425   YY=              7.0713   ZZ=             -9.1138
   XY=             -2.8958   XZ=              0.0000   YZ=             -0.0000
 Octapole moment (field-independent basis, Debye-Ang**2):
  XXX=             -9.8078  YYY=             20.2141  ZZZ=             -0.0000  XYY=             -9.0580
  XXY=              3.5573  XXZ=             -0.0000  XZZ=             -2.1609  YZZ=              2.0299
  YYZ=             -0.0000  XYZ=              0.0000
 Hexadecapole moment (field-independent basis, Debye-Ang**3):
 XXXX=           -816.1744 YYYY=           -409.8080 ZZZZ=            -81.6019 XXXY=             59.6016
 XXXZ=              0.0000 YYYX=             51.9146 YYYZ=             -0.0000 ZZZX=              0.0000
 ZZZY=             -0.0000 XXYY=           -198.9279 XXZZ=           -188.9984 YYZZ=           -109.1604
 XXYZ=             -0.0000 YYXZ=              0.0000 ZZXY=             28.2652
 N-N= 4.012841188295D+02 E-N=-1.644144552400D+03  KE= 3.597623904709D+02
 Symmetry A'   KE= 3.479345545026D+02
 Symmetry A"   KE= 1.182783596839D+01
 Calling FoFJK, ICntrl=  10005127 FMM=F ISym2X=1 I1Cent= 0 IOpClX= 0 NMat=1 NMatS=1 NMatT=0.
 ***** Axes restored to original set *****
 -------------------------------------------------------------------
 Center     Atomic                   Forces (Hartrees/Bohr)
 Number     Number              X              Y              Z
 -------------------------------------------------------------------
      1        6           0.007286057    0.015850430    0.000000000
      2        1           0.002766553   -0.000136881   -0.000000000
      3        6          -0.003820417   -0.011483811   -0.000000000
      4        1           0.000505631    0.003052380    0.000000000
      5        6           0.006193587    0.025316965   -0.000000000
      6        6           0.023894462    0.020305397    0.000000000
      7        6          -0.015758870   -0.013390339    0.000000000
      8        6          -0.018552987    0.004227907   -0.000000000
      9        6           0.010578147   -0.020559470   -0.000000000
     10        6           0.021368293   -0.024358261    0.000000000
     11        1           0.000403784    0.001479392    0.000000000
     12        1          -0.001979434    0.001068812    0.000000000
     13        1          -0.001785418   -0.000476525    0.000000000
     14        1           0.000504344   -0.001483778   -0.000000000
     15        7          -0.032509976    0.006179730    0.000000000
     16        1           0.000906244   -0.005591949   -0.000000000
 -------------------------------------------------------------------
 Cartesian Forces:  Max     0.032509976 RMS     0.010844849

 GradGradGradGradGradGradGradGradGradGradGradGradGradGradGradGradGradGrad
 Berny optimization.
 FormGI is forming the generalized inverse of G from B-inverse, IUseBI=4.
 Internal  Forces:  Max     0.029070060 RMS     0.006041608
 Search for a local minimum.
 Step number   1 out of a maximum of   94
 All quantities printed in internal units (Hartrees-Bohrs-Radians)
 Mixed Optimization -- RFO/linear search
 Second derivative matrix not updated -- first step.
 ITU=  0
     Eigenvalues ---    0.01850   0.01928   0.01980   0.02009   0.02065
     Eigenvalues ---    0.02108   0.02145   0.02149   0.02167   0.02207
     Eigenvalues ---    0.02232   0.02245   0.02335   0.16000   0.16000
     Eigenvalues ---    0.16000   0.16000   0.16000   0.16000   0.16000
     Eigenvalues ---    0.22000   0.22188   0.22662   0.24012   0.24651
     Eigenvalues ---    0.35731   0.35737   0.35809   0.35816   0.36423
     Eigenvalues ---    0.36426   0.37018   0.38394   0.42612   0.43408
     Eigenvalues ---    0.45745   0.46593   0.47173   0.47440   0.47539
     Eigenvalues ---    0.48098   0.50889
 RFO step:  Lambda=-6.91783385D-03 EMin= 1.85038135D-02
 Linear search not attempted -- first point.
 Iteration  1 RMS(Cart)=  0.01828725 RMS(Int)=  0.00011094
 Iteration  2 RMS(Cart)=  0.00016504 RMS(Int)=  0.00003048
 Iteration  3 RMS(Cart)=  0.00000002 RMS(Int)=  0.00003048
 ClnCor:  largest displacement from symmetrization is 8.72D-10 for atom     2.
 Variable       Old X    -DE/DX   Delta X   Delta X   Delta X     New X
                                 (Linear)    (Quad)   (Total)
    R1        2.03425   0.00277   0.00000   0.00745   0.00745   2.04170
    R2        2.57910  -0.00590   0.00000  -0.01129  -0.01126   2.56784
    R3        2.60605   0.01520   0.00000   0.02971   0.02977   2.63582
    R4        2.03421   0.00304   0.00000   0.00819   0.00819   2.04239
    R5        2.70923  -0.00590   0.00000  -0.01351  -0.01356   2.69567
    R6        2.64810  -0.00186   0.00000  -0.00446  -0.00443   2.64367
    R7        2.67988   0.02392   0.00000   0.05528   0.05525   2.73513
    R8        2.61320   0.02907   0.00000   0.05893   0.05893   2.67212
    R9        2.04495   0.00147   0.00000   0.00403   0.00403   2.04898
   R10        2.65652   0.00811   0.00000   0.01822   0.01819   2.67472
   R11        2.04381   0.00225   0.00000   0.00616   0.00616   2.04997
   R12        2.61598   0.02036   0.00000   0.04193   0.04190   2.65788
   R13        2.04370   0.00178   0.00000   0.00488   0.00488   2.04858
   R14        2.63366   0.01008   0.00000   0.02133   0.02134   2.65499
   R15        2.04504   0.00149   0.00000   0.00409   0.00409   2.04913
   R16        2.60279  -0.02177   0.00000  -0.04368  -0.04366   2.55913
   R17        1.89531   0.00559   0.00000   0.01169   0.01169   1.90700
    A1        2.26824   0.00078   0.00000   0.00425   0.00420   2.27244
    A2        2.10273   0.00110   0.00000   0.00612   0.00607   2.10881
    A3        1.91221  -0.00188   0.00000  -0.01037  -0.01027   1.90193
    A4        2.19485  -0.00002   0.00000   0.00050   0.00050   2.19536
    A5        1.86964   0.00124   0.00000   0.00613   0.00612   1.87576
    A6        2.21870  -0.00121   0.00000  -0.00663  -0.00662   2.21207
    A7        2.34475   0.00008   0.00000  -0.00009  -0.00007   2.34468
    A8        1.86535  -0.00024   0.00000   0.00114   0.00102   1.86638
    A9        2.07308   0.00016   0.00000  -0.00105  -0.00095   2.07213
   A10        2.07849  -0.00466   0.00000  -0.02094  -0.02092   2.05758
   A11        2.10136   0.00188   0.00000   0.00775   0.00774   2.10910
   A12        2.10333   0.00278   0.00000   0.01319   0.01318   2.11651
   A13        2.11419   0.00543   0.00000   0.02508   0.02503   2.13922
   A14        2.08941  -0.00272   0.00000  -0.01258  -0.01255   2.07686
   A15        2.07958  -0.00271   0.00000  -0.01250  -0.01248   2.06711
   A16        2.11512  -0.00174   0.00000  -0.00550  -0.00558   2.10955
   A17        2.08357   0.00037   0.00000  -0.00025  -0.00021   2.08336
   A18        2.08449   0.00137   0.00000   0.00575   0.00579   2.09028
   A19        2.05120  -0.00512   0.00000  -0.02089  -0.02093   2.03026
   A20        2.11238   0.00305   0.00000   0.01341   0.01343   2.12581
   A21        2.11961   0.00206   0.00000   0.00748   0.00750   2.12711
   A22        2.13428   0.00593   0.00000   0.02331   0.02335   2.15763
   A23        1.87045  -0.00427   0.00000  -0.01695  -0.01700   1.85345
   A24        2.27845  -0.00166   0.00000  -0.00636  -0.00635   2.27210
   A25        1.90713   0.00516   0.00000   0.02004   0.02013   1.92726
   A26        2.18575  -0.00173   0.00000  -0.00495  -0.00500   2.18075
   A27        2.19031  -0.00343   0.00000  -0.01509  -0.01513   2.17517
    D1        0.00000  -0.00000   0.00000  -0.00000   0.00000   0.00000
    D2        3.14159   0.00000   0.00000   0.00000   0.00000   3.14159
    D3        3.14159   0.00000   0.00000   0.00000   0.00000   3.14159
    D4        0.00000   0.00000   0.00000   0.00000   0.00000   0.00000
    D5        3.14159   0.00000   0.00000   0.00000   0.00000   3.14159
    D6        0.00000  -0.00000   0.00000   0.00000   0.00000   0.00000
    D7        0.00000   0.00000   0.00000   0.00000   0.00000   0.00000
    D8        3.14159  -0.00000   0.00000  -0.00000   0.00000   3.14159
    D9        3.14159  -0.00000   0.00000  -0.00000   0.00000   3.14159
   D10        0.00000  -0.00000   0.00000  -0.00000   0.00000   0.00000
   D11        0.00000  -0.00000   0.00000  -0.00000   0.00000   0.00000
   D12        3.14159  -0.00000   0.00000  -0.00000   0.00000   3.14159
   D13        3.14159  -0.00000   0.00000  -0.00000   0.00000   3.14159
   D14        0.00000  -0.00000   0.00000  -0.00000   0.00000   0.00000
   D15        0.00000  -0.00000   0.00000  -0.00000   0.00000   0.00000
   D16        3.14159   0.00000   0.00000   0.00000   0.00000   3.14159
   D17        3.14159   0.00000   0.00000   0.00000   0.00000   3.14159
   D18        0.00000   0.00000   0.00000   0.00000   0.00000   0.00000
   D19        0.00000   0.00000   0.00000   0.00000   0.00000   0.00000
   D20        3.14159   0.00000   0.00000   0.00000   0.00000   3.14159
   D21        0.00000  -0.00000   0.00000  -0.00000   0.00000   0.00000
   D22        3.14159   0.00000   0.00000   0.00000   0.00000   3.14159
   D23        3.14159  -0.00000   0.00000  -0.00000   0.00000   3.14159
   D24        0.00000  -0.00000   0.00000  -0.00000   0.00000   0.00000
   D25        0.00000   0.00000   0.00000   0.00000   0.00000   0.00000
   D26        3.14159   0.00000   0.00000   0.00000   0.00000   3.14159
   D27        3.14159  -0.00000   0.00000  -0.00000   0.00000   3.14159
   D28        0.00000  -0.00000   0.00000  -0.00000   0.00000   0.00000
   D29        0.00000   0.00000   0.00000   0.00000   0.00000   0.00000
   D30        3.14159  -0.00000   0.00000  -0.00000   0.00000   3.14159
   D31        3.14159   0.00000   0.00000   0.00000   0.00000   3.14159
   D32        0.00000  -0.00000   0.00000  -0.00000   0.00000   0.00000
   D33        0.00000  -0.00000   0.00000  -0.00000   0.00000   0.00000
   D34        3.14159  -0.00000   0.00000  -0.00000   0.00000   3.14159
   D35        3.14159  -0.00000   0.00000  -0.00000   0.00000   3.14159
   D36        0.00000   0.00000   0.00000   0.00000   0.00000   0.00000
   D37        0.00000  -0.00000   0.00000  -0.00000   0.00000   0.00000
   D38        3.14159  -0.00000   0.00000  -0.00000   0.00000   3.14159
   D39        3.14159  -0.00000   0.00000  -0.00000   0.00000   3.14159
   D40        0.00000  -0.00000   0.00000  -0.00000   0.00000   0.00000
         Item               Value     Threshold  Converged?
 Maximum Force            0.029070     0.000450     NO 
 RMS     Force            0.006042     0.000300     NO 
 Maximum Displacement     0.068630     0.001800     NO 
 RMS     Displacement     0.018314     0.001200     NO 
 Predicted change in Energy=-3.516982D-03
 GradGradGradGradGradGradGradGradGradGradGradGradGradGradGradGradGradGrad

                          Input orientation:                          
 ---------------------------------------------------------------------
 Center     Atomic      Atomic             Coordinates (Angstroms)
 Number     Number       Type             X           Y           Z
 ---------------------------------------------------------------------
      1          6           0        2.384821    0.041965    0.000000
      2          1           0        3.458687   -0.076882    0.000000
      3          6           0        1.627207    1.170005    0.000000
      4          1           0        2.002688    2.183472    0.000000
      5          6           0        0.258852    0.766935    0.000000
      6          6           0       -0.961783    1.450431    0.000000
      7          6           0       -2.149525    0.683136    0.000000
      8          6           0       -2.142246   -0.732244    0.000000
      9          6           0       -0.931291   -1.447645    0.000000
     10          6           0        0.245659   -0.680372    0.000000
     11          1           0       -0.991976    2.534282    0.000000
     12          1           0       -3.106084    1.194787    0.000000
     13          1           0       -3.084247   -1.268735    0.000000
     14          1           0       -0.908080   -2.531749    0.000000
     15          7           0        1.542657   -1.069915    0.000000
     16          1           0        1.853008   -2.030146    0.000000
 ---------------------------------------------------------------------
                    Distance matrix (angstroms):
                    1          2          3          4          5
     1  C    0.000000
     2  H    1.080422   0.000000
     3  C    1.358844   2.215637   0.000000
     4  H    2.175335   2.688705   1.080787   0.000000
     5  C    2.246180   3.309225   1.426485   2.246673   0.000000
     6  C    3.630914   4.676884   2.604133   3.053758   1.398970
     7  C    4.579454   5.659476   3.807985   4.414961   2.409835
     8  C    4.592792   5.639145   4.222242   5.067730   2.830692
     9  C    3.635318   4.599011   3.660328   4.668323   2.514121
    10  C    2.257827   3.269212   2.309236   3.359874   1.447367
    11  H    4.196952   5.160094   2.953196   3.015142   2.165198
    12  H    5.610618   6.686805   4.733355   5.203561   3.392027
    13  H    5.623934   6.650601   5.305209   6.147734   3.914111
    14  H    4.179378   5.009494   4.486721   5.541289   3.499007
    15  N    1.394818   2.158075   2.241516   3.285751   2.241021
    16  H    2.139268   2.528527   3.208108   4.216276   3.219472
                    6          7          8          9         10
     6  C    0.000000
     7  C    1.414028   0.000000
     8  C    2.481445   1.415399   0.000000
     9  C    2.898236   2.454449   1.406489   0.000000
    10  C    2.449130   2.756095   2.388469   1.404962   0.000000
    11  H    1.084271   2.183269   3.463137   3.982389   3.444668
    12  H    2.159486   1.084800   2.154631   3.422305   3.840625
    13  H    3.449452   2.164140   1.084060   2.160377   3.381485
    14  H    3.982543   3.446255   2.182060   1.084353   2.181448
    15  N    3.553078   4.087224   3.700343   2.502618   1.354233
    16  H    4.476323   4.835512   4.200787   2.844579   2.098919
                   11         12         13         14         15
    11  H    0.000000
    12  H    2.502738   0.000000
    13  H    4.340568   2.463619   0.000000
    14  H    5.066726   4.326464   2.516129   0.000000
    15  N    4.406200   5.171041   4.631173   2.853607   0.000000
    16  H    5.378470   5.915470   4.995621   2.806281   1.009139
                   16
    16  H    0.000000
 Stoichiometry    C8H7N
 Framework group  CS[SG(C8H7N)]
 Deg. of freedom    29
 Full point group                 CS      NOp   2
 Largest Abelian subgroup         CS      NOp   2
 Largest concise Abelian subgroup C1      NOp   1
                         Standard orientation:                         
 ---------------------------------------------------------------------
 Center     Atomic      Atomic             Coordinates (Angstroms)
 Number     Number       Type             X           Y           Z
 ---------------------------------------------------------------------
      1          6           0       -2.257359    0.769703    0.000000
      2          1           0       -3.227273    1.245706    0.000000
      3          6           0       -1.927221   -0.548427    0.000000
      4          1           0       -2.624166   -1.374483    0.000000
      5          6           0       -0.503265   -0.633323    0.000000
      6          6           0        0.413219   -1.690287   -0.000000
      7          6           0        1.790794   -1.371290   -0.000000
      8          6           0        2.263973   -0.037327   -0.000000
      9          6           0        1.367416    1.046368   -0.000000
     10          6           0        0.000000    0.723732    0.000000
     11          1           0        0.074035   -2.720141   -0.000000
     12          1           0        2.517133   -2.177034   -0.000000
     13          1           0        3.332093    0.147887   -0.000000
     14          1           0        1.713254    2.074092   -0.000000
     15          7           0       -1.088015    1.530064    0.000000
     16          1           0       -1.054310    2.538640    0.000000
 ---------------------------------------------------------------------
 Rotational constants (GHZ):           3.8157189           1.6428945           1.1484279
 Standard basis: 6-31+G(d) (6D, 7F)
 There are   140 symmetry adapted cartesian basis functions of A'  symmetry.
 There are    45 symmetry adapted cartesian basis functions of A"  symmetry.
 There are   140 symmetry adapted basis functions of A'  symmetry.
 There are    45 symmetry adapted basis functions of A"  symmetry.
   185 basis functions,   316 primitive gaussians,   185 cartesian basis functions
    31 alpha electrons       31 beta electrons
       nuclear repulsion energy       399.4051961182 Hartrees.
 NAtoms=   16 NActive=   16 NUniq=   16 SFac= 1.00D+00 NAtFMM=   60 NAOKFM=F Big=F
 Integral buffers will be    131072 words long.
 Raffenetti 1 integral format.
 Two-electron integral symmetry is turned on.
 One-electron integrals computed using PRISM.
 NBasis=   185 RedAO= T EigKep=  1.38D-06  NBF=   140    45
 NBsUse=   185 1.00D-06 EigRej= -1.00D+00 NBFU=   140    45
 Initial guess from the checkpoint file:  "/scratch/gfoley1/17401417/Gau-26787.chk"
 B after Tr=     0.000000   -0.000000    0.000000
         Rot=    0.999993   -0.000000    0.000000   -0.003649 Ang=  -0.42 deg.
 Initial guess orbital symmetries:
       Occupied  (A') (A') (A') (A') (A') (A') (A') (A') (A') (A')
                 (A') (A') (A') (A') (A') (A') (A') (A') (A') (A')
                 (A') (A") (A') (A') (A') (A') (A") (A') (A") (A")
                 (A")
       Virtual   (A') (A") (A') (A') (A') (A') (A") (A") (A') (A')
                 (A') (A") (A") (A") (A') (A') (A') (A") (A') (A")
                 (A') (A") (A') (A") (A') (A") (A') (A') (A') (A')
                 (A') (A') (A") (A') (A') (A') (A') (A') (A") (A')
                 (A') (A') (A') (A') (A') (A') (A') (A') (A') (A')
                 (A') (A') (A') (A') (A') (A') (A') (A") (A') (A")
                 (A') (A") (A") (A') (A') (A") (A') (A") (A") (A')
                 (A') (A") (A') (A') (A') (A') (A') (A') (A") (A')
                 (A') (A') (A') (A') (A') (A') (A') (A') (A') (A')
                 (A') (A') (A") (A') (A") (A") (A') (A') (A") (A')
                 (A") (A") (A") (A") (A') (A') (A') (A') (A') (A')
                 (A") (A') (A') (A') (A') (A") (A') (A') (A') (A')
                 (A") (A') (A") (A") (A") (A') (A') (A") (A") (A')
                 (A') (A") (A') (A') (A") (A') (A') (A') (A') (A')
                 (A') (A') (A') (A') (A') (A') (A') (A') (A') (A')
                 (A') (A') (A') (A')
 ExpMin= 4.38D-02 ExpMax= 4.17D+03 ExpMxC= 6.27D+02 IAcc=3 IRadAn=         5 AccDes= 0.00D+00
 Harris functional with IExCor=10402 and IRadAn=       5 diagonalized for initial guess.
 HarFok:  IExCor=10402 AccDes= 0.00D+00 IRadAn=         5 IDoV= 1 UseB2=F ITyADJ=14
 ICtDFT=  3500011 ScaDFX=  1.000000  1.000000  1.000000  1.000000
 FoFCou: FMM=F IPFlag=           0 FMFlag=      100000 FMFlg1=           0
         NFxFlg=           0 DoJE=T BraDBF=F KetDBF=T FulRan=T
         wScrn=  0.000000 ICntrl=       500 IOpCl=  0 I1Cent=   200000004 NGrid=           0
         NMat0=    1 NMatS0=      1 NMatT0=    0 NMatD0=    1 NMtDS0=    0 NMtDT0=    0
 Petite list used in FoFCou.
 Keep R1 ints in memory in symmetry-blocked form, NReq=454694034.
 Requested convergence on RMS density matrix=1.00D-08 within 600 cycles.
 Requested convergence on MAX density matrix=1.00D-06.
 Requested convergence on             energy=1.00D-06.
 No special actions if energy rises.
 SCF Done:  E(RLC-B+HF-LYP) =  -362.730638774     A.U. after   15 cycles
            NFock= 15  Conv=0.66D-08     -V/T= 2.0095
 DoSCS=F DFT=T ScalE2(SS,OS)=  1.000000  1.000000
 ExpMin= 4.38D-02 ExpMax= 4.17D+03 ExpMxC= 6.27D+02 IAcc=3 IRadAn=         5 AccDes= 0.00D+00
 HarFok:  IExCor=  205 AccDes= 0.00D+00 IRadAn=         5 IDoV=-2 UseB2=F ITyADJ=14
 ICtDFT= 12500011 ScaDFX=  1.000000  1.000000  1.000000  1.000000
 Range of M.O.s used for correlation:    10   185
 NBasis=   185 NAE=    31 NBE=    31 NFC=     9 NFV=     0
 NROrb=    176 NOA=    22 NOB=    22 NVA=   154 NVB=   154

 **** Warning!!: The largest alpha MO coefficient is  0.18819236D+03

 Keep R1, R2, and R3 ints in memory in symmetry-blocked form, NReq=454694374.
 Orbital symmetries:
       Occupied  (A') (A') (A') (A') (A') (A') (A') (A') (A') (A')
                 (A') (A') (A') (A') (A') (A') (A') (A') (A') (A')
                 (A") (A') (A') (A') (A') (A') (A") (A') (A") (A")
                 (A")
       Virtual   (A') (A") (A') (A') (A') (A') (A") (A") (A') (A')
                 (A") (A') (A") (A") (A') (A') (A') (A") (A') (A")
                 (A') (A") (A') (A") (A') (A") (A') (A') (A') (A')
                 (A') (A') (A") (A') (A') (A') (A') (A") (A') (A')
                 (A') (A') (A') (A') (A') (A') (A') (A') (A') (A')
                 (A') (A') (A') (A') (A') (A') (A') (A") (A') (A")
                 (A') (A") (A") (A') (A') (A") (A') (A") (A") (A')
                 (A') (A") (A') (A') (A') (A') (A') (A') (A") (A')
                 (A') (A') (A') (A') (A') (A') (A') (A') (A') (A')
                 (A') (A') (A") (A') (A") (A") (A') (A') (A") (A')
                 (A") (A") (A") (A") (A') (A') (A') (A') (A') (A')
                 (A") (A') (A') (A') (A') (A") (A') (A') (A') (A')
                 (A") (A') (A") (A") (A") (A') (A') (A") (A") (A')
                 (A') (A") (A') (A') (A") (A') (A') (A') (A') (A')
                 (A') (A') (A') (A') (A') (A') (A') (A') (A') (A')
                 (A') (A') (A') (A')
 Generating guess from densities on rwf.
 Convergence on wavefunction:    0.000001000000000
 Iteration     1 Dimension     6 NMult     0 NNew      6
 CISAX will form     6 AO SS matrices at one time.
 Iteration     2 Dimension    12 NMult     6 NNew      6
 Iteration     3 Dimension    18 NMult    12 NNew      6
 Iteration     4 Dimension    24 NMult    18 NNew      6
 Iteration     5 Dimension    30 NMult    24 NNew      6
 Iteration     6 Dimension    36 NMult    30 NNew      6
 Iteration     7 Dimension    42 NMult    36 NNew      6
 Iteration     8 Dimension    48 NMult    42 NNew      6
 Iteration     9 Dimension    54 NMult    48 NNew      6
 Iteration    10 Dimension    60 NMult    54 NNew      6
 Iteration    11 Dimension    64 NMult    60 NNew      4
 Iteration    12 Dimension    66 NMult    64 NNew      2
 Iteration    13 Dimension    68 NMult    66 NNew      2
 Iteration    14 Dimension    70 NMult    68 NNew      2
 Iteration    15 Dimension    72 NMult    70 NNew      2
 Iteration    16 Dimension    74 NMult    72 NNew      2
 Iteration    17 Dimension    76 NMult    74 NNew      2
 ***********************************************************************
 Excited states from <AA,BB:AA,BB> singles matrix:
 ***********************************************************************
 
 Ground to excited state transition densities written to RWF  633
 Ground to excited state transition electric dipole moments (Au):
       state          X           Y           Z        Dip. S.      Osc.
         1         0.6441      0.2594     -0.0000      0.4822      0.0591
         2         0.4652     -0.8393      0.0000      0.9208      0.1190
         3         0.0000      0.0000     -0.1471      0.0216      0.0031
 Ground to excited state transition velocity dipole moments (Au):
       state          X           Y           Z        Dip. S.      Osc.
         1        -0.1170     -0.0528      0.0000      0.0165      0.0598
         2        -0.0767      0.1641     -0.0000      0.0328      0.1129
         3         0.0000     -0.0000      0.0211      0.0004      0.0014
 Ground to excited state transition magnetic dipole moments (Au):
       state          X           Y           Z
         1         0.0000     -0.0000     -0.2317
         2         0.0000      0.0000      0.0297
         3        -0.0742      0.0711      0.0000
 Ground to excited state transition velocity quadrupole moments (Au):
       state          XX          YY          ZZ          XY          XZ          YZ
         1        -0.0492     -0.0477      0.0176     -0.0674      0.0000      0.0000
         2         0.2229     -0.1200      0.0221     -0.1746     -0.0000     -0.0000
         3         0.0000      0.0000      0.0000     -0.0000     -0.0745     -0.0169
 <0|del|b> * <b|rxdel|0> + <0|del|b> * <b|delr+rdel|0>
 Rotatory Strengths (R) in cgs (10**-40 erg-esu-cm/Gauss)
       state          XX          YY          ZZ    R(velocity)    E-M Angle
         1         0.0000     -0.0000     -0.0000      0.0000       90.00
         2         0.0000     -0.0000     -0.0000      0.0000       90.00
         3        -0.0000      0.0000      0.0000     -0.0000       90.00
 1/2[<0|r|b>*<b|rxdel|0> + (<0|rxdel|b>*<b|r|0>)*]
 Rotatory Strengths (R) in cgs (10**-40 erg-esu-cm/Gauss)
       state          XX          YY          ZZ     R(length)
         1        -0.0000      0.0000     -0.0000      0.0000
         2        -0.0000      0.0000     -0.0000      0.0000
         3         0.0000     -0.0000      0.0000      0.0000
  1/2[<0|del|b>*<b|r|0> + (<0|r|b>*<b|del|0>)*] (Au)
       state          X           Y           Z        Dip. S.   Osc.(frdel)
         1        -0.0753     -0.0137     -0.0000      0.0890      0.0594
         2        -0.0357     -0.1377     -0.0000      0.1734      0.1156
         3         0.0000     -0.0000     -0.0031      0.0031      0.0021

 Excitation energies and oscillator strengths:
 
 Excited State   1:      Singlet-A'     4.9986 eV  248.04 nm  f=0.0591  <S**2>=0.000
      30 -> 33        -0.56691
      31 -> 33        -0.20663
      31 -> 38        -0.27973
 This state for optimization and/or second-order correction.
 Total Energy, E(TD-HF/TD-DFT) =  -362.546941855    
 Copying the excited state density for this state as the 1-particle RhoCI density.
 
 Excited State   2:      Singlet-A'     5.2740 eV  235.09 nm  f=0.1190  <S**2>=0.000
      30 -> 33        -0.18172
      30 -> 38        -0.23482
      31 -> 33         0.60440
      31 -> 38        -0.13521
 
 Excited State   3:      Singlet-A"     5.8466 eV  212.06 nm  f=0.0031  <S**2>=0.000
      31 -> 32         0.64594
      31 -> 40         0.12201
 SavETr:  write IOETrn=   770 NScale= 10 NData=  16 NLR=1 NState=    3 LETran=      64.
          IDoAtm=1111111111111111
          Differentiating once with respect to electric field.
                with respect to dipole field.
          Differentiating once with respect to nuclear coordinates.
 Keep R1 ints in memory in symmetry-blocked form, NReq=454696144.
          There are     1 degrees of freedom in the 1st order CPHF.  IDoFFX=0 NUNeed=     1.
 LinEq1:  Iter=  0 NonCon=     1 RMS=3.65D-03 Max=6.81D-02 NDo=     1
 AX will form     1 AO Fock derivatives at one time.
 LinEq1:  Iter=  1 NonCon=     1 RMS=1.37D-03 Max=4.10D-02 NDo=     1
 LinEq1:  Iter=  2 NonCon=     1 RMS=5.98D-04 Max=1.56D-02 NDo=     1
 LinEq1:  Iter=  3 NonCon=     1 RMS=3.25D-04 Max=9.83D-03 NDo=     1
 LinEq1:  Iter=  4 NonCon=     1 RMS=1.09D-04 Max=1.93D-03 NDo=     1
 LinEq1:  Iter=  5 NonCon=     1 RMS=4.78D-05 Max=1.32D-03 NDo=     1
 LinEq1:  Iter=  6 NonCon=     1 RMS=2.13D-05 Max=5.81D-04 NDo=     1
 LinEq1:  Iter=  7 NonCon=     1 RMS=7.41D-06 Max=1.47D-04 NDo=     1
 LinEq1:  Iter=  8 NonCon=     1 RMS=3.92D-06 Max=9.04D-05 NDo=     1
 LinEq1:  Iter=  9 NonCon=     1 RMS=1.23D-06 Max=2.21D-05 NDo=     1
 LinEq1:  Iter= 10 NonCon=     1 RMS=6.34D-07 Max=1.28D-05 NDo=     1
 LinEq1:  Iter= 11 NonCon=     1 RMS=2.27D-07 Max=4.58D-06 NDo=     1
 LinEq1:  Iter= 12 NonCon=     1 RMS=9.56D-08 Max=1.72D-06 NDo=     1
 LinEq1:  Iter= 13 NonCon=     1 RMS=3.32D-08 Max=6.45D-07 NDo=     1
 LinEq1:  Iter= 14 NonCon=     1 RMS=1.20D-08 Max=1.65D-07 NDo=     1
 LinEq1:  Iter= 15 NonCon=     1 RMS=4.57D-09 Max=1.08D-07 NDo=     1
 LinEq1:  Iter= 16 NonCon=     1 RMS=1.08D-09 Max=1.62D-08 NDo=     1
 LinEq1:  Iter= 17 NonCon=     1 RMS=3.54D-10 Max=5.36D-09 NDo=     1
 LinEq1:  Iter= 18 NonCon=     1 RMS=1.35D-10 Max=1.57D-09 NDo=     1
 LinEq1:  Iter= 19 NonCon=     0 RMS=3.35D-11 Max=5.04D-10 NDo=     1
 Linear equations converged to 1.000D-10 1.000D-09 after    19 iterations.
 End of Minotr F.D. properties file   721 does not exist.
 End of Minotr F.D. properties file   722 does not exist.
 End of Minotr F.D. properties file   788 does not exist.
 Calling FoFJK, ICntrl=  10005127 FMM=F ISym2X=1 I1Cent= 0 IOpClX= 0 NMat=1 NMatS=1 NMatT=0.
 ***** Axes restored to original set *****
 -------------------------------------------------------------------
 Center     Atomic                   Forces (Hartrees/Bohr)
 Number     Number              X              Y              Z
 -------------------------------------------------------------------
      1        6           0.008281599    0.006587542    0.000000000
      2        1          -0.000689988   -0.000840321   -0.000000000
      3        6          -0.000632358   -0.005807433   -0.000000000
      4        1          -0.000401483    0.000124812    0.000000000
      5        6          -0.002931827    0.002412467   -0.000000000
      6        6           0.002557639    0.001906569   -0.000000000
      7        6           0.000764658   -0.007171571   -0.000000000
      8        6          -0.000690399    0.004812248    0.000000000
      9        6          -0.001323687   -0.002199301    0.000000000
     10        6           0.009224366   -0.001300804   -0.000000000
     11        1          -0.001212874   -0.000669427    0.000000000
     12        1          -0.000007331    0.000344118    0.000000000
     13        1           0.000155814    0.000694746   -0.000000000
     14        1           0.000281775    0.000576106   -0.000000000
     15        7          -0.013767423    0.000928435   -0.000000000
     16        1           0.000391518   -0.000398188    0.000000000
 -------------------------------------------------------------------
 Cartesian Forces:  Max     0.013767423 RMS     0.003337758

 GradGradGradGradGradGradGradGradGradGradGradGradGradGradGradGradGradGrad
 Berny optimization.
 Using GEDIIS/GDIIS optimizer.
 FormGI is forming the generalized inverse of G from B-inverse, IUseBI=4.
 Internal  Forces:  Max     0.008156515 RMS     0.001491178
 Search for a local minimum.
 Step number   2 out of a maximum of   94
 All quantities printed in internal units (Hartrees-Bohrs-Radians)
 Mixed Optimization -- RFO/linear search
 Update second derivatives using D2CorX and points    1    2
 DE= -3.81D-03 DEPred=-3.52D-03 R= 1.08D+00
 TightC=F SS=  1.41D+00  RLast= 1.29D-01 DXNew= 5.0454D-01 3.8735D-01
 Trust test= 1.08D+00 RLast= 1.29D-01 DXMaxT set to 3.87D-01
 ITU=  1  0
 Use linear search instead of GDIIS.
     Eigenvalues ---    0.01849   0.01929   0.01980   0.02009   0.02067
     Eigenvalues ---    0.02108   0.02143   0.02147   0.02167   0.02206
     Eigenvalues ---    0.02232   0.02245   0.02336   0.15846   0.16000
     Eigenvalues ---    0.16000   0.16000   0.16000   0.16000   0.16050
     Eigenvalues ---    0.19832   0.22044   0.22864   0.24247   0.24549
     Eigenvalues ---    0.35726   0.35734   0.35796   0.35845   0.36404
     Eigenvalues ---    0.36475   0.36874   0.38571   0.40273   0.42873
     Eigenvalues ---    0.45376   0.46209   0.46961   0.47188   0.47552
     Eigenvalues ---    0.49506   0.54591
 RFO step:  Lambda=-5.59751922D-04 EMin= 1.84925518D-02
 Quartic linear search produced a step of  0.12842.
 Iteration  1 RMS(Cart)=  0.00677245 RMS(Int)=  0.00003875
 Iteration  2 RMS(Cart)=  0.00004391 RMS(Int)=  0.00001307
 Iteration  3 RMS(Cart)=  0.00000000 RMS(Int)=  0.00001307
 ClnCor:  largest displacement from symmetrization is 1.20D-11 for atom    12.
 Variable       Old X    -DE/DX   Delta X   Delta X   Delta X     New X
                                 (Linear)    (Quad)   (Total)
    R1        2.04170  -0.00059   0.00096  -0.00218  -0.00123   2.04048
    R2        2.56784  -0.00186  -0.00145  -0.00278  -0.00420   2.56365
    R3        2.63582   0.00520   0.00382   0.01079   0.01464   2.65046
    R4        2.04239  -0.00002   0.00105  -0.00045   0.00060   2.04299
    R5        2.69567   0.00023  -0.00174   0.00150  -0.00024   2.69542
    R6        2.64367  -0.00130  -0.00057  -0.00295  -0.00351   2.64016
    R7        2.73513  -0.00008   0.00710  -0.00322   0.00384   2.73897
    R8        2.67212   0.00088   0.00757  -0.00096   0.00661   2.67873
    R9        2.04898  -0.00064   0.00052  -0.00219  -0.00167   2.04730
   R10        2.67472  -0.00526   0.00234  -0.01446  -0.01212   2.66260
   R11        2.04997   0.00017   0.00079   0.00024   0.00104   2.05101
   R12        2.65788  -0.00010   0.00538  -0.00228   0.00310   2.66098
   R13        2.04858  -0.00048   0.00063  -0.00173  -0.00111   2.04747
   R14        2.65499   0.00140   0.00274   0.00264   0.00538   2.66037
   R15        2.04913  -0.00057   0.00053  -0.00199  -0.00146   2.04767
   R16        2.55913  -0.00816  -0.00561  -0.01704  -0.02267   2.53646
   R17        1.90700   0.00050   0.00150   0.00064   0.00214   1.90914
    A1        2.27244   0.00284   0.00054   0.01503   0.01555   2.28799
    A2        2.10881   0.00098   0.00078   0.00188   0.00263   2.11144
    A3        1.90193  -0.00382  -0.00132  -0.01691  -0.01818   1.88375
    A4        2.19536  -0.00053   0.00006  -0.00293  -0.00287   2.19248
    A5        1.87576   0.00192   0.00079   0.01156   0.01237   1.88813
    A6        2.21207  -0.00139  -0.00085  -0.00863  -0.00950   2.20258
    A7        2.34468   0.00159  -0.00001   0.00733   0.00734   2.35202
    A8        1.86638  -0.00135   0.00013  -0.00720  -0.00710   1.85927
    A9        2.07213  -0.00024  -0.00012  -0.00014  -0.00024   2.07189
   A10        2.05758  -0.00100  -0.00269  -0.00478  -0.00746   2.05012
   A11        2.10910   0.00176   0.00099   0.01137   0.01236   2.12146
   A12        2.11651  -0.00076   0.00169  -0.00659  -0.00490   2.11161
   A13        2.13922   0.00195   0.00321   0.00739   0.01060   2.14982
   A14        2.07686  -0.00128  -0.00161  -0.00585  -0.00746   2.06940
   A15        2.06711  -0.00067  -0.00160  -0.00153  -0.00314   2.06397
   A16        2.10955   0.00001  -0.00072  -0.00075  -0.00148   2.10807
   A17        2.08336  -0.00054  -0.00003  -0.00328  -0.00330   2.08006
   A18        2.09028   0.00054   0.00074   0.00403   0.00478   2.09506
   A19        2.03026  -0.00076  -0.00269  -0.00280  -0.00551   2.02476
   A20        2.12581   0.00068   0.00172   0.00338   0.00512   2.13093
   A21        2.12711   0.00008   0.00096  -0.00059   0.00039   2.12750
   A22        2.15763   0.00004   0.00300   0.00108   0.00409   2.16172
   A23        1.85345   0.00100  -0.00218   0.00261   0.00038   1.85383
   A24        2.27210  -0.00105  -0.00082  -0.00368  -0.00447   2.26763
   A25        1.92726   0.00225   0.00258   0.00994   0.01253   1.93979
   A26        2.18075  -0.00136  -0.00064  -0.00687  -0.00752   2.17323
   A27        2.17517  -0.00089  -0.00194  -0.00307  -0.00501   2.17016
    D1        0.00000  -0.00000   0.00000  -0.00000   0.00000   0.00000
    D2        3.14159  -0.00000   0.00000  -0.00000   0.00000   3.14159
    D3        3.14159  -0.00000   0.00000  -0.00000   0.00000   3.14159
    D4       -0.00000   0.00000   0.00000  -0.00000   0.00000   0.00000
    D5        3.14159  -0.00000   0.00000  -0.00000   0.00000   3.14159
    D6        0.00000   0.00000   0.00000   0.00000  -0.00000   0.00000
    D7        0.00000  -0.00000   0.00000  -0.00000  -0.00000   0.00000
    D8        3.14159  -0.00000   0.00000   0.00000   0.00000   3.14159
    D9        3.14159   0.00000   0.00000   0.00000   0.00000   3.14159
   D10        0.00000   0.00000   0.00000   0.00000   0.00000   0.00000
   D11       -0.00000   0.00000   0.00000   0.00000   0.00000   0.00000
   D12        3.14159   0.00000   0.00000   0.00000   0.00000   3.14159
   D13        3.14159   0.00000   0.00000   0.00000   0.00000   3.14159
   D14        0.00000  -0.00000   0.00000   0.00000   0.00000   0.00000
   D15       -0.00000  -0.00000   0.00000   0.00000   0.00000   0.00000
   D16        3.14159  -0.00000   0.00000  -0.00000   0.00000   3.14159
   D17        3.14159  -0.00000   0.00000  -0.00000   0.00000   3.14159
   D18       -0.00000  -0.00000   0.00000  -0.00000   0.00000   0.00000
   D19       -0.00000  -0.00000   0.00000  -0.00000   0.00000   0.00000
   D20        3.14159  -0.00000   0.00000  -0.00000   0.00000   3.14159
   D21        0.00000   0.00000   0.00000   0.00000   0.00000   0.00000
   D22        3.14159   0.00000   0.00000  -0.00000   0.00000   3.14159
   D23        3.14159   0.00000   0.00000   0.00000   0.00000   3.14159
   D24       -0.00000   0.00000   0.00000   0.00000   0.00000   0.00000
   D25       -0.00000  -0.00000   0.00000  -0.00000   0.00000   0.00000
   D26        3.14159   0.00000   0.00000   0.00000   0.00000   3.14159
   D27        3.14159   0.00000   0.00000   0.00000   0.00000   3.14159
   D28        0.00000   0.00000   0.00000   0.00000   0.00000   0.00000
   D29       -0.00000  -0.00000   0.00000  -0.00000   0.00000   0.00000
   D30        3.14159   0.00000   0.00000   0.00000   0.00000   3.14159
   D31        3.14159  -0.00000   0.00000  -0.00000   0.00000   3.14159
   D32        0.00000   0.00000   0.00000   0.00000   0.00000   0.00000
   D33        0.00000   0.00000   0.00000   0.00000   0.00000   0.00000
   D34        3.14159   0.00000   0.00000   0.00000   0.00000   3.14159
   D35        3.14159  -0.00000   0.00000  -0.00000   0.00000   3.14159
   D36       -0.00000  -0.00000   0.00000  -0.00000   0.00000   0.00000
   D37       -0.00000   0.00000   0.00000   0.00000   0.00000   0.00000
   D38        3.14159   0.00000   0.00000   0.00000   0.00000   3.14159
   D39        3.14159   0.00000   0.00000   0.00000   0.00000   3.14159
   D40        0.00000   0.00000   0.00000   0.00000   0.00000   0.00000
         Item               Value     Threshold  Converged?
 Maximum Force            0.008157     0.000450     NO 
 RMS     Force            0.001491     0.000300     NO 
 Maximum Displacement     0.028810     0.001800     NO 
 RMS     Displacement     0.006771     0.001200     NO 
 Predicted change in Energy=-3.256087D-04
 GradGradGradGradGradGradGradGradGradGradGradGradGradGradGradGradGradGrad

                          Input orientation:                          
 ---------------------------------------------------------------------
 Center     Atomic      Atomic             Coordinates (Angstroms)
 Number     Number       Type             X           Y           Z
 ---------------------------------------------------------------------
      1          6           0        2.392898    0.044313    0.000000
      2          1           0        3.464877   -0.085197    0.000000
      3          6           0        1.630297    1.166304   -0.000000
      4          1           0        2.003188    2.181065   -0.000000
      5          6           0        0.259345    0.772630   -0.000000
      6          6           0       -0.960018    1.454596   -0.000000
      7          6           0       -2.144530    0.675937   -0.000000
      8          6           0       -2.140989   -0.733043    0.000000
      9          6           0       -0.929447   -1.450672    0.000000
     10          6           0        0.246525   -0.676714    0.000000
     11          1           0       -1.004126    2.537083   -0.000000
     12          1           0       -3.101830    1.187362   -0.000000
     13          1           0       -3.085644   -1.263650    0.000000
     14          1           0       -0.901954   -2.533902    0.000000
[...]
 ! D11   D(4,3,5,6)              0.0            -DE/DX =    0.0                 !
 ! D12   D(4,3,5,10)           180.0            -DE/DX =    0.0                 !
 ! D13   D(3,5,6,7)            180.0            -DE/DX =    0.0                 !
 ! D14   D(3,5,6,11)             0.0            -DE/DX =    0.0                 !
 ! D15   D(10,5,6,7)             0.0            -DE/DX =    0.0                 !
 ! D16   D(10,5,6,11)          180.0            -DE/DX =    0.0                 !
 ! D17   D(3,5,10,9)           180.0            -DE/DX =    0.0                 !
 ! D18   D(3,5,10,15)            0.0            -DE/DX =    0.0                 !
 ! D19   D(6,5,10,9)             0.0            -DE/DX =    0.0                 !
 ! D20   D(6,5,10,15)          180.0            -DE/DX =    0.0                 !
 ! D21   D(5,6,7,8)              0.0            -DE/DX =    0.0                 !
 ! D22   D(5,6,7,12)           180.0            -DE/DX =    0.0                 !
 ! D23   D(11,6,7,8)           180.0            -DE/DX =    0.0                 !
 ! D24   D(11,6,7,12)            0.0            -DE/DX =    0.0                 !
 ! D25   D(6,7,8,9)              0.0            -DE/DX =    0.0                 !
 ! D26   D(6,7,8,13)           180.0            -DE/DX =    0.0                 !
 ! D27   D(12,7,8,9)           180.0            -DE/DX =    0.0                 !
 ! D28   D(12,7,8,13)            0.0            -DE/DX =    0.0                 !
 ! D29   D(7,8,9,10)             0.0            -DE/DX =    0.0                 !
 ! D30   D(7,8,9,14)           180.0            -DE/DX =    0.0                 !
 ! D31   D(13,8,9,10)          180.0            -DE/DX =    0.0                 !
 ! D32   D(13,8,9,14)            0.0            -DE/DX =    0.0                 !
 ! D33   D(8,9,10,5)             0.0            -DE/DX =    0.0                 !
 ! D34   D(8,9,10,15)          180.0            -DE/DX =    0.0                 !
 ! D35   D(14,9,10,5)          180.0            -DE/DX =    0.0                 !
 ! D36   D(14,9,10,15)           0.0            -DE/DX =    0.0                 !
 ! D37   D(5,10,15,1)            0.0            -DE/DX =    0.0                 !
 ! D38   D(5,10,15,16)         180.0            -DE/DX =    0.0                 !
 ! D39   D(9,10,15,1)          180.0            -DE/DX =    0.0                 !
 ! D40   D(9,10,15,16)           0.0            -DE/DX =    0.0                 !
 --------------------------------------------------------------------------------
 GradGradGradGradGradGradGradGradGradGradGradGradGradGradGradGradGradGrad

                          Input orientation:                          
 ---------------------------------------------------------------------
 Center     Atomic      Atomic             Coordinates (Angstroms)
 Number     Number       Type             X           Y           Z
 ---------------------------------------------------------------------
      1          6           0        2.396939    0.046212   -0.000000
      2          1           0        3.466770   -0.092763   -0.000000
      3          6           0        1.633344    1.167057   -0.000000
      4          1           0        2.003069    2.183097   -0.000000
      5          6           0        0.260135    0.773478   -0.000000
      6          6           0       -0.959657    1.452530   -0.000000
      7          6           0       -2.143573    0.671709   -0.000000
      8          6           0       -2.141780   -0.732824   -0.000000
      9          6           0       -0.930172   -1.447849   -0.000000
     10          6           0        0.247304   -0.672022   -0.000000
     11          1           0       -1.011516    2.534436   -0.000000
     12          1           0       -3.099185    1.186657   -0.000000
     13          1           0       -3.086240   -1.263525   -0.000000
     14          1           0       -0.898087   -2.530925   -0.000000
     15          7           0        1.528627   -1.062172   -0.000000
     16          1           0        1.832368   -2.025772   -0.000000
 ---------------------------------------------------------------------
                    Distance matrix (angstroms):
                    1          2          3          4          5
     1  C    0.000000
     2  H    1.078820   0.000000
     3  C    1.356234   2.224545   0.000000
     4  H    2.172881   2.705912   1.081219   0.000000
     5  C    2.257177   3.321578   1.428498   2.241617   0.000000
     6  C    3.639295   4.688410   2.608668   3.051471   1.396067
     7  C    4.583393   5.662187   3.809261   4.413495   2.405861
     8  C    4.605091   5.644955   4.226240   5.067778   2.835162
     9  C    3.647175   4.601017   3.661877   4.667727   2.520144
    10  C    2.266448   3.271162   2.302893   3.351778   1.445557
    11  H    4.220050   5.192035   2.977417   3.034990   2.172112
    12  H    5.613198   6.689446   4.732569   5.198643   3.384634
    13  H    5.637434   6.656773   5.308691   6.146566   3.917602
    14  H    4.183161   4.999662   4.481430   5.535225   3.501509
    15  N    1.408006   2.167061   2.231687   3.279766   2.231296
    16  H    2.147524   2.531362   3.199026   4.212330   3.210564
                    6          7          8          9         10
     6  C    0.000000
     7  C    1.418217   0.000000
     8  C    2.484590   1.404534   0.000000
     9  C    2.900529   2.442307   1.406859   0.000000
    10  C    2.443456   2.742609   2.389858   1.410092   0.000000
    11  H    1.083148   2.179748   3.457236   3.983115   3.444706
    12  H    2.155984   1.085526   2.145002   3.412512   3.828012
    13  H    3.449538   2.152615   1.083350   2.163933   3.385616
    14  H    3.983931   3.436291   2.186307   1.083552   2.183448
    15  N    3.537695   4.060960   3.685154   2.488863   1.339405
    16  H    4.460268   4.804634   4.179183   2.822344   2.084483
                   11         12         13         14         15
    11  H    0.000000
    12  H    2.484928   0.000000
    13  H    4.327699   2.450216   0.000000
    14  H    5.066631   4.320330   2.528699   0.000000
    15  N    4.403171   5.145277   4.619258   2.836579   0.000000
    16  H    5.374307   5.885569   4.977322   2.776791   1.010339
                   16
    16  H    0.000000
 Stoichiometry    C8H7N
 Framework group  CS[SG(C8H7N)]
 Deg. of freedom    29
 Full point group                 CS      NOp   2
 Largest Abelian subgroup         CS      NOp   2
 Largest concise Abelian subgroup C1      NOp   1
                         Standard orientation:                         
 ---------------------------------------------------------------------
 Center     Atomic      Atomic             Coordinates (Angstroms)
 Number     Number       Type             X           Y           Z
 ---------------------------------------------------------------------
      1          6           0       -2.265586    0.779755    0.000000
      2          1           0       -3.222877    1.277195    0.000000
      3          6           0       -1.932688   -0.534989    0.000000
      4          1           0       -2.628438   -1.362616    0.000000
      5          6           0       -0.507781   -0.636214    0.000000
      6          6           0        0.405159   -1.692408    0.000000
      7          6           0        1.785056   -1.364958    0.000000
      8          6           0        2.265051   -0.044988    0.000000
      9          6           0        1.372135    1.042190    0.000000
     10          6           0       -0.000000    0.717223    0.000000
     11          1           0        0.082839   -2.726486    0.000000
     12          1           0        2.506116   -2.176401    0.000000
     13          1           0        3.334236    0.129630    0.000000
     14          1           0        1.713433    2.070587    0.000000
     15          7           0       -1.069817    1.523137    0.000000
     16          1           0       -1.024675    2.532467    0.000000
 ---------------------------------------------------------------------
 Rotational constants (GHZ):           3.8301596           1.6432087           1.1498863

 **********************************************************************

            Population analysis using the CI Density.

 **********************************************************************

 Orbital symmetries:
       Occupied  (A') (A') (A') (A') (A') (A') (A') (A') (A') (A')
                 (A') (A') (A') (A') (A') (A') (A') (A') (A') (A')
                 (A") (A') (A') (A') (A') (A') (A") (A') (A") (A")
                 (A")
       Virtual   (A') (A") (A') (A') (A') (A') (A") (A") (A') (A')
                 (A") (A') (A") (A") (A') (A') (A') (A") (A') (A")
                 (A') (A") (A') (A") (A') (A") (A') (A') (A') (A')
                 (A') (A') (A") (A') (A') (A') (A') (A') (A") (A')
                 (A') (A') (A') (A') (A') (A') (A') (A') (A') (A')
                 (A') (A') (A') (A') (A') (A') (A') (A') (A") (A")
                 (A') (A") (A") (A') (A') (A") (A') (A") (A") (A')
                 (A') (A") (A') (A') (A') (A') (A') (A') (A") (A')
                 (A') (A') (A') (A') (A') (A') (A') (A') (A') (A')
                 (A') (A') (A") (A') (A") (A") (A') (A') (A") (A')
                 (A") (A") (A") (A") (A') (A') (A') (A') (A') (A')
                 (A") (A') (A') (A') (A') (A") (A') (A') (A') (A')
                 (A") (A') (A") (A") (A') (A") (A') (A") (A") (A')
                 (A') (A") (A') (A') (A") (A') (A') (A') (A') (A')
                 (A') (A') (A') (A') (A') (A') (A') (A') (A') (A')
                 (A') (A') (A') (A')
 The electronic state is 1-A'.
 Alpha  occ. eigenvalues --  -14.30535 -10.19852 -10.19609 -10.16536 -10.16313
 Alpha  occ. eigenvalues --  -10.16211 -10.15895 -10.15332 -10.15095  -1.15689
 Alpha  occ. eigenvalues --   -1.00748  -0.95627  -0.89351  -0.88456  -0.78229
 Alpha  occ. eigenvalues --   -0.74471  -0.73252  -0.68478  -0.62942  -0.61014
 Alpha  occ. eigenvalues --   -0.57313  -0.57003  -0.56559  -0.54741  -0.52646
 Alpha  occ. eigenvalues --   -0.47949  -0.46557  -0.46332  -0.40560  -0.31949
 Alpha  occ. eigenvalues --   -0.30918
 Alpha virt. eigenvalues --    0.04605   0.05469   0.06372   0.06763   0.08078
 Alpha virt. eigenvalues --    0.08404   0.09989   0.10566   0.10682   0.10937
 Alpha virt. eigenvalues --    0.11619   0.11651   0.13602   0.14792   0.14813
 Alpha virt. eigenvalues --    0.14994   0.16656   0.17902   0.19269   0.19398
 Alpha virt. eigenvalues --    0.20507   0.21264   0.21733   0.22776   0.22880
 Alpha virt. eigenvalues --    0.24265   0.24376   0.24724   0.26114   0.26512
 Alpha virt. eigenvalues --    0.26996   0.27699   0.28209   0.29004   0.29723
 Alpha virt. eigenvalues --    0.30670   0.30772   0.32140   0.32199   0.32864
 Alpha virt. eigenvalues --    0.34026   0.34483   0.37291   0.37628   0.39773
 Alpha virt. eigenvalues --    0.40246   0.41235   0.41978   0.44184   0.47064
 Alpha virt. eigenvalues --    0.47422   0.50639   0.54739   0.57596   0.62764
 Alpha virt. eigenvalues --    0.69396   0.73101   0.78386   0.78399   0.81054
 Alpha virt. eigenvalues --    0.82245   0.83202   0.85014   0.85321   0.85622
 Alpha virt. eigenvalues --    0.86570   0.87413   0.89025   0.90761   0.91394
 Alpha virt. eigenvalues --    0.93433   0.96810   1.00960   1.01683   1.02867
 Alpha virt. eigenvalues --    1.05587   1.06390   1.07437   1.07966   1.10551
 Alpha virt. eigenvalues --    1.11728   1.14619   1.16955   1.18400   1.21349
 Alpha virt. eigenvalues --    1.23555   1.24593   1.29229   1.30884   1.33577
 Alpha virt. eigenvalues --    1.35120   1.37286   1.38515   1.44456   1.47603
 Alpha virt. eigenvalues --    1.49185   1.50080   1.53764   1.55834   1.57034
 Alpha virt. eigenvalues --    1.61933   1.62179   1.65037   1.65316   1.65992
 Alpha virt. eigenvalues --    1.73094   1.78027   1.94284   1.98193   2.03050
 Alpha virt. eigenvalues --    2.04794   2.05306   2.08776   2.14106   2.15230
 Alpha virt. eigenvalues --    2.16344   2.20204   2.21163   2.27872   2.30094
 Alpha virt. eigenvalues --    2.30624   2.35413   2.39144   2.39597   2.42146
 Alpha virt. eigenvalues --    2.43028   2.45697   2.53341   2.57102   2.59271
 Alpha virt. eigenvalues --    2.69923   2.72081   2.76954   2.79842   2.80360
 Alpha virt. eigenvalues --    2.83428   2.87081   2.94858   2.98646   2.99435
 Alpha virt. eigenvalues --    3.11184   3.12389   3.25892   3.38633   3.55892
 Alpha virt. eigenvalues --    4.26448   4.37094   4.40800   4.44788   4.48411
 Alpha virt. eigenvalues --    4.51852   4.60181   4.64133   4.90040
          Condensed to atoms (all electrons):
               1          2          3          4          5          6
     1  C    6.655115   0.393717  -2.376963  -0.070292   2.080912   0.824908
     2  H    0.393717   0.475129  -0.061095  -0.000598  -0.011564  -0.020721
     3  C   -2.376963  -0.061095  13.281486   0.413444  -5.460677  -2.778052
     4  H   -0.070292  -0.000598   0.413444   0.486479  -0.084969  -0.083292
     5  C    2.080912  -0.011564  -5.460677  -0.084969  14.551701  -1.015498
     6  C    0.824908  -0.020721  -2.778052  -0.083292  -1.015498  12.154039
     7  C   -0.053629   0.000653   0.147191  -0.001952  -0.248394   0.111289
     8  C    0.014640   0.000141  -0.190314  -0.000195  -0.413840   0.419886
     9  C   -1.103118   0.014308   2.942218   0.009507  -3.052145  -2.307620
    10  C   -0.455838   0.053186   0.456218   0.113594  -2.266476  -0.985120
    11  H    0.004316  -0.000001  -0.063046   0.001243   0.036120   0.329866
    12  H    0.000061  -0.000000   0.000889  -0.000001   0.030031  -0.042415
    13  H    0.001687  -0.000000  -0.003027   0.000000  -0.009105   0.027835
    14  H    0.010829   0.000003  -0.011217   0.000001   0.022578  -0.020270
    15  N    0.426031  -0.053992  -0.476232   0.006370   0.576635   0.102077
    16  H   -0.015326  -0.002569  -0.008127  -0.000089   0.192924   0.036885
               7          8          9         10         11         12
     1  C   -0.053629   0.014640  -1.103118  -0.455838   0.004316   0.000061
     2  H    0.000653   0.000141   0.014308   0.053186  -0.000001  -0.000000
     3  C    0.147191  -0.190314   2.942218   0.456218  -0.063046   0.000889
     4  H   -0.001952  -0.000195   0.009507   0.113594   0.001243  -0.000001
     5  C   -0.248394  -0.413840  -3.052145  -2.266476   0.036120   0.030031
     6  C    0.111289   0.419886  -2.307620  -0.985120   0.329866  -0.042415
     7  C    5.540560   0.402862   0.100752  -0.331338  -0.029790   0.329745
     8  C    0.402862   5.850065  -0.109022   0.136812   0.021747  -0.015977
     9  C    0.100752  -0.109022  12.857133  -2.815614  -0.043956   0.022256
    10  C   -0.331338   0.136812  -2.815614  13.048559   0.045858  -0.017168
    11  H   -0.029790   0.021747  -0.043956   0.045858   0.502905  -0.003380
    12  H    0.329745  -0.015977   0.022256  -0.017168  -0.003380   0.505014
    13  H   -0.036645   0.342945  -0.050692   0.038723  -0.000111  -0.004165
    14  H    0.028895  -0.007943   0.323689  -0.046319   0.000012  -0.000124
    15  N   -0.019214   0.009014  -0.390151  -0.228000  -0.000621   0.000151
    16  H   -0.004873  -0.007384  -0.155136  -0.088424   0.000004  -0.000000
              13         14         15         16
     1  C    0.001687   0.010829   0.426031  -0.015326
     2  H   -0.000000   0.000003  -0.053992  -0.002569
     3  C   -0.003027  -0.011217  -0.476232  -0.008127
     4  H    0.000000   0.000001   0.006370  -0.000089
     5  C   -0.009105   0.022578   0.576635   0.192924
     6  C    0.027835  -0.020270   0.102077   0.036885
     7  C   -0.036645   0.028895  -0.019214  -0.004873
     8  C    0.342945  -0.007943   0.009014  -0.007384
     9  C   -0.050692   0.323689  -0.390151  -0.155136
    10  C    0.038723  -0.046319  -0.228000  -0.088424
    11  H   -0.000111   0.000012  -0.000621   0.000004
    12  H   -0.004165  -0.000124   0.000151  -0.000000
    13  H    0.505737  -0.002929  -0.000377  -0.000002
    14  H   -0.002929   0.509155  -0.001991   0.001811
    15  N   -0.000377  -0.001991   7.275479   0.284982
    16  H   -0.000002   0.001811   0.284982   0.334792
 Mulliken charges:
               1
     1  C   -0.337050
     2  H    0.213402
     3  C    0.187303
     4  H    0.210750
     5  C    1.071769
     6  C   -0.753798
     7  C    0.063889
     8  C   -0.453436
     9  C   -0.242408
    10  C   -0.658653
    11  H    0.198834
    12  H    0.195083
    13  H    0.190125
    14  H    0.193821
    15  N   -0.510162
    16  H    0.430533
 Sum of Mulliken charges =   0.00000
 Mulliken charges with hydrogens summed into heavy atoms:
               1
     1  C   -0.123648
     3  C    0.398053
     5  C    1.071769
     6  C   -0.554964
     7  C    0.258972
     8  C   -0.263311
     9  C   -0.048588
    10  C   -0.658653
    15  N   -0.079629
 Electronic spatial extent (au):  <R**2>=           1013.5407
 Charge=              0.0000 electrons
 Dipole moment (field-independent basis, Debye):
    X=             -1.3075    Y=              1.7075    Z=              0.0000  Tot=              2.1505
 Quadrupole moment (field-independent basis, Debye-Ang):
   XX=            -49.0430   YY=            -43.4922   ZZ=            -60.1814
   XY=             -2.9338   XZ=             -0.0000   YZ=              0.0000
 Traceless Quadrupole moment (field-independent basis, Debye-Ang):
   XX=              1.8626   YY=              7.4133   ZZ=             -9.2759
   XY=             -2.9338   XZ=             -0.0000   YZ=              0.0000
 Octapole moment (field-independent basis, Debye-Ang**2):
  XXX=             -9.1743  YYY=             19.4449  ZZZ=              0.0000  XYY=             -8.8901
  XXY=              2.2291  XXZ=             -0.0000  XZZ=             -2.3085  YZZ=              1.6379
  YYZ=              0.0000  XYZ=             -0.0000
 Hexadecapole moment (field-independent basis, Debye-Ang**3):
 XXXX=           -825.4034 YYYY=           -411.8609 ZZZZ=            -83.1813 XXXY=             55.2111
 XXXZ=             -0.0000 YYYX=             47.6860 YYYZ=              0.0000 ZZZX=             -0.0000
 ZZZY=              0.0000 XXYY=           -200.1878 XXZZ=           -191.4531 YYZZ=           -110.3301
 XXYZ=              0.0000 YYXZ=              0.0000 ZZXY=             26.3712
 N-N= 3.997077920605D+02 E-N=-1.640776680706D+03  KE= 3.595493490656D+02
 Symmetry A'   KE= 3.477754110456D+02
 Symmetry A"   KE= 1.177393801999D+01
 1\1\GINC-COMET-10-33\FOpt\RLC-BLYP TD-FC\6-31+G(d)\C8H7N1\GFOLEY1\26-J
 un-2018\0\\# opt td=(root=1) LC-BLYP/6-31+g(d) density=current scf=max
 cycle=600\\Title Card Required\\0,1\C,2.3969388511,0.0462120599,0.\H,3
 .4667702965,-0.0927626383,0.\C,1.6333437696,1.1670569599,0.\H,2.003069
 3105,2.1830974391,0.\C,0.2601351319,0.7734782666,0.\C,-0.9596568118,1.
 452530302,0.\C,-2.1435725852,0.6717088992,0.\C,-2.1417798583,-0.732824
 2615,0.\C,-0.9301722089,-1.4478487854,0.\C,0.2473043886,-0.6720217616,
 0.\H,-1.011516359,2.5344357711,0.\H,-3.0991848616,1.1866572348,0.\H,-3
 .0862401562,-1.2635245149,0.\H,-0.898087471,-2.530925232,0.\N,1.528627
 1566,-1.0621716997,0.\H,1.8323684071,-2.0257720394,0.\\Version=ES64L-G
 16RevB.01\State=1-A'\HF=-362.7290657\RMSD=5.058e-09\RMSF=1.216e-04\Dip
 ole=-0.5143909,0.6717665,0.\Quadrupole=1.384776,5.5116149,-6.8963909,-
 2.1812324,0.,0.\PG=CS [SG(C8H7N1)]\\@


 "WHERE SHALL I START, PLEASE YOUR MAJESTY?" HE ASKED.
 "BEGIN AT THE BEGINNING," THE KING SAID GRAVELY,
 "AND GO ON TILL YOU COME TO THE END: THEN STOP." 

                                      -- LEWIS CARROLL
 Job cpu time:       0 days  1 hours 38 minutes 34.1 seconds.
 Elapsed time:       0 days  0 hours 24 minutes 50.3 seconds.
 File lengths (MBytes):  RWF=    211 Int=      0 D2E=      0 Chk=      8 Scr=      1
 Normal termination of Gaussian 16 at Tue Jun 26 08:38:46 2018.
