 Entering Gaussian System, Link 0=/opt/gaussian/16.B.01/g16/g16
 Initial command:
 /opt/gaussian/16.B.01/g16/l1.exe "/scratch/gfoley1/16945505/Gau-3469.inp" -scrdir="/scratch/gfoley1/16945505/"
 Entering Link 1 = /opt/gaussian/16.B.01/g16/l1.exe PID=      3473.
  
 Copyright (c) 1988-2017, Gaussian, Inc.  All Rights Reserved.
  
 This is part of the Gaussian(R) 16 program.  It is based on
 the Gaussian(R) 09 system (copyright 2009, Gaussian, Inc.),
 the Gaussian(R) 03 system (copyright 2003, Gaussian, Inc.),
 the Gaussian(R) 98 system (copyright 1998, Gaussian, Inc.),
 the Gaussian(R) 94 system (copyright 1995, Gaussian, Inc.),
 the Gaussian 92(TM) system (copyright 1992, Gaussian, Inc.),
 the Gaussian 90(TM) system (copyright 1990, Gaussian, Inc.),
 the Gaussian 88(TM) system (copyright 1988, Gaussian, Inc.),
 the Gaussian 86(TM) system (copyright 1986, Carnegie Mellon
 University), and the Gaussian 82(TM) system (copyright 1983,
 Carnegie Mellon University). Gaussian is a federally registered
 trademark of Gaussian, Inc.
  
 This software contains proprietary and confidential information,
 including trade secrets, belonging to Gaussian, Inc.
  
 This software is provided under written license and may be
 used, copied, transmitted, or stored only in accord with that
 written license.
  
 The following legend is applicable only to US Government
 contracts under FAR:
  
                    RESTRICTED RIGHTS LEGEND
  
 Use, reproduction and disclosure by the US Government is
 subject to restrictions as set forth in subparagraphs (a)
 and (c) of the Commercial Computer Software - Restricted
 Rights clause in FAR 52.227-19.
  
 Gaussian, Inc.
 340 Quinnipiac St., Bldg. 40, Wallingford CT 06492
  
  
 ---------------------------------------------------------------
 Warning -- This program may not be used in any manner that
 competes with the business of Gaussian, Inc. or will provide
 assistance to any competitor of Gaussian, Inc.  The licensee
 of this program is prohibited from giving any competitor of
 Gaussian, Inc. access to this program.  By using this program,
 the user acknowledges that Gaussian, Inc. is engaged in the
 business of creating and licensing software in the field of
 computational chemistry and represents and warrants to the
 licensee that it is not a competitor of Gaussian, Inc. and that
 it will not use this program in any manner prohibited above.
 ---------------------------------------------------------------
  

 Cite this work as:
 Gaussian 16, Revision B.01,
 M. J. Frisch, G. W. Trucks, H. B. Schlegel, G. E. Scuseria, 
 M. A. Robb, J. R. Cheeseman, G. Scalmani, V. Barone, 
 G. A. Petersson, H. Nakatsuji, X. Li, M. Caricato, A. V. Marenich, 
 J. Bloino, B. G. Janesko, R. Gomperts, B. Mennucci, H. P. Hratchian, 
 J. V. Ortiz, A. F. Izmaylov, J. L. Sonnenberg, D. Williams-Young, 
 F. Ding, F. Lipparini, F. Egidi, J. Goings, B. Peng, A. Petrone, 
 T. Henderson, D. Ranasinghe, V. G. Zakrzewski, J. Gao, N. Rega, 
 G. Zheng, W. Liang, M. Hada, M. Ehara, K. Toyota, R. Fukuda, 
 J. Hasegawa, M. Ishida, T. Nakajima, Y. Honda, O. Kitao, H. Nakai, 
 T. Vreven, K. Throssell, J. A. Montgomery, Jr., J. E. Peralta, 
 F. Ogliaro, M. J. Bearpark, J. J. Heyd, E. N. Brothers, K. N. Kudin, 
 V. N. Staroverov, T. A. Keith, R. Kobayashi, J. Normand, 
 K. Raghavachari, A. P. Rendell, J. C. Burant, S. S. Iyengar, 
 J. Tomasi, M. Cossi, J. M. Millam, M. Klene, C. Adamo, R. Cammi, 
 J. W. Ochterski, R. L. Martin, K. Morokuma, O. Farkas, 
 J. B. Foresman, and D. J. Fox, Gaussian, Inc., Wallingford CT, 2016.
 
 ******************************************
 Gaussian 16:  ES64L-G16RevB.01 20-Dec-2017
                13-Jun-2018 
 ******************************************
 ---------------------------------------------------
 # opt td=(root=2) M062X/6-31+g(d) geom=connectivity
 ---------------------------------------------------
 1/18=20,19=15,26=3,38=1,57=2/1,3;
 2/9=110,12=2,17=6,18=5,40=1/2;
 3/5=1,6=6,7=11,11=9,25=1,30=1,71=1,74=-55/1,2,3,8;
 4//1;
 5/5=2,38=5/2;
 8/6=1,10=2,107=2/1;
 9/8=2,15=2,42=1,70=2/14;
 10/5=4,28=2/2;
 6/7=2,8=2,9=2,10=2/1;
 7/12=6,13=5,14=2/1,2,3,16;
 1/18=20,19=15,26=3/3(2);
 2/9=110/2;
 99//99;
 2/9=110/2;
 3/5=1,6=6,7=11,11=9,25=1,30=1,71=1,74=-55/1,2,3,8;
 4/5=5,16=3,69=1/1;
 5/5=2,38=5/2;
 8/6=1,10=2,107=2/1;
 9/8=2,15=2,42=1,49=4,70=2/14;
 10/5=4,28=2/2;
 7/12=6,13=5,14=2/1,2,3,16;
 1/18=20,19=15,26=3/3(-8);
 2/9=110/2;
 6/7=2,8=2,9=2,10=2/1;
 99/9=10/99;
 -------------------
 Title Card Required
 -------------------
 Symbolic Z-matrix:
 Charge =  0 Multiplicity = 1
 C                    -1.33996   2.08881   1.39456 
 H                    -2.21558   2.00585   2.00391 
 C                    -0.01363   2.0067    1.84698 
 H                     0.31448   1.85125   2.8535 
 C                     0.78597   2.16808   0.72372 
 C                     2.17136   2.17152   0.60581 
 C                     2.71529   2.36042  -0.68201 
 C                     1.85973   2.53856  -1.80247 
 C                     0.45733   2.52849  -1.63947 
 C                    -0.044     2.33966  -0.35507 
 H                     2.8014    2.03595   1.45997 
 H                     3.77686   2.3696   -0.81571 
 H                     2.2809    2.68121  -2.7757 
 H                    -0.19771   2.66151  -2.47501 
 N                    -1.32264   2.29058   0.0577 
 H                    -2.12783   2.38732  -0.52738 
 

 GradGradGradGradGradGradGradGradGradGradGradGradGradGradGradGradGradGrad
 Berny optimization.
 Initialization pass.
                           ----------------------------
                           !    Initial Parameters    !
                           ! (Angstroms and Degrees)  !
 --------------------------                            --------------------------
 ! Name  Definition              Value          Derivative Info.                !
 --------------------------------------------------------------------------------
 ! R1    R(1,2)                  1.07           estimate D2E/DX2                !
 ! R2    R(1,3)                  1.4038         estimate D2E/DX2                !
 ! R3    R(1,15)                 1.3521         estimate D2E/DX2                !
 ! R4    R(3,4)                  1.07           estimate D2E/DX2                !
 ! R5    R(3,5)                  1.3882         estimate D2E/DX2                !
 ! R6    R(5,6)                  1.3904         estimate D2E/DX2                !
 ! R7    R(5,10)                 1.3719         estimate D2E/DX2                !
 ! R8    R(6,7)                  1.4107         estimate D2E/DX2                !
 ! R9    R(6,11)                 1.07           estimate D2E/DX2                !
 ! R10   R(7,8)                  1.421          estimate D2E/DX2                !
 ! R11   R(7,12)                 1.07           estimate D2E/DX2                !
 ! R12   R(8,9)                  1.4119         estimate D2E/DX2                !
 ! R13   R(8,13)                 1.07           estimate D2E/DX2                !
 ! R14   R(9,10)                 1.3916         estimate D2E/DX2                !
 ! R15   R(9,14)                 1.07           estimate D2E/DX2                !
 ! R16   R(10,15)                1.3445         estimate D2E/DX2                !
 ! R17   R(15,16)                1.0            estimate D2E/DX2                !
 ! A1    A(2,1,3)              125.8112         estimate D2E/DX2                !
 ! A2    A(2,1,15)             125.8112         estimate D2E/DX2                !
 ! A3    A(3,1,15)             108.3775         estimate D2E/DX2                !
 ! A4    A(1,3,4)              126.9701         estimate D2E/DX2                !
 ! A5    A(1,3,5)              106.0599         estimate D2E/DX2                !
 ! A6    A(4,3,5)              126.9701         estimate D2E/DX2                !
 ! A7    A(3,5,6)              130.0024         estimate D2E/DX2                !
 ! A8    A(3,5,10)             107.5986         estimate D2E/DX2                !
 ! A9    A(6,5,10)             122.399          estimate D2E/DX2                !
 ! A10   A(5,6,7)              117.5116         estimate D2E/DX2                !
 ! A11   A(5,6,11)             121.2442         estimate D2E/DX2                !
 ! A12   A(7,6,11)             121.2442         estimate D2E/DX2                !
 ! A13   A(6,7,8)              120.2968         estimate D2E/DX2                !
 ! A14   A(6,7,12)             119.8516         estimate D2E/DX2                !
 ! A15   A(8,7,12)             119.8516         estimate D2E/DX2                !
 ! A16   A(7,8,9)              120.4065         estimate D2E/DX2                !
 ! A17   A(7,8,13)             119.7968         estimate D2E/DX2                !
 ! A18   A(9,8,13)             119.7968         estimate D2E/DX2                !
 ! A19   A(8,9,10)             117.732          estimate D2E/DX2                !
 ! A20   A(8,9,14)             121.134          estimate D2E/DX2                !
 ! A21   A(10,9,14)            121.134          estimate D2E/DX2                !
 ! A22   A(5,10,9)             121.6541         estimate D2E/DX2                !
 ! A23   A(5,10,15)            109.2304         estimate D2E/DX2                !
 ! A24   A(9,10,15)            129.1154         estimate D2E/DX2                !
 ! A25   A(1,15,10)            108.7335         estimate D2E/DX2                !
 ! A26   A(1,15,16)            125.6332         estimate D2E/DX2                !
 ! A27   A(10,15,16)           125.6332         estimate D2E/DX2                !
 ! D1    D(2,1,3,4)              0.0002         estimate D2E/DX2                !
 ! D2    D(2,1,3,5)           -179.9998         estimate D2E/DX2                !
 ! D3    D(15,1,3,4)           180.0            estimate D2E/DX2                !
 ! D4    D(15,1,3,5)             0.0            estimate D2E/DX2                !
 ! D5    D(2,1,15,10)          179.9998         estimate D2E/DX2                !
 ! D6    D(2,1,15,16)            0.0            estimate D2E/DX2                !
 ! D7    D(3,1,15,10)            0.0            estimate D2E/DX2                !
 ! D8    D(3,1,15,16)         -179.9998         estimate D2E/DX2                !
 ! D9    D(1,3,5,6)            179.9998         estimate D2E/DX2                !
 ! D10   D(1,3,5,10)             0.0            estimate D2E/DX2                !
 ! D11   D(4,3,5,6)             -0.0002         estimate D2E/DX2                !
 ! D12   D(4,3,5,10)          -180.0            estimate D2E/DX2                !
 ! D13   D(3,5,6,7)           -179.9998         estimate D2E/DX2                !
 ! D14   D(3,5,6,11)             0.0001         estimate D2E/DX2                !
 ! D15   D(10,5,6,7)             0.0            estimate D2E/DX2                !
 ! D16   D(10,5,6,11)          179.9998         estimate D2E/DX2                !
 ! D17   D(3,5,10,9)           179.9998         estimate D2E/DX2                !
 ! D18   D(3,5,10,15)            0.0            estimate D2E/DX2                !
 ! D19   D(6,5,10,9)             0.0            estimate D2E/DX2                !
 ! D20   D(6,5,10,15)         -179.9998         estimate D2E/DX2                !
 ! D21   D(5,6,7,8)              0.0            estimate D2E/DX2                !
 ! D22   D(5,6,7,12)          -180.0            estimate D2E/DX2                !
 ! D23   D(11,6,7,8)          -179.9998         estimate D2E/DX2                !
 ! D24   D(11,6,7,12)            0.0002         estimate D2E/DX2                !
 ! D25   D(6,7,8,9)              0.0001         estimate D2E/DX2                !
 ! D26   D(6,7,8,13)          -179.9998         estimate D2E/DX2                !
 ! D27   D(12,7,8,9)          -180.0            estimate D2E/DX2                !
 ! D28   D(12,7,8,13)            0.0001         estimate D2E/DX2                !
 ! D29   D(7,8,9,10)            -0.0001         estimate D2E/DX2                !
 ! D30   D(7,8,9,14)           180.0            estimate D2E/DX2                !
 ! D31   D(13,8,9,10)          179.9998         estimate D2E/DX2                !
 ! D32   D(13,8,9,14)           -0.0001         estimate D2E/DX2                !
 ! D33   D(8,9,10,5)             0.0001         estimate D2E/DX2                !
 ! D34   D(8,9,10,15)          179.9999         estimate D2E/DX2                !
 ! D35   D(14,9,10,5)          180.0            estimate D2E/DX2                !
 ! D36   D(14,9,10,15)          -0.0003         estimate D2E/DX2                !
 ! D37   D(5,10,15,1)            0.0            estimate D2E/DX2                !
 ! D38   D(5,10,15,16)         179.9998         estimate D2E/DX2                !
 ! D39   D(9,10,15,1)         -179.9998         estimate D2E/DX2                !
 ! D40   D(9,10,15,16)           0.0            estimate D2E/DX2                !
 --------------------------------------------------------------------------------
 Trust Radius=3.00D-01 FncErr=1.00D-07 GrdErr=1.00D-06 EigMax=2.50D+02 EigMin=1.00D-04
 Number of steps in this run=     94 maximum allowed number of steps=    100.
 GradGradGradGradGradGradGradGradGradGradGradGradGradGradGradGradGradGrad

                          Input orientation:                          
 ---------------------------------------------------------------------
 Center     Atomic      Atomic             Coordinates (Angstroms)
 Number     Number       Type             X           Y           Z
 ---------------------------------------------------------------------
      1          6           0       -1.339957    2.088809    1.394563
      2          1           0       -2.215576    2.005849    2.003915
      3          6           0       -0.013633    2.006700    1.846980
      4          1           0        0.314483    1.851247    2.853496
      5          6           0        0.785968    2.168085    0.723718
      6          6           0        2.171364    2.171521    0.605815
      7          6           0        2.715289    2.360423   -0.682013
      8          6           0        1.859731    2.538563   -1.802468
      9          6           0        0.457326    2.528493   -1.639472
     10          6           0       -0.043997    2.339664   -0.355067
     11          1           0        2.801396    2.035952    1.459970
     12          1           0        3.776863    2.369605   -0.815709
     13          1           0        2.280895    2.681211   -2.775696
     14          1           0       -0.197713    2.661512   -2.475014
     15          7           0       -1.322636    2.290581    0.057696
     16          1           0       -2.127826    2.387325   -0.527376
 ---------------------------------------------------------------------
                    Distance matrix (angstroms):
                    1          2          3          4          5
     1  C    0.000000
     2  H    1.070000   0.000000
     3  C    1.403766   2.207529   0.000000
     4  H    2.218579   2.673367   1.070000   0.000000
     5  C    2.230667   3.267184   1.388209   2.204231   0.000000
     6  C    3.599770   4.607317   2.518307   2.933027   1.390409
     7  C    4.564095   5.626131   3.737370   4.303829   2.394860
     8  C    4.545469   5.601826   4.136525   4.953604   2.769808
     9  C    3.553719   4.548827   3.556602   4.545968   2.413000
    10  C    2.191722   3.223659   2.227284   3.265261   1.371881
    11  H    4.142207   5.046463   2.841658   2.856705   2.149762
    12  H    5.580860   6.632641   4.646448   5.071473   3.369852
    13  H    5.554509   6.596896   5.204705   6.020250   3.839792
    14  H    4.075087   4.956053   4.375191   5.414045   3.382748
    15  N    1.352119   2.160135   2.235087   3.269506   2.214678
    16  H    2.098500   2.561378   3.201914   4.205062   3.178600
                    6          7          8          9         10
     6  C    0.000000
     7  C    1.410687   0.000000
     8  C    2.455944   1.420962   0.000000
     9  C    2.847222   2.458327   1.411882   0.000000
    10  C    2.420618   2.778666   2.399732   1.391646   0.000000
    11  H    1.070000   2.168130   3.432616   3.917117   3.388637
    12  H    2.153508   1.070000   2.162784   3.423910   3.848644
    13  H    3.421461   2.162200   1.070000   2.154004   3.373607
    14  H    3.917158   3.433815   2.168066   1.070000   2.149742
    15  N    3.538735   4.105713   3.694477   2.470879   1.344507
    16  H    4.451261   4.845657   4.189193   2.817746   2.091484
                   11         12         13         14         15
    11  H    0.000000
    12  H    2.498315   0.000000
    13  H    4.316034   2.485270   0.000000
    14  H    4.986991   4.316916   2.496858   0.000000
    15  N    4.363352   5.174357   4.600667   2.796008   0.000000
    16  H    5.326371   5.911751   4.957633   2.755686   1.000000
                   16
    16  H    0.000000
 Stoichiometry    C8H7N
 Framework group  C1[X(C8H7N)]
 Deg. of freedom    42
 Full point group                 C1      NOp   1
 Largest Abelian subgroup         C1      NOp   1
 Largest concise Abelian subgroup C1      NOp   1
                         Standard orientation:                         
 ---------------------------------------------------------------------
 Center     Atomic      Atomic             Coordinates (Angstroms)
 Number     Number       Type             X           Y           Z
 ---------------------------------------------------------------------
      1          6           0        2.360426    0.032633    0.000001
      2          1           0        3.430401    0.025257    0.000006
      3          6           0        1.546926    1.176650    0.000000
      4          1           0        1.870704    2.196487    0.000001
      5          6           0        0.237186    0.716536   -0.000002
      6          6           0       -0.959088    1.425172   -0.000001
      7          6           0       -2.157408    0.680814    0.000001
      8          6           0       -2.118961   -0.739628    0.000001
      9          6           0       -0.882385   -1.421016    0.000000
     10          6           0        0.279268   -0.654700   -0.000002
     11          1           0       -0.970350    2.495113    0.000002
     12          1           0       -3.099508    1.188107    0.000002
     13          1           0       -3.032773   -1.296266   -0.000001
     14          1           0       -0.839855   -2.490171    0.000001
     15          7           0        1.561740   -1.058388   -0.000000
     16          1           0        1.873421   -2.008575    0.000003
 ---------------------------------------------------------------------
 Rotational constants (GHZ):           3.9201898           1.6790815           1.1755669
 Standard basis: 6-31+G(d) (6D, 7F)
 There are   185 symmetry adapted cartesian basis functions of A   symmetry.
 There are   185 symmetry adapted basis functions of A   symmetry.
   185 basis functions,   316 primitive gaussians,   185 cartesian basis functions
    31 alpha electrons       31 beta electrons
       nuclear repulsion energy       404.0653087300 Hartrees.
 NAtoms=   16 NActive=   16 NUniq=   16 SFac= 1.00D+00 NAtFMM=   60 NAOKFM=F Big=F
 Integral buffers will be    131072 words long.
 Regular integral format.
 Two-electron integral symmetry is turned on.
 One-electron integrals computed using PRISM.
 NBasis=   185 RedAO= T EigKep=  1.24D-06  NBF=   185
 NBsUse=   185 1.00D-06 EigRej= -1.00D+00 NBFU=   185
 ExpMin= 4.38D-02 ExpMax= 4.17D+03 ExpMxC= 6.27D+02 IAcc=3 IRadAn=         5 AccDes= 0.00D+00
 Harris functional with IExCor= 1009 and IRadAn=       5 diagonalized for initial guess.
 HarFok:  IExCor= 1009 AccDes= 0.00D+00 IRadAn=         5 IDoV= 1 UseB2=F ITyADJ=14
 ICtDFT=  3500011 ScaDFX=  1.000000  1.000000  1.000000  1.000000
 FoFCou: FMM=F IPFlag=           0 FMFlag=      100000 FMFlg1=           0
         NFxFlg=           0 DoJE=T BraDBF=F KetDBF=T FulRan=T
         wScrn=  0.000000 ICntrl=       500 IOpCl=  0 I1Cent=   200000004 NGrid=           0
         NMat0=    1 NMatS0=      1 NMatT0=    0 NMatD0=    1 NMtDS0=    0 NMtDT0=    0
 Petite list used in FoFCou.
 Requested convergence on RMS density matrix=1.00D-08 within 128 cycles.
 Requested convergence on MAX density matrix=1.00D-06.
 Requested convergence on             energy=1.00D-06.
 No special actions if energy rises.
 SCF Done:  E(RM062X) =  -363.661313589     A.U. after   15 cycles
            NFock= 15  Conv=0.82D-08     -V/T= 2.0078
 DoSCS=F DFT=T ScalE2(SS,OS)=  1.000000  1.000000
 ExpMin= 4.38D-02 ExpMax= 4.17D+03 ExpMxC= 6.27D+02 IAcc=3 IRadAn=         5 AccDes= 0.00D+00
 HarFok:  IExCor=  205 AccDes= 0.00D+00 IRadAn=         5 IDoV=-2 UseB2=F ITyADJ=14
 ICtDFT= 12500011 ScaDFX=  1.000000  1.000000  1.000000  1.000000
 Range of M.O.s used for correlation:    10   185
 NBasis=   185 NAE=    31 NBE=    31 NFC=     9 NFV=     0
 NROrb=    176 NOA=    22 NOB=    22 NVA=   154 NVB=   154

 **** Warning!!: The largest alpha MO coefficient is  0.21585193D+03

 Orbital symmetries:
       Occupied  (A) (A) (A) (A) (A) (A) (A) (A) (A) (A) (A) (A)
                 (A) (A) (A) (A) (A) (A) (A) (A) (A) (A) (A) (A)
                 (A) (A) (A) (A) (A) (A) (A)
       Virtual   (A) (A) (A) (A) (A) (A) (A) (A) (A) (A) (A) (A)
                 (A) (A) (A) (A) (A) (A) (A) (A) (A) (A) (A) (A)
                 (A) (A) (A) (A) (A) (A) (A) (A) (A) (A) (A) (A)
                 (A) (A) (A) (A) (A) (A) (A) (A) (A) (A) (A) (A)
                 (A) (A) (A) (A) (A) (A) (A) (A) (A) (A) (A) (A)
                 (A) (A) (A) (A) (A) (A) (A) (A) (A) (A) (A) (A)
                 (A) (A) (A) (A) (A) (A) (A) (A) (A) (A) (A) (A)
                 (A) (A) (A) (A) (A) (A) (A) (A) (A) (A) (A) (A)
                 (A) (A) (A) (A) (A) (A) (A) (A) (A) (A) (A) (A)
                 (A) (A) (A) (A) (A) (A) (A) (A) (A) (A) (A) (A)
                 (A) (A) (A) (A) (A) (A) (A) (A) (A) (A) (A) (A)
                 (A) (A) (A) (A) (A) (A) (A) (A) (A) (A) (A) (A)
                 (A) (A) (A) (A) (A) (A) (A) (A) (A) (A)
    12 initial guesses have been made.
 Convergence on wavefunction:    0.000001000000000
 Iteration     1 Dimension    12 NMult     0 NNew     12
 CISAX will form    12 AO SS matrices at one time.
 New state      2 was old state      6
 New state      3 was old state      2
 Iteration     2 Dimension    18 NMult    12 NNew      6
 New state      2 was old state      3
 New state      3 was old state      2
 Iteration     3 Dimension    24 NMult    18 NNew      6
 New state      1 was old state      2
 New state      2 was old state      1
 Iteration     4 Dimension    30 NMult    24 NNew      6
 Iteration     5 Dimension    36 NMult    30 NNew      6
 Iteration     6 Dimension    42 NMult    36 NNew      6
 Iteration     7 Dimension    48 NMult    42 NNew      6
 Iteration     8 Dimension    54 NMult    48 NNew      6
 Iteration     9 Dimension    60 NMult    54 NNew      6
 Iteration    10 Dimension    66 NMult    60 NNew      6
 Iteration    11 Dimension    70 NMult    66 NNew      4
 Iteration    12 Dimension    72 NMult    70 NNew      2
 ***********************************************************************
 Excited states from <AA,BB:AA,BB> singles matrix:
 ***********************************************************************
 
 Ground to excited state transition densities written to RWF  633
 Ground to excited state transition electric dipole moments (Au):
       state          X           Y           Z        Dip. S.      Osc.
         1        -0.7968      0.6818     -0.0000      1.0997      0.1315
         2         0.0000     -0.0000     -0.1550      0.0240      0.0029
         3        -0.3505     -0.3001      0.0000      0.2129      0.0266
 Ground to excited state transition velocity dipole moments (Au):
       state          X           Y           Z        Dip. S.      Osc.
         1         0.1364     -0.1367      0.0000      0.0373      0.1386
         2        -0.0000      0.0000      0.0203      0.0004      0.0015
         3         0.0643      0.0612     -0.0000      0.0079      0.0280
 Ground to excited state transition magnetic dipole moments (Au):
       state          X           Y           Z
         1         0.0000     -0.0000      0.2980
         2         0.1328     -0.0925     -0.0000
         3         0.0000      0.0000     -0.0540
 Ground to excited state transition velocity quadrupole moments (Au):
       state          XX          YY          ZZ          XY          XZ          YZ
         1         0.2232     -0.1556      0.0290      0.0836      0.0000      0.0000
         2        -0.0000      0.0000      0.0000     -0.0000      0.0810      0.0435
         3        -0.0166     -0.0605      0.0176     -0.0120     -0.0000      0.0000
 <0|del|b> * <b|rxdel|0> + <0|del|b> * <b|delr+rdel|0>
 Rotatory Strengths (R) in cgs (10**-40 erg-esu-cm/Gauss)
       state          XX          YY          ZZ    R(velocity)    E-M Angle
         1         0.0008      0.0013      0.0007      0.0009       90.00
         2        -0.0007     -0.0007     -0.0004     -0.0006       90.00
         3         0.0001      0.0000     -0.0000      0.0000       90.00
 1/2[<0|r|b>*<b|rxdel|0> + (<0|rxdel|b>*<b|r|0>)*]
 Rotatory Strengths (R) in cgs (10**-40 erg-esu-cm/Gauss)
       state          XX          YY          ZZ     R(length)
         1         0.0019      0.0005      0.0006      0.0010
         2        -0.0010     -0.0005     -0.0002     -0.0006
         3         0.0000      0.0001      0.0000      0.0000
  1/2[<0|del|b>*<b|r|0> + (<0|r|b>*<b|del|0>)*] (Au)
       state          X           Y           Z        Dip. S.   Osc.(frdel)
         1        -0.1087     -0.0932     -0.0000      0.2019      0.1346
         2        -0.0000     -0.0000     -0.0031      0.0031      0.0021
         3        -0.0225     -0.0184     -0.0000      0.0409      0.0273

 Excitation energies and oscillator strengths:
 
 Excited State   1:      Singlet-A      4.8823 eV  253.95 nm  f=0.1315  <S**2>=0.000
      30 -> 38         0.12168
      31 -> 33         0.68524
 
 Excited State   2:      Singlet-A      4.9536 eV  250.29 nm  f=0.0029  <S**2>=0.000
      31 -> 32         0.69397
 This state for optimization and/or second-order correction.
 Total Energy, E(TD-HF/TD-DFT) =  -363.479271221    
 Copying the excited state density for this state as the 1-particle RhoCI density.
 
 Excited State   3:      Singlet-A      5.1028 eV  242.97 nm  f=0.0266  <S**2>=0.000
      30 -> 33         0.57620
      31 -> 38        -0.36997
 SavETr:  write IOETrn=   770 NScale= 10 NData=  16 NLR=1 NState=    3 LETran=      64.
          IDoAtm=1111111111111111
          Differentiating once with respect to electric field.
                with respect to dipole field.
          Differentiating once with respect to nuclear coordinates.
          There are     1 degrees of freedom in the 1st order CPHF.  IDoFFX=0 NUNeed=     1.
 LinEq1:  Iter=  0 NonCon=     1 RMS=1.08D-02 Max=1.84D-01 NDo=     1
 AX will form     1 AO Fock derivatives at one time.
 LinEq1:  Iter=  1 NonCon=     1 RMS=4.76D-03 Max=1.13D-01 NDo=     1
 LinEq1:  Iter=  2 NonCon=     1 RMS=2.81D-03 Max=7.70D-02 NDo=     1
 LinEq1:  Iter=  3 NonCon=     1 RMS=9.91D-04 Max=1.92D-02 NDo=     1
 LinEq1:  Iter=  4 NonCon=     1 RMS=5.57D-04 Max=1.14D-02 NDo=     1
 LinEq1:  Iter=  5 NonCon=     1 RMS=2.23D-04 Max=4.49D-03 NDo=     1
 LinEq1:  Iter=  6 NonCon=     1 RMS=1.31D-04 Max=3.37D-03 NDo=     1
 LinEq1:  Iter=  7 NonCon=     1 RMS=5.45D-05 Max=1.35D-03 NDo=     1
 LinEq1:  Iter=  8 NonCon=     1 RMS=1.40D-05 Max=3.89D-04 NDo=     1
 LinEq1:  Iter=  9 NonCon=     1 RMS=9.79D-06 Max=2.56D-04 NDo=     1
 LinEq1:  Iter= 10 NonCon=     1 RMS=3.32D-06 Max=6.97D-05 NDo=     1
 LinEq1:  Iter= 11 NonCon=     1 RMS=1.46D-06 Max=3.95D-05 NDo=     1
 LinEq1:  Iter= 12 NonCon=     1 RMS=7.10D-07 Max=1.25D-05 NDo=     1
 LinEq1:  Iter= 13 NonCon=     1 RMS=2.16D-07 Max=6.55D-06 NDo=     1
 LinEq1:  Iter= 14 NonCon=     1 RMS=1.12D-07 Max=2.04D-06 NDo=     1
 LinEq1:  Iter= 15 NonCon=     1 RMS=4.04D-08 Max=8.89D-07 NDo=     1
 LinEq1:  Iter= 16 NonCon=     1 RMS=9.72D-09 Max=1.44D-07 NDo=     1
 LinEq1:  Iter= 17 NonCon=     1 RMS=4.48D-09 Max=7.30D-08 NDo=     1
 LinEq1:  Iter= 18 NonCon=     1 RMS=1.27D-09 Max=1.28D-08 NDo=     1
 LinEq1:  Iter= 19 NonCon=     1 RMS=3.62D-10 Max=5.18D-09 NDo=     1
 LinEq1:  Iter= 20 NonCon=     1 RMS=1.71D-10 Max=2.00D-09 NDo=     1
 LinEq1:  Iter= 21 NonCon=     0 RMS=4.19D-11 Max=5.03D-10 NDo=     1
 Linear equations converged to 1.000D-10 1.000D-09 after    21 iterations.
 End of Minotr F.D. properties file   721 does not exist.
 End of Minotr F.D. properties file   722 does not exist.
 End of Minotr F.D. properties file   788 does not exist.

 **********************************************************************

            Population analysis using the SCF Density.

 **********************************************************************

 Orbital symmetries:
       Occupied  (A) (A) (A) (A) (A) (A) (A) (A) (A) (A) (A) (A)
                 (A) (A) (A) (A) (A) (A) (A) (A) (A) (A) (A) (A)
                 (A) (A) (A) (A) (A) (A) (A)
       Virtual   (A) (A) (A) (A) (A) (A) (A) (A) (A) (A) (A) (A)
                 (A) (A) (A) (A) (A) (A) (A) (A) (A) (A) (A) (A)
                 (A) (A) (A) (A) (A) (A) (A) (A) (A) (A) (A) (A)
                 (A) (A) (A) (A) (A) (A) (A) (A) (A) (A) (A) (A)
                 (A) (A) (A) (A) (A) (A) (A) (A) (A) (A) (A) (A)
                 (A) (A) (A) (A) (A) (A) (A) (A) (A) (A) (A) (A)
                 (A) (A) (A) (A) (A) (A) (A) (A) (A) (A) (A) (A)
                 (A) (A) (A) (A) (A) (A) (A) (A) (A) (A) (A) (A)
                 (A) (A) (A) (A) (A) (A) (A) (A) (A) (A) (A) (A)
                 (A) (A) (A) (A) (A) (A) (A) (A) (A) (A) (A) (A)
                 (A) (A) (A) (A) (A) (A) (A) (A) (A) (A) (A) (A)
                 (A) (A) (A) (A) (A) (A) (A) (A) (A) (A) (A) (A)
                 (A) (A) (A) (A) (A) (A) (A) (A) (A) (A)
 The electronic state is 1-A.
 Alpha  occ. eigenvalues --  -14.81417 -10.58500 -10.57537 -10.55230 -10.54863
 Alpha  occ. eigenvalues --  -10.54575 -10.54374 -10.53505 -10.53219  -1.11520
 Alpha  occ. eigenvalues --   -0.94492  -0.88692  -0.83448  -0.80718  -0.71728
 Alpha  occ. eigenvalues --   -0.68520  -0.66464  -0.62394  -0.56329  -0.54266
 Alpha  occ. eigenvalues --   -0.51130  -0.50841  -0.50172  -0.47233  -0.45673
 Alpha  occ. eigenvalues --   -0.41370  -0.40046  -0.39951  -0.33936  -0.27665
 Alpha  occ. eigenvalues --   -0.24870
 Alpha virt. eigenvalues --    0.00587   0.00974   0.02656   0.03081   0.04363
 Alpha virt. eigenvalues --    0.04630   0.05338   0.06511   0.06625   0.07045
 Alpha virt. eigenvalues --    0.07480   0.07495   0.09896   0.10416   0.10896
 Alpha virt. eigenvalues --    0.11049   0.12601   0.13821   0.14732   0.15184
 Alpha virt. eigenvalues --    0.16195   0.16305   0.17500   0.18021   0.18730
 Alpha virt. eigenvalues --    0.19383   0.19903   0.20588   0.21328   0.21556
 Alpha virt. eigenvalues --    0.22714   0.23211   0.23383   0.24537   0.24871
 Alpha virt. eigenvalues --    0.25300   0.26062   0.26077   0.26798   0.27584
 Alpha virt. eigenvalues --    0.29166   0.29514   0.31501   0.32041   0.32992
 Alpha virt. eigenvalues --    0.34390   0.34609   0.36046   0.38841   0.40026
 Alpha virt. eigenvalues --    0.41058   0.44360   0.48621   0.50516   0.56554
 Alpha virt. eigenvalues --    0.63423   0.68076   0.72020   0.72157   0.74708
 Alpha virt. eigenvalues --    0.76226   0.76599   0.78131   0.78338   0.78745
 Alpha virt. eigenvalues --    0.80130   0.81904   0.82335   0.84253   0.84316
 Alpha virt. eigenvalues --    0.86339   0.90263   0.93843   0.94830   0.97247
 Alpha virt. eigenvalues --    0.99603   1.00699   1.01200   1.01782   1.04230
 Alpha virt. eigenvalues --    1.04672   1.08134   1.10343   1.11832   1.12717
 Alpha virt. eigenvalues --    1.15701   1.16623   1.20987   1.21583   1.24608
 Alpha virt. eigenvalues --    1.26680   1.28220   1.28987   1.35285   1.37452
 Alpha virt. eigenvalues --    1.40175   1.40439   1.46668   1.46984   1.49080
 Alpha virt. eigenvalues --    1.51817   1.52823   1.55125   1.56255   1.57811
 Alpha virt. eigenvalues --    1.63404   1.69423   1.83781   1.89740   1.95728
 Alpha virt. eigenvalues --    1.96550   1.98586   2.01632   2.04583   2.07243
 Alpha virt. eigenvalues --    2.07352   2.10921   2.16217   2.17447   2.20479
 Alpha virt. eigenvalues --    2.22190   2.24669   2.28151   2.29123   2.30297
 Alpha virt. eigenvalues --    2.34991   2.36519   2.41717   2.45427   2.51773
 Alpha virt. eigenvalues --    2.61379   2.62957   2.65628   2.68640   2.70793
 Alpha virt. eigenvalues --    2.72699   2.75675   2.86640   2.87614   2.88059
 Alpha virt. eigenvalues --    2.96898   3.01542   3.16737   3.29798   3.47923
 Alpha virt. eigenvalues --    4.20940   4.27839   4.31518   4.35174   4.39901
 Alpha virt. eigenvalues --    4.44062   4.51181   4.55583   4.83113
          Condensed to atoms (all electrons):
               1          2          3          4          5          6
     1  C    6.254781   0.336960  -1.633048  -0.042206   1.926270   0.795213
     2  H    0.336960   0.471372  -0.002050  -0.000715  -0.071460  -0.021955
     3  C   -1.633048  -0.002050  11.258062   0.329985  -4.706388  -3.101239
     4  H   -0.042206  -0.000715   0.329985   0.485195  -0.026642  -0.028915
     5  C    1.926270  -0.071460  -4.706388  -0.026642  14.782765   0.782641
     6  C    0.795213  -0.021955  -3.101239  -0.028915   0.782641  11.576374
     7  C   -0.054945   0.001180   0.040251   0.004752  -0.194219   0.324118
     8  C    0.043238   0.000431  -0.233016   0.001200  -0.694600   0.557212
     9  C   -1.149120   0.026840   2.846189   0.001651  -3.935826  -2.800787
    10  C   -0.728909   0.098542   1.767954   0.054091  -4.147828  -1.932441
    11  H    0.005142  -0.000002  -0.038613   0.001714   0.097941   0.203277
    12  H    0.000101  -0.000000   0.004112  -0.000002   0.039532  -0.032772
    13  H    0.001605  -0.000000  -0.000652   0.000000   0.009791   0.011000
    14  H    0.011701   0.000002  -0.011033   0.000002   0.012650  -0.011510
    15  N    0.552990  -0.055271  -0.644327   0.008034   0.777378   0.182909
    16  H   -0.007613  -0.002329  -0.015405  -0.000077   0.225381   0.034935
               7          8          9         10         11         12
     1  C   -0.054945   0.043238  -1.149120  -0.728909   0.005142   0.000101
     2  H    0.001180   0.000431   0.026840   0.098542  -0.000002  -0.000000
     3  C    0.040251  -0.233016   2.846189   1.767954  -0.038613   0.004112
     4  H    0.004752   0.001200   0.001651   0.054091   0.001714  -0.000002
     5  C   -0.194219  -0.694600  -3.935826  -4.147828   0.097941   0.039532
     6  C    0.324118   0.557212  -2.800787  -1.932441   0.203277  -0.032772
     7  C    5.371465   0.471387   0.158440  -0.318524   0.018611   0.303212
     8  C    0.471387   5.494429   0.256125   0.262361   0.010168  -0.008590
     9  C    0.158440   0.256125  11.935144  -0.767514  -0.029589   0.022051
    10  C   -0.318524   0.262361  -0.767514  12.983056   0.028399  -0.017753
    11  H    0.018611   0.010168  -0.029589   0.028399   0.500112  -0.002776
    12  H    0.303212  -0.008590   0.022051  -0.017753  -0.002776   0.499149
    13  H   -0.002962   0.288566  -0.012054   0.015784  -0.000127  -0.003317
    14  H    0.006881   0.045278   0.175817   0.069988   0.000016  -0.000130
    15  N   -0.032410   0.003583  -0.543761  -0.307370  -0.000601   0.000342
    16  H   -0.003572  -0.008980  -0.160832  -0.113118   0.000004  -0.000000
              13         14         15         16
     1  C    0.001605   0.011701   0.552990  -0.007613
     2  H   -0.000000   0.000002  -0.055271  -0.002329
     3  C   -0.000652  -0.011033  -0.644327  -0.015405
     4  H    0.000000   0.000002   0.008034  -0.000077
     5  C    0.009791   0.012650   0.777378   0.225381
     6  C    0.011000  -0.011510   0.182909   0.034935
     7  C   -0.002962   0.006881  -0.032410  -0.003572
     8  C    0.288566   0.045278   0.003583  -0.008980
     9  C   -0.012054   0.175817  -0.543761  -0.160832
    10  C    0.015784   0.069988  -0.307370  -0.113118
    11  H   -0.000127   0.000016  -0.000601   0.000004
    12  H   -0.003317  -0.000130   0.000342  -0.000000
    13  H    0.497017  -0.003173  -0.000428  -0.000002
    14  H   -0.003173   0.510512  -0.005961   0.002096
    15  N   -0.000428  -0.005961   7.308160   0.286339
    16  H   -0.000002   0.002096   0.286339   0.322598
 Mulliken charges:
               1
     1  C   -0.312160
     2  H    0.218454
     3  C    0.139219
     4  H    0.211935
     5  C    1.122613
     6  C   -0.538061
     7  C   -0.093667
     8  C   -0.488792
     9  C   -0.022775
    10  C   -0.946718
    11  H    0.206322
    12  H    0.196840
    13  H    0.198952
    14  H    0.196865
    15  N   -0.529605
    16  H    0.440575
 Sum of Mulliken charges =  -0.00000
 Mulliken charges with hydrogens summed into heavy atoms:
               1
     1  C   -0.093706
     3  C    0.351154
     5  C    1.122613
     6  C   -0.331738
     7  C    0.103174
     8  C   -0.289840
     9  C    0.174091
    10  C   -0.946718
    15  N   -0.089030
 Electronic spatial extent (au):  <R**2>=            990.7351
 Charge=             -0.0000 electrons
 Dipole moment (field-independent basis, Debye):
    X=              1.6025    Y=             -1.6158    Z=              0.0000  Tot=              2.2757
 Quadrupole moment (field-independent basis, Debye-Ang):
   XX=            -45.4403   YY=            -44.2059   ZZ=            -58.9237
   XY=             -3.4311   XZ=              0.0000   YZ=             -0.0000
 Traceless Quadrupole moment (field-independent basis, Debye-Ang):
   XX=              4.0830   YY=              5.3174   ZZ=             -9.4004
   XY=             -3.4311   XZ=              0.0000   YZ=             -0.0000
 Octapole moment (field-independent basis, Debye-Ang**2):
  XXX=             14.4105  YYY=            -10.1187  ZZZ=              0.0000  XYY=              8.1967
  XXY=             -8.2350  XXZ=              0.0001  XZZ=              2.3893  YZZ=             -2.1098
  YYZ=              0.0001  XYZ=             -0.0000
 Hexadecapole moment (field-independent basis, Debye-Ang**3):
 XXXX=           -793.8502 YYYY=           -365.0770 ZZZZ=            -72.6982 XXXY=            -20.1091
 XXXZ=              0.0004 YYYX=            -21.2537 YYYZ=              0.0000 ZZZX=              0.0000
 ZZZY=              0.0000 XXYY=           -193.0294 XXZZ=           -185.7066 YYZZ=            -93.1068
 XXYZ=              0.0000 YYXZ=              0.0001 ZZXY=             -4.3876
 N-N= 4.040653087300D+02 E-N=-1.650960656466D+03  KE= 3.608502606358D+02
 Calling FoFJK, ICntrl=  10005127 FMM=F ISym2X=0 I1Cent= 0 IOpClX= 0 NMat=1 NMatS=1 NMatT=0.
 ***** Axes restored to original set *****
 -------------------------------------------------------------------
 Center     Atomic                   Forces (Hartrees/Bohr)
 Number     Number              X              Y              Z
 -------------------------------------------------------------------
      1        6          -0.005828385    0.003589615   -0.023361290
      2        1          -0.012586810    0.000733994   -0.003994754
      3        6          -0.001906265   -0.000816263    0.005533802
      4        1           0.000283253   -0.001402786    0.009266632
      5        6           0.025625810   -0.004128205    0.025567049
      6        6           0.015086228    0.004752868   -0.032498046
      7        6          -0.021439700    0.000278697   -0.000373264
      8        6           0.005553025   -0.004950673    0.032390195
      9        6           0.000482628   -0.001601043    0.010562225
     10        6           0.020279511    0.008901534   -0.060316114
     11        1           0.006627963   -0.001353081    0.008501236
     12        1           0.010356288    0.000173300   -0.001858327
     13        1           0.003870327    0.001415130   -0.009632902
     14        1          -0.005349271    0.001099876   -0.006912643
     15        7          -0.015457477   -0.009140208    0.061568141
     16        1          -0.025597125    0.002447244   -0.014441939
 -------------------------------------------------------------------
 Cartesian Forces:  Max     0.061568141 RMS     0.017518054

 GradGradGradGradGradGradGradGradGradGradGradGradGradGradGradGradGradGrad
 Berny optimization.
 FormGI is forming the generalized inverse of G from B-inverse, IUseBI=4.
 Internal  Forces:  Max     0.043257607 RMS     0.009793265
 Search for a local minimum.
 Step number   1 out of a maximum of   94
 All quantities printed in internal units (Hartrees-Bohrs-Radians)
 Mixed Optimization -- RFO/linear search
 Second derivative matrix not updated -- first step.
 ITU=  0
     Eigenvalues ---    0.01860   0.01895   0.01902   0.02068   0.02080
     Eigenvalues ---    0.02086   0.02127   0.02200   0.02213   0.02278
     Eigenvalues ---    0.02323   0.02358   0.02380   0.16000   0.16000
     Eigenvalues ---    0.16000   0.16000   0.16000   0.16000   0.16000
     Eigenvalues ---    0.22000   0.22203   0.22697   0.24057   0.24673
     Eigenvalues ---    0.37230   0.37230   0.37230   0.37230   0.37230
     Eigenvalues ---    0.37230   0.38960   0.40898   0.41789   0.43284
     Eigenvalues ---    0.43732   0.46001   0.46371   0.47688   0.47929
     Eigenvalues ---    0.52579   0.54391
 RFO step:  Lambda=-1.81564888D-02 EMin= 1.86035355D-02
 Linear search not attempted -- first point.
 Iteration  1 RMS(Cart)=  0.03739480 RMS(Int)=  0.00055597
 Iteration  2 RMS(Cart)=  0.00059568 RMS(Int)=  0.00011373
 Iteration  3 RMS(Cart)=  0.00000037 RMS(Int)=  0.00011373
 Variable       Old X    -DE/DX   Delta X   Delta X   Delta X     New X
                                 (Linear)    (Quad)   (Total)
    R1        2.02201   0.00797   0.00000   0.02041   0.02041   2.04241
    R2        2.65273   0.02145   0.00000   0.03909   0.03886   2.69159
    R3        2.55513  -0.02438   0.00000  -0.04891  -0.04919   2.50595
    R4        2.02201   0.00901   0.00000   0.02307   0.02307   2.04508
    R5        2.62333   0.02284   0.00000   0.04894   0.04908   2.67242
    R6        2.62749   0.01673   0.00000   0.03722   0.03718   2.66468
    R7        2.59248   0.03185   0.00000   0.07282   0.07315   2.66563
    R8        2.66581  -0.01411   0.00000  -0.03298  -0.03305   2.63277
    R9        2.02201   0.01086   0.00000   0.02781   0.02781   2.04982
   R10        2.68523  -0.01519   0.00000  -0.03989  -0.03992   2.64531
   R11        2.02201   0.01051   0.00000   0.02691   0.02691   2.04892
   R12        2.66807   0.00328   0.00000   0.00398   0.00402   2.67209
   R13        2.02201   0.01047   0.00000   0.02683   0.02683   2.04883
   R14        2.62983  -0.01105   0.00000  -0.02053  -0.02046   2.60937
   R15        2.02201   0.00881   0.00000   0.02257   0.02257   2.04457
   R16        2.54075   0.04326   0.00000   0.07647   0.07651   2.61726
   R17        1.88973   0.02930   0.00000   0.05918   0.05918   1.94890
    A1        2.19582   0.00735   0.00000   0.05672   0.05694   2.25276
    A2        2.19582  -0.01399   0.00000  -0.06303  -0.06281   2.13301
    A3        1.89154   0.00664   0.00000   0.00631   0.00587   1.89742
    A4        2.21605  -0.00496   0.00000  -0.02238  -0.02236   2.19369
    A5        1.85109   0.00466   0.00000   0.01525   0.01520   1.86629
    A6        2.21605   0.00030   0.00000   0.00713   0.00716   2.22320
    A7        2.26897   0.01784   0.00000   0.04787   0.04762   2.31659
    A8        1.87795  -0.00991   0.00000  -0.02541  -0.02499   1.85296
    A9        2.13627  -0.00792   0.00000  -0.02246  -0.02263   2.11364
   A10        2.05096   0.00061   0.00000   0.00798   0.00795   2.05891
   A11        2.11611  -0.00001   0.00000  -0.00233  -0.00231   2.11380
   A12        2.11611  -0.00060   0.00000  -0.00565  -0.00563   2.11048
   A13        2.09958   0.00206   0.00000  -0.00257  -0.00260   2.09697
   A14        2.09180  -0.00046   0.00000   0.00447   0.00448   2.09629
   A15        2.09181  -0.00160   0.00000  -0.00190  -0.00188   2.08992
   A16        2.10149   0.01149   0.00000   0.03486   0.03493   2.13642
   A17        2.09085  -0.00546   0.00000  -0.01584  -0.01588   2.07497
   A18        2.09085  -0.00603   0.00000  -0.01902  -0.01905   2.07180
   A19        2.05481  -0.00321   0.00000  -0.01240  -0.01223   2.04258
   A20        2.11419   0.00155   0.00000   0.00591   0.00582   2.12001
   A21        2.11419   0.00165   0.00000   0.00649   0.00641   2.12059
   A22        2.12327  -0.00303   0.00000  -0.00541  -0.00542   2.11784
   A23        1.90643  -0.00820   0.00000  -0.01934  -0.01907   1.88736
   A24        2.25349   0.01123   0.00000   0.02474   0.02449   2.27798
   A25        1.89776   0.00681   0.00000   0.02318   0.02299   1.92075
   A26        2.19271  -0.00661   0.00000  -0.02957  -0.02947   2.16324
   A27        2.19271  -0.00020   0.00000   0.00639   0.00648   2.19920
    D1        0.00000  -0.00000   0.00000  -0.00000  -0.00000   0.00000
    D2       -3.14159  -0.00000   0.00000  -0.00000  -0.00000  -3.14159
    D3        3.14159   0.00000   0.00000   0.00000   0.00000   3.14159
    D4       -0.00000  -0.00000   0.00000  -0.00000  -0.00000  -0.00000
    D5        3.14159   0.00000   0.00000   0.00000   0.00000   3.14159
    D6        0.00000  -0.00000   0.00000  -0.00000  -0.00000  -0.00000
    D7        0.00000   0.00000   0.00000   0.00000   0.00000   0.00000
    D8       -3.14159  -0.00000   0.00000  -0.00000  -0.00000  -3.14159
    D9        3.14159   0.00000   0.00000   0.00000   0.00000   3.14159
   D10        0.00000   0.00000   0.00000   0.00000   0.00000   0.00000
   D11       -0.00000   0.00000   0.00000   0.00000   0.00000  -0.00000
   D12       -3.14159  -0.00000   0.00000  -0.00000  -0.00000  -3.14159
   D13       -3.14159  -0.00000   0.00000  -0.00000  -0.00000  -3.14159
   D14        0.00000   0.00000   0.00000  -0.00000  -0.00000   0.00000
   D15       -0.00000   0.00000   0.00000   0.00000   0.00000  -0.00000
   D16        3.14159   0.00000   0.00000   0.00000   0.00000   3.14159
   D17        3.14159   0.00000   0.00000   0.00000   0.00000   3.14159
   D18       -0.00000  -0.00000   0.00000  -0.00000  -0.00000  -0.00000
   D19       -0.00000   0.00000   0.00000   0.00000   0.00000   0.00000
   D20       -3.14159  -0.00000   0.00000  -0.00000  -0.00000  -3.14159
   D21       -0.00000   0.00000   0.00000   0.00000   0.00000  -0.00000
   D22       -3.14159  -0.00000   0.00000  -0.00000  -0.00000   3.14159
   D23       -3.14159  -0.00000   0.00000  -0.00000  -0.00000  -3.14159
   D24        0.00000  -0.00000   0.00000  -0.00000  -0.00000   0.00000
   D25        0.00000  -0.00000   0.00000  -0.00000  -0.00000   0.00000
   D26       -3.14159  -0.00000   0.00000  -0.00000  -0.00000  -3.14159
   D27       -3.14159   0.00000   0.00000  -0.00000  -0.00000  -3.14159
   D28        0.00000  -0.00000   0.00000  -0.00000  -0.00000   0.00000
   D29       -0.00000   0.00000   0.00000   0.00000   0.00000  -0.00000
   D30        3.14159  -0.00000   0.00000  -0.00000  -0.00000   3.14159
   D31        3.14159   0.00000   0.00000   0.00000   0.00000   3.14159
   D32       -0.00000   0.00000   0.00000   0.00000   0.00000  -0.00000
   D33        0.00000  -0.00000   0.00000  -0.00000  -0.00000   0.00000
   D34        3.14159   0.00000   0.00000   0.00000   0.00000   3.14159
   D35        3.14159   0.00000   0.00000   0.00000   0.00000  -3.14159
   D36       -0.00000   0.00000   0.00000   0.00000   0.00000  -0.00000
   D37        0.00000  -0.00000   0.00000  -0.00000  -0.00000   0.00000
   D38        3.14159   0.00000   0.00000   0.00000   0.00000   3.14159
   D39       -3.14159  -0.00000   0.00000  -0.00000  -0.00000  -3.14159
   D40        0.00000   0.00000   0.00000   0.00000   0.00000   0.00000
         Item               Value     Threshold  Converged?
 Maximum Force            0.043258     0.000450     NO 
 RMS     Force            0.009793     0.000300     NO 
 Maximum Displacement     0.143070     0.001800     NO 
 RMS     Displacement     0.037356     0.001200     NO 
 Predicted change in Energy=-9.477000D-03
 GradGradGradGradGradGradGradGradGradGradGradGradGradGradGradGradGradGrad

                          Input orientation:                          
 ---------------------------------------------------------------------
 Center     Atomic      Atomic             Coordinates (Angstroms)
 Number     Number       Type             X           Y           Z
 ---------------------------------------------------------------------
      1          6           0       -1.365670    2.088604    1.397690
      2          1           0       -2.288138    2.013854    1.955894
      3          6           0       -0.023329    2.003873    1.866365
      4          1           0        0.277904    1.845556    2.893678
      5          6           0        0.816965    2.165243    0.740409
      6          6           0        2.218532    2.174039    0.585902
      7          6           0        2.733487    2.362179   -0.694890
      8          6           0        1.868651    2.535364   -1.781910
      9          6           0        0.461835    2.528473   -1.639654
     10          6           0       -0.039283    2.341367   -0.366654
     11          1           0        2.877105    2.038619    1.437110
     12          1           0        3.805998    2.374999   -0.853426
     13          1           0        2.291461    2.680197   -2.769703
     14          1           0       -0.192549    2.663809   -2.490573
     15          7           0       -1.346867    2.286471    0.086579
     16          1           0       -2.194126    2.382891   -0.493478
 ---------------------------------------------------------------------
                    Distance matrix (angstroms):
                    1          2          3          4          5
     1  C    0.000000
     2  H    1.080799   0.000000
     3  C    1.424329   2.266600   0.000000
     4  H    2.235707   2.737213   1.082210   0.000000
     5  C    2.280743   3.337962   1.414182   2.242622   0.000000
     6  C    3.675977   4.713027   2.587370   3.033113   1.410085
     7  C    4.610513   5.688999   3.780007   4.378883   2.402483
     8  C    4.557443   5.614451   4.143909   4.986727   2.757740
     9  C    3.571936   4.555783   3.578095   4.588171   2.433671
    10  C    2.221734   3.249438   2.258436   3.313036   1.410592
    11  H    4.243253   5.191290   2.932233   2.985752   2.178441
    12  H    5.647628   6.720209   4.711555   5.173834   3.393911
    13  H    5.575999   6.614229   5.225782   6.068355   3.841901
    14  H    4.101910   4.958327   4.409882   5.466354   3.421539
    15  N    1.326091   2.110605   2.235901   3.273239   2.263705
    16  H    2.085536   2.478801   3.228757   4.227587   3.261368
                    6          7          8          9         10
     6  C    0.000000
     7  C    1.393199   0.000000
     8  C    2.420642   1.399838   0.000000
     9  C    2.857396   2.465894   1.414007   0.000000
    10  C    2.456236   2.792208   2.383442   1.380818   0.000000
    11  H    1.084717   2.161190   3.409666   3.942076   3.442462
    12  H    2.152231   1.084241   2.154324   3.438769   3.876115
    13  H    3.394349   2.145081   1.084196   2.155820   3.364791
    14  H    3.939275   3.446323   2.183403   1.081941   2.153715
    15  N    3.601949   4.155203   3.727299   2.511941   1.384994
    16  H    4.547553   4.931771   4.264911   2.896385   2.158971
                   11         12         13         14         15
    11  H    0.000000
    12  H    2.494504   0.000000
    13  H    4.295565   2.461521   0.000000
    14  H    5.023975   4.330363   2.499698   0.000000
    15  N    4.441543   5.238651   4.642284   2.848955   0.000000
    16  H    5.437194   6.010917   5.038857   2.841410   1.031315
                   16
    16  H    0.000000
 Stoichiometry    C8H7N
 Framework group  C1[X(C8H7N)]
 Deg. of freedom    42
 Full point group                 C1      NOp   1
 Largest Abelian subgroup         C1      NOp   1
 Largest concise Abelian subgroup C1      NOp   1
                         Standard orientation:                         
 ---------------------------------------------------------------------
 Center     Atomic      Atomic             Coordinates (Angstroms)
 Number     Number       Type             X           Y           Z
 ---------------------------------------------------------------------
      1          6           0        2.383599    0.051100    0.000000
      2          1           0        3.462719   -0.009132    0.000003
      3          6           0        1.548840    1.205176    0.000000
      4          1           0        1.891014    2.231868    0.000001
      5          6           0        0.211288    0.745976   -0.000001
      6          6           0       -1.030013    1.414940   -0.000001
      7          6           0       -2.188931    0.641691    0.000001
      8          6           0       -2.101909   -0.755439    0.000000
      9          6           0       -0.863327   -1.437590   -0.000000
     10          6           0        0.279738   -0.662954   -0.000001
     11          1           0       -1.082820    2.498371    0.000001
     12          1           0       -3.161946    1.120043    0.000001
     13          1           0       -3.016808   -1.337195    0.000000
     14          1           0       -0.813798   -2.518397    0.000001
     15          7           0        1.615283   -1.029737   -0.000000
     16          1           0        1.978953   -1.994804    0.000001
 ---------------------------------------------------------------------
 Rotational constants (GHZ):           3.8978852           1.6414136           1.1550274
 Standard basis: 6-31+G(d) (6D, 7F)
 There are   185 symmetry adapted cartesian basis functions of A   symmetry.
 There are   185 symmetry adapted basis functions of A   symmetry.
   185 basis functions,   316 primitive gaussians,   185 cartesian basis functions
    31 alpha electrons       31 beta electrons
       nuclear repulsion energy       400.9030969960 Hartrees.
 NAtoms=   16 NActive=   16 NUniq=   16 SFac= 1.00D+00 NAtFMM=   60 NAOKFM=F Big=F
 Integral buffers will be    131072 words long.
 Regular integral format.
 Two-electron integral symmetry is turned on.
 One-electron integrals computed using PRISM.
 NBasis=   185 RedAO= T EigKep=  1.25D-06  NBF=   185
 NBsUse=   185 1.00D-06 EigRej= -1.00D+00 NBFU=   185
 Initial guess from the checkpoint file:  "/scratch/gfoley1/16945505/Gau-3473.chk"
 B after Tr=     0.000000   -0.000000    0.000000
         Rot=    0.999966   -0.000000   -0.000000   -0.008290 Ang=  -0.95 deg.
 ExpMin= 4.38D-02 ExpMax= 4.17D+03 ExpMxC= 6.27D+02 IAcc=3 IRadAn=         5 AccDes= 0.00D+00
 Harris functional with IExCor= 1009 and IRadAn=       5 diagonalized for initial guess.
 HarFok:  IExCor= 1009 AccDes= 0.00D+00 IRadAn=         5 IDoV= 1 UseB2=F ITyADJ=14
 ICtDFT=  3500011 ScaDFX=  1.000000  1.000000  1.000000  1.000000
 FoFCou: FMM=F IPFlag=           0 FMFlag=      100000 FMFlg1=           0
         NFxFlg=           0 DoJE=T BraDBF=F KetDBF=T FulRan=T
         wScrn=  0.000000 ICntrl=       500 IOpCl=  0 I1Cent=   200000004 NGrid=           0
         NMat0=    1 NMatS0=      1 NMatT0=    0 NMatD0=    1 NMtDS0=    0 NMtDT0=    0
 Petite list used in FoFCou.
 Requested convergence on RMS density matrix=1.00D-08 within 128 cycles.
 Requested convergence on MAX density matrix=1.00D-06.
 Requested convergence on             energy=1.00D-06.
 No special actions if energy rises.
 SCF Done:  E(RM062X) =  -363.664544997     A.U. after   14 cycles
            NFock= 14  Conv=0.81D-08     -V/T= 2.0088
 DoSCS=F DFT=T ScalE2(SS,OS)=  1.000000  1.000000
 ExpMin= 4.38D-02 ExpMax= 4.17D+03 ExpMxC= 6.27D+02 IAcc=3 IRadAn=         5 AccDes= 0.00D+00
 HarFok:  IExCor=  205 AccDes= 0.00D+00 IRadAn=         5 IDoV=-2 UseB2=F ITyADJ=14
 ICtDFT= 12500011 ScaDFX=  1.000000  1.000000  1.000000  1.000000
 Range of M.O.s used for correlation:    10   185
 NBasis=   185 NAE=    31 NBE=    31 NFC=     9 NFV=     0
 NROrb=    176 NOA=    22 NOB=    22 NVA=   154 NVB=   154

 **** Warning!!: The largest alpha MO coefficient is  0.19056024D+03

 Orbital symmetries:
       Occupied  (A) (A) (A) (A) (A) (A) (A) (A) (A) (A) (A) (A)
                 (A) (A) (A) (A) (A) (A) (A) (A) (A) (A) (A) (A)
                 (A) (A) (A) (A) (A) (A) (A)
       Virtual   (A) (A) (A) (A) (A) (A) (A) (A) (A) (A) (A) (A)
                 (A) (A) (A) (A) (A) (A) (A) (A) (A) (A) (A) (A)
                 (A) (A) (A) (A) (A) (A) (A) (A) (A) (A) (A) (A)
                 (A) (A) (A) (A) (A) (A) (A) (A) (A) (A) (A) (A)
                 (A) (A) (A) (A) (A) (A) (A) (A) (A) (A) (A) (A)
                 (A) (A) (A) (A) (A) (A) (A) (A) (A) (A) (A) (A)
                 (A) (A) (A) (A) (A) (A) (A) (A) (A) (A) (A) (A)
                 (A) (A) (A) (A) (A) (A) (A) (A) (A) (A) (A) (A)
                 (A) (A) (A) (A) (A) (A) (A) (A) (A) (A) (A) (A)
                 (A) (A) (A) (A) (A) (A) (A) (A) (A) (A) (A) (A)
                 (A) (A) (A) (A) (A) (A) (A) (A) (A) (A) (A) (A)
                 (A) (A) (A) (A) (A) (A) (A) (A) (A) (A) (A) (A)
                 (A) (A) (A) (A) (A) (A) (A) (A) (A) (A)
 Generating guess from densities on rwf.
 Convergence on wavefunction:    0.000001000000000
 Iteration     1 Dimension     6 NMult     0 NNew      6
 CISAX will form     6 AO SS matrices at one time.
 New state      2 was old state      3
 New state      3 was old state      2
 Iteration     2 Dimension    12 NMult     6 NNew      6
 New state      2 was old state      3
 New state      3 was old state      2
 Iteration     3 Dimension    18 NMult    12 NNew      6
 Iteration     4 Dimension    24 NMult    18 NNew      6
 Iteration     5 Dimension    30 NMult    24 NNew      6
 Iteration     6 Dimension    36 NMult    30 NNew      6
 Iteration     7 Dimension    42 NMult    36 NNew      6
 Iteration     8 Dimension    48 NMult    42 NNew      6
 Iteration     9 Dimension    54 NMult    48 NNew      6
 Iteration    10 Dimension    60 NMult    54 NNew      6
 Iteration    11 Dimension    64 NMult    60 NNew      4
 Iteration    12 Dimension    66 NMult    64 NNew      2
 ***********************************************************************
 Excited states from <AA,BB:AA,BB> singles matrix:
 ***********************************************************************
 
 Ground to excited state transition densities written to RWF  633
 Ground to excited state transition electric dipole moments (Au):
       state          X           Y           Z        Dip. S.      Osc.
         1        -0.9553      0.6387     -0.0000      1.3206      0.1535
         2         0.0000     -0.0000     -0.1326      0.0176      0.0020
         3        -0.0232     -0.2175      0.0000      0.0479      0.0060
 Ground to excited state transition velocity dipole moments (Au):
       state          X           Y           Z        Dip. S.      Osc.
         1         0.1604     -0.1261      0.0000      0.0416      0.1592
         2        -0.0000      0.0000      0.0158      0.0003      0.0010
         3         0.0035      0.0450     -0.0000      0.0020      0.0072
 Ground to excited state transition magnetic dipole moments (Au):
       state          X           Y           Z
         1         0.0000     -0.0000      0.2202
         2         0.1704     -0.1033      0.0000
         3        -0.0000      0.0000      0.0859
 Ground to excited state transition velocity quadrupole moments (Au):
       state          XX          YY          ZZ          XY          XZ          YZ
         1         0.2164     -0.1655      0.0222      0.0614      0.0000      0.0000
         2        -0.0000      0.0000      0.0000     -0.0000      0.0730      0.0695
         3        -0.0621     -0.0415      0.0165      0.0304     -0.0000     -0.0000
 <0|del|b> * <b|rxdel|0> + <0|del|b> * <b|delr+rdel|0>
 Rotatory Strengths (R) in cgs (10**-40 erg-esu-cm/Gauss)
       state          XX          YY          ZZ    R(velocity)    E-M Angle
         1         0.0001      0.0007      0.0004      0.0004       90.00
         2        -0.0001     -0.0002     -0.0001     -0.0002       90.00
         3         0.0000     -0.0000      0.0000      0.0000       90.00
 1/2[<0|r|b>*<b|rxdel|0> + (<0|rxdel|b>*<b|r|0>)*]
 Rotatory Strengths (R) in cgs (10**-40 erg-esu-cm/Gauss)
       state          XX          YY          ZZ     R(length)
         1         0.0010      0.0001      0.0001      0.0004
         2        -0.0003     -0.0001      0.0000     -0.0001
         3        -0.0000      0.0000     -0.0000      0.0000
  1/2[<0|del|b>*<b|r|0> + (<0|r|b>*<b|del|0>)*] (Au)
       state          X           Y           Z        Dip. S.   Osc.(frdel)
         1        -0.1533     -0.0805     -0.0000      0.2338      0.1559
         2        -0.0000     -0.0000     -0.0021      0.0021      0.0014
         3        -0.0001     -0.0098     -0.0000      0.0099      0.0066

 Excitation energies and oscillator strengths:
 
 Excited State   1:      Singlet-A      4.7441 eV  261.35 nm  f=0.1535  <S**2>=0.000
      30 -> 38         0.11621
      31 -> 33         0.68565
 
 Excited State   2:      Singlet-A      4.7586 eV  260.55 nm  f=0.0020  <S**2>=0.000
      31 -> 32         0.69484
 This state for optimization and/or second-order correction.
 Total Energy, E(TD-HF/TD-DFT) =  -363.489669566    
 Copying the excited state density for this state as the 1-particle RhoCI density.
 
 Excited State   3:      Singlet-A      5.1250 eV  241.92 nm  f=0.0060  <S**2>=0.000
      30 -> 33         0.52967
      31 -> 38        -0.43231
 SavETr:  write IOETrn=   770 NScale= 10 NData=  16 NLR=1 NState=    3 LETran=      64.
          IDoAtm=1111111111111111
          Differentiating once with respect to electric field.
                with respect to dipole field.
          Differentiating once with respect to nuclear coordinates.
          There are     1 degrees of freedom in the 1st order CPHF.  IDoFFX=0 NUNeed=     1.
 LinEq1:  Iter=  0 NonCon=     1 RMS=1.13D-02 Max=1.80D-01 NDo=     1
 AX will form     1 AO Fock derivatives at one time.
 LinEq1:  Iter=  1 NonCon=     1 RMS=5.08D-03 Max=1.13D-01 NDo=     1
 LinEq1:  Iter=  2 NonCon=     1 RMS=2.99D-03 Max=7.39D-02 NDo=     1
 LinEq1:  Iter=  3 NonCon=     1 RMS=1.11D-03 Max=2.41D-02 NDo=     1
 LinEq1:  Iter=  4 NonCon=     1 RMS=6.37D-04 Max=1.53D-02 NDo=     1
 LinEq1:  Iter=  5 NonCon=     1 RMS=2.55D-04 Max=5.13D-03 NDo=     1
 LinEq1:  Iter=  6 NonCon=     1 RMS=1.57D-04 Max=4.00D-03 NDo=     1
 LinEq1:  Iter=  7 NonCon=     1 RMS=5.51D-05 Max=1.36D-03 NDo=     1
 LinEq1:  Iter=  8 NonCon=     1 RMS=1.60D-05 Max=2.84D-04 NDo=     1
 LinEq1:  Iter=  9 NonCon=     1 RMS=1.07D-05 Max=2.89D-04 NDo=     1
 LinEq1:  Iter= 10 NonCon=     1 RMS=3.41D-06 Max=7.74D-05 NDo=     1
 LinEq1:  Iter= 11 NonCon=     1 RMS=1.93D-06 Max=5.82D-05 NDo=     1
 LinEq1:  Iter= 12 NonCon=     1 RMS=7.66D-07 Max=1.93D-05 NDo=     1
 LinEq1:  Iter= 13 NonCon=     1 RMS=3.59D-07 Max=1.14D-05 NDo=     1
 LinEq1:  Iter= 14 NonCon=     1 RMS=1.84D-07 Max=4.76D-06 NDo=     1
 LinEq1:  Iter= 15 NonCon=     1 RMS=4.89D-08 Max=8.23D-07 NDo=     1
 LinEq1:  Iter= 16 NonCon=     1 RMS=2.37D-08 Max=3.92D-07 NDo=     1
 LinEq1:  Iter= 17 NonCon=     1 RMS=8.91D-09 Max=1.57D-07 NDo=     1
 LinEq1:  Iter= 18 NonCon=     1 RMS=1.62D-09 Max=2.19D-08 NDo=     1
 LinEq1:  Iter= 19 NonCon=     1 RMS=3.28D-10 Max=3.20D-09 NDo=     1
 LinEq1:  Iter= 20 NonCon=     1 RMS=1.12D-10 Max=1.71D-09 NDo=     1
 LinEq1:  Iter= 21 NonCon=     0 RMS=4.92D-11 Max=6.22D-10 NDo=     1
 Linear equations converged to 1.000D-10 1.000D-09 after    21 iterations.
 End of Minotr F.D. properties file   721 does not exist.
 End of Minotr F.D. properties file   722 does not exist.
 End of Minotr F.D. properties file   788 does not exist.
 Calling FoFJK, ICntrl=  10005127 FMM=F ISym2X=0 I1Cent= 0 IOpClX= 0 NMat=1 NMatS=1 NMatT=0.
 ***** Axes restored to original set *****
 -------------------------------------------------------------------
 Center     Atomic                   Forces (Hartrees/Bohr)
 Number     Number              X              Y              Z
 -------------------------------------------------------------------
      1        6           0.003627618    0.001694086   -0.011462582
      2        1          -0.003024371    0.000320140   -0.001911849
      3        6           0.005952144    0.000050396   -0.000743688
      4        1          -0.000901863   -0.000046043    0.000366904
      5        6          -0.000095612   -0.002036837    0.013490573
      6        6           0.000643634    0.000692905   -0.004630261
      7        6          -0.002371225   -0.000325481    0.002316880
      8        6          -0.001023786   -0.000192158    0.001342078
      9        6          -0.001661998   -0.000276519    0.001944198
     10        6           0.008415332    0.002247511   -0.015455269
     11        1          -0.000627477   -0.000102764    0.000722935
     12        1           0.000064418    0.000015799   -0.000108964
     13        1          -0.000471786    0.000146280   -0.000935606
     14        1           0.000584284    0.000047161   -0.000352393
     15        7          -0.002730323   -0.002823692    0.018879432
     16        1          -0.006378988    0.000589215   -0.003462388
 -------------------------------------------------------------------
 Cartesian Forces:  Max     0.018879432 RMS     0.004933937

 GradGradGradGradGradGradGradGradGradGradGradGradGradGradGradGradGradGrad
 Berny optimization.
 Using GEDIIS/GDIIS optimizer.
 FormGI is forming the generalized inverse of G from B-inverse, IUseBI=4.
 Internal  Forces:  Max     0.011207906 RMS     0.002298090
 Search for a local minimum.
 Step number   2 out of a maximum of   94
 All quantities printed in internal units (Hartrees-Bohrs-Radians)
 Mixed Optimization -- RFO/linear search
 Update second derivatives using D2CorX and points    1    2
 DE= -1.04D-02 DEPred=-9.48D-03 R= 1.10D+00
 TightC=F SS=  1.41D+00  RLast= 2.13D-01 DXNew= 5.0454D-01 6.3819D-01
 Trust test= 1.10D+00 RLast= 2.13D-01 DXMaxT set to 5.05D-01
 ITU=  1  0
 Use linear search instead of GDIIS.
     Eigenvalues ---    0.01860   0.01895   0.01901   0.02068   0.02078
     Eigenvalues ---    0.02085   0.02126   0.02192   0.02211   0.02275
     Eigenvalues ---    0.02322   0.02357   0.02381   0.15311   0.16000
     Eigenvalues ---    0.16000   0.16000   0.16000   0.16000   0.16060
     Eigenvalues ---    0.22011   0.22385   0.22821   0.23731   0.24565
     Eigenvalues ---    0.36298   0.37230   0.37230   0.37230   0.37230
     Eigenvalues ---    0.37456   0.37638   0.40906   0.42084   0.42511
     Eigenvalues ---    0.43899   0.44875   0.46210   0.46998   0.48079
     Eigenvalues ---    0.52583   0.55328
 RFO step:  Lambda=-9.42810283D-04 EMin= 1.86031441D-02
 Quartic linear search produced a step of  0.20331.
 Iteration  1 RMS(Cart)=  0.01082635 RMS(Int)=  0.00012124
 Iteration  2 RMS(Cart)=  0.00013536 RMS(Int)=  0.00002656
 Iteration  3 RMS(Cart)=  0.00000001 RMS(Int)=  0.00002656
 Variable       Old X    -DE/DX   Delta X   Delta X   Delta X     New X
                                 (Linear)    (Quad)   (Total)
    R1        2.04241   0.00157   0.00415   0.00199   0.00614   2.04856
    R2        2.69159   0.00315   0.00790   0.00020   0.00805   2.69964
    R3        2.50595  -0.01121  -0.01000  -0.01898  -0.02905   2.47690
    R4        2.04508   0.00011   0.00469  -0.00313   0.00156   2.04664
    R5        2.67242  -0.00371   0.00998  -0.01607  -0.00606   2.66636
    R6        2.66468  -0.00140   0.00756  -0.00863  -0.00105   2.66362
    R7        2.66563   0.00699   0.01487   0.00891   0.02387   2.68950
    R8        2.63277  -0.00182  -0.00672  -0.00048  -0.00720   2.62556
    R9        2.04982   0.00020   0.00565  -0.00355   0.00210   2.05192
   R10        2.64531   0.00039  -0.00812   0.00603  -0.00210   2.64321
   R11        2.04892   0.00008   0.00547  -0.00380   0.00168   2.05059
   R12        2.67209  -0.00221   0.00082  -0.00725  -0.00645   2.66564
   R13        2.04883   0.00069   0.00545  -0.00182   0.00363   2.05247
   R14        2.60937  -0.00392  -0.00416  -0.00642  -0.01057   2.59879
   R15        2.04457  -0.00007   0.00459  -0.00362   0.00097   2.04554
   R16        2.61726   0.00711   0.01556   0.00441   0.01998   2.63724
   R17        1.94890   0.00724   0.01203   0.00930   0.02133   1.97023
    A1        2.25276   0.00131   0.01158   0.00913   0.02075   2.27351
    A2        2.13301  -0.00528  -0.01277  -0.02239  -0.03511   2.09790
    A3        1.89742   0.00397   0.00119   0.01327   0.01436   1.91178
    A4        2.19369  -0.00031  -0.00455   0.00080  -0.00374   2.18995
    A5        1.86629  -0.00136   0.00309  -0.01200  -0.00892   1.85737
    A6        2.22320   0.00167   0.00146   0.01120   0.01266   2.23586
    A7        2.31659   0.00276   0.00968   0.00102   0.01062   2.32721
    A8        1.85296   0.00087  -0.00508   0.01225   0.00726   1.86021
    A9        2.11364  -0.00363  -0.00460  -0.01327  -0.01787   2.09577
   A10        2.05891   0.00018   0.00162   0.00118   0.00283   2.06174
   A11        2.11380  -0.00105  -0.00047  -0.00803  -0.00851   2.10528
   A12        2.11048   0.00087  -0.00115   0.00685   0.00568   2.11616
   A13        2.09697   0.00161  -0.00053   0.00720   0.00667   2.10364
   A14        2.09629  -0.00070   0.00091  -0.00328  -0.00236   2.09393
   A15        2.08992  -0.00091  -0.00038  -0.00392  -0.00430   2.08562
   A16        2.13642   0.00038   0.00710  -0.00525   0.00184   2.13826
   A17        2.07497   0.00064  -0.00323   0.00858   0.00535   2.08032
   A18        2.07180  -0.00102  -0.00387  -0.00333  -0.00720   2.06460
   A19        2.04258  -0.00157  -0.00249  -0.00566  -0.00815   2.03444
   A20        2.12001   0.00009   0.00118  -0.00230  -0.00112   2.11889
   A21        2.12059   0.00148   0.00130   0.00796   0.00926   2.12986
   A22        2.11784   0.00303  -0.00110   0.01580   0.01468   2.13253
   A23        1.88736  -0.00421  -0.00388  -0.01263  -0.01644   1.87092
   A24        2.27798   0.00118   0.00498  -0.00316   0.00176   2.27974
   A25        1.92075   0.00073   0.00467  -0.00088   0.00375   1.92449
   A26        2.16324  -0.00110  -0.00599  -0.00240  -0.00837   2.15487
   A27        2.19920   0.00037   0.00132   0.00328   0.00462   2.20382
    D1        0.00000  -0.00000  -0.00000  -0.00000  -0.00000  -0.00000
    D2       -3.14159  -0.00000  -0.00000  -0.00000  -0.00000   3.14159
    D3        3.14159   0.00000   0.00000   0.00000   0.00000  -3.14159
    D4       -0.00000   0.00000  -0.00000   0.00000   0.00000   0.00000
    D5        3.14159   0.00000   0.00000   0.00000   0.00000  -3.14159
    D6       -0.00000   0.00000  -0.00000   0.00000   0.00000  -0.00000
    D7        0.00000  -0.00000   0.00000  -0.00000  -0.00000  -0.00000
    D8       -3.14159  -0.00000  -0.00000  -0.00000  -0.00000   3.14159
    D9        3.14159   0.00000   0.00000   0.00000   0.00000   3.14159
   D10        0.00000  -0.00000   0.00000  -0.00000  -0.00000  -0.00000
   D11       -0.00000   0.00000   0.00000   0.00000   0.00000  -0.00000
   D12       -3.14159  -0.00000  -0.00000  -0.00000  -0.00000   3.14159
   D13       -3.14159  -0.00000  -0.00000  -0.00000  -0.00000  -3.14159
   D14        0.00000  -0.00000  -0.00000  -0.00000  -0.00000   0.00000
   D15       -0.00000  -0.00000   0.00000  -0.00000  -0.00000  -0.00000
   D16        3.14159   0.00000   0.00000   0.00000   0.00000  -3.14159
   D17        3.14159   0.00000   0.00000   0.00000   0.00000   3.14159
   D18       -0.00000   0.00000  -0.00000   0.00000   0.00000   0.00000
   D19        0.00000   0.00000   0.00000   0.00000   0.00000   0.00000
   D20       -3.14159  -0.00000  -0.00000  -0.00000  -0.00000  -3.14159
   D21       -0.00000   0.00000   0.00000   0.00000   0.00000   0.00000
   D22        3.14159   0.00000  -0.00000   0.00000   0.00000  -3.14159
   D23       -3.14159  -0.00000  -0.00000  -0.00000  -0.00000   3.14159
   D24        0.00000  -0.00000  -0.00000  -0.00000  -0.00000  -0.00000
   D25        0.00000  -0.00000  -0.00000  -0.00000  -0.00000  -0.00000
   D26       -3.14159  -0.00000  -0.00000  -0.00000  -0.00000   3.14159
   D27       -3.14159  -0.00000  -0.00000  -0.00000  -0.00000  -3.14159
   D28        0.00000  -0.00000  -0.00000  -0.00000  -0.00000  -0.00000
   D29       -0.00000   0.00000   0.00000   0.00000   0.00000   0.00000
   D30        3.14159   0.00000  -0.00000   0.00000   0.00000   3.14159
   D31        3.14159   0.00000   0.00000   0.00000   0.00000  -3.14159
   D32       -0.00000   0.00000   0.00000   0.00000   0.00000  -0.00000
   D33        0.00000  -0.00000  -0.00000  -0.00000  -0.00000  -0.00000
   D34        3.14159   0.00000   0.00000   0.00000   0.00000   3.14159
   D35       -3.14159  -0.00000   0.00000  -0.00000  -0.00000  -3.14159
   D36       -0.00000   0.00000   0.00000   0.00000   0.00000   0.00000
   D37        0.00000   0.00000  -0.00000   0.00000   0.00000   0.00000
   D38        3.14159   0.00000   0.00000   0.00000   0.00000  -3.14159
   D39       -3.14159  -0.00000  -0.00000  -0.00000  -0.00000  -3.14159
   D40        0.00000  -0.00000   0.00000  -0.00000  -0.00000   0.00000
         Item               Value     Threshold  Converged?
 Maximum Force            0.011208     0.000450     NO 
 RMS     Force            0.002298     0.000300     NO 
 Maximum Displacement     0.062611     0.001800     NO 
 RMS     Displacement     0.010851     0.001200     NO 
 Predicted change in Energy=-7.367417D-04
 GradGradGradGradGradGradGradGradGradGradGradGradGradGradGradGradGradGrad

                          Input orientation:                          
 ---------------------------------------------------------------------
 Center     Atomic      Atomic             Coordinates (Angstroms)
 Number     Number       Type             X           Y           Z
 ---------------------------------------------------------------------
      1          6           0       -1.356932    2.089445    1.391524
      2          1           0       -2.299261    2.018973    1.922762
      3          6           0       -0.015565    2.002444    1.875288
      4          1           0        0.271274    1.843538    2.907487
      5          6           0        0.824382    2.163262    0.753022
      6          6           0        2.223913    2.174004    0.585776
      7          6           0        2.729165    2.362200   -0.694734
      8          6           0        1.865290    2.535277   -1.781104
      9          6           0        0.461575    2.528845   -1.642093
     10          6           0       -0.029743    2.341971   -0.371298
     11          1           0        2.883793    2.038508    1.437379
     12          1           0        3.801900    2.375686   -0.857700
     13          1           0        2.283740    2.680740   -2.772767
     14          1           0       -0.190350    2.664529   -2.495491
     15          7           0       -1.343675    2.285082    0.095553
     16          1           0       -2.207530    2.381032   -0.480264
 ---------------------------------------------------------------------
                    Distance matrix (angstroms):
                    1          2          3          4          5
     1  C    0.000000
     2  H    1.084049   0.000000
     3  C    1.428588   2.284249   0.000000
     4  H    2.238230   2.758280   1.083034   0.000000
     5  C    2.274042   3.338601   1.410977   2.247193   0.000000
     6  C    3.671353   4.719181   2.589891   3.051615   1.409529
     7  C    4.595983   5.679274   3.777298   4.391610   2.400785
     8  C    4.543903   5.597203   4.146171   5.000228   2.764720
     9  C    3.564109   4.537662   3.588417   4.604839   2.449869
    10  C    2.220978   3.243109   2.272143   3.330088   1.423222
    11  H    4.241279   5.205769   2.932464   3.004079   2.173725
    12  H    5.635113   6.714341   4.709732   5.188944   3.391926
    13  H    5.562863   6.594681   5.229848   6.084095   3.850804
    14  H    4.098843   4.938137   4.424095   5.484459   3.440027
    15  N    1.310721   2.079098   2.238575   3.272613   2.268828
    16  H    2.076567   2.431879   3.239857   4.232048   3.280383
                    6          7          8          9         10
     6  C    0.000000
     7  C    1.389389   0.000000
     8  C    2.421002   1.398727   0.000000
     9  C    2.862717   2.463173   1.410596   0.000000
    10  C    2.454214   2.777875   2.369825   1.375222   0.000000
    11  H    1.085831   2.162080   3.412149   3.948508   3.442687
    12  H    2.148102   1.085127   2.151419   3.434603   3.862539
    13  H    3.397083   2.148975   1.086119   2.149832   3.351718
    14  H    3.945058   3.443501   2.180071   1.082453   2.154537
    15  N    3.602824   4.149521   3.725842   2.517492   1.395567
    16  H    4.562564   4.941388   4.278299   2.914759   2.180862
                   11         12         13         14         15
    11  H    0.000000
    12  H    2.494794   0.000000
    13  H    4.300913   2.462793   0.000000
    14  H    5.030877   4.324795   2.489632   0.000000
    15  N    4.442160   5.233913   4.641330   2.861406   0.000000
    16  H    5.451262   6.021274   5.051426   2.865401   1.042602
                   16
    16  H    0.000000
 Stoichiometry    C8H7N
 Framework group  C1[X(C8H7N)]
 Deg. of freedom    42
 Full point group                 C1      NOp   1
 Largest Abelian subgroup         C1      NOp   1
 Largest concise Abelian subgroup C1      NOp   1
                         Standard orientation:                         
 ---------------------------------------------------------------------
 Center     Atomic      Atomic             Coordinates (Angstroms)
 Number     Number       Type             X           Y           Z
 ---------------------------------------------------------------------
      1          6           0        2.374344    0.043345    0.000001
      2          1           0        3.454125   -0.052760    0.000001
      3          6           0        1.551343    1.211050   -0.000000
      4          1           0        1.910167    2.232914   -0.000001
      5          6           0        0.215300    0.757347   -0.000000
      6          6           0       -1.030347    1.416994    0.000000
      7          6           0       -2.182650    0.640722    0.000000
      8          6           0       -2.098789   -0.755489    0.000000
      9          6           0       -0.865964   -1.440999   -0.000000
     10          6           0        0.269302   -0.664851   -0.000000
     11          1           0       -1.081871    2.501602   -0.000000
     12          1           0       -3.157459    1.117429    0.000000
     13          1           0       -3.013476   -1.341152    0.000000
     14          1           0       -0.822005   -2.522559    0.000000
     15          7           0        1.617180   -1.026557   -0.000000
     16          1           0        1.995024   -1.998283   -0.000001
 ---------------------------------------------------------------------
 Rotational constants (GHZ):           3.8816439           1.6455861           1.1556565
 Standard basis: 6-31+G(d) (6D, 7F)
 There are   185 symmetry adapted cartesian basis functions of A   symmetry.
 There are   185 symmetry adapted basis functions of A   symmetry.
   185 basis functions,   316 primitive gaussians,   185 cartesian basis functions
    31 alpha electrons       31 beta electrons
       nuclear repulsion energy       400.8761363945 Hartrees.
[...]
 ! D7    D(3,1,15,10)           -0.0001         -DE/DX =    0.0                 !
 ! D8    D(3,1,15,16)         -180.0001         -DE/DX =    0.0                 !
 ! D9    D(1,3,5,6)           -180.0            -DE/DX =    0.0                 !
 ! D10   D(1,3,5,10)             0.0            -DE/DX =    0.0                 !
 ! D11   D(4,3,5,6)              0.0            -DE/DX =    0.0                 !
 ! D12   D(4,3,5,10)          -180.0            -DE/DX =    0.0                 !
 ! D13   D(3,5,6,7)           -180.0            -DE/DX =    0.0                 !
 ! D14   D(3,5,6,11)             0.0            -DE/DX =    0.0                 !
 ! D15   D(10,5,6,7)             0.0            -DE/DX =    0.0                 !
 ! D16   D(10,5,6,11)          180.0            -DE/DX =    0.0                 !
 ! D17   D(3,5,10,9)           180.0            -DE/DX =    0.0                 !
 ! D18   D(3,5,10,15)            0.0            -DE/DX =    0.0                 !
 ! D19   D(6,5,10,9)             0.0            -DE/DX =    0.0                 !
 ! D20   D(6,5,10,15)         -180.0            -DE/DX =    0.0                 !
 ! D21   D(5,6,7,8)              0.0            -DE/DX =    0.0                 !
 ! D22   D(5,6,7,12)           180.0            -DE/DX =    0.0                 !
 ! D23   D(11,6,7,8)           180.0            -DE/DX =    0.0                 !
 ! D24   D(11,6,7,12)            0.0            -DE/DX =    0.0                 !
 ! D25   D(6,7,8,9)              0.0            -DE/DX =    0.0                 !
 ! D26   D(6,7,8,13)          -180.0            -DE/DX =    0.0                 !
 ! D27   D(12,7,8,9)          -180.0            -DE/DX =    0.0                 !
 ! D28   D(12,7,8,13)            0.0            -DE/DX =    0.0                 !
 ! D29   D(7,8,9,10)             0.0            -DE/DX =    0.0                 !
 ! D30   D(7,8,9,14)           180.0            -DE/DX =    0.0                 !
 ! D31   D(13,8,9,10)          180.0            -DE/DX =    0.0                 !
 ! D32   D(13,8,9,14)            0.0            -DE/DX =    0.0                 !
 ! D33   D(8,9,10,5)             0.0            -DE/DX =    0.0                 !
 ! D34   D(8,9,10,15)          180.0            -DE/DX =    0.0                 !
 ! D35   D(14,9,10,5)         -180.0            -DE/DX =    0.0                 !
 ! D36   D(14,9,10,15)           0.0            -DE/DX =    0.0                 !
 ! D37   D(5,10,15,1)            0.0            -DE/DX =    0.0                 !
 ! D38   D(5,10,15,16)         180.0            -DE/DX =    0.0                 !
 ! D39   D(9,10,15,1)          180.0            -DE/DX =    0.0                 !
 ! D40   D(9,10,15,16)           0.0            -DE/DX =    0.0                 !
 --------------------------------------------------------------------------------
 GradGradGradGradGradGradGradGradGradGradGradGradGradGradGradGradGradGrad

                          Input orientation:                          
 ---------------------------------------------------------------------
 Center     Atomic      Atomic             Coordinates (Angstroms)
 Number     Number       Type             X           Y           Z
 ---------------------------------------------------------------------
      1          6           0       -1.358199    2.089471    1.391438
      2          1           0       -2.299779    2.018629    1.925073
      3          6           0       -0.013957    2.002634    1.873926
      4          1           0        0.271245    1.843819    2.905633
      5          6           0        0.823576    2.162895    0.755509
      6          6           0        2.224156    2.173997    0.585806
      7          6           0        2.729886    2.362119   -0.694246
      8          6           0        1.866004    2.535557   -1.783007
      9          6           0        0.461477    2.528809   -1.641848
     10          6           0       -0.028281    2.341958   -0.371307
     11          1           0        2.884732    2.038694    1.436086
     12          1           0        3.802048    2.375501   -0.856485
     13          1           0        2.285663    2.680775   -2.773130
     14          1           0       -0.191515    2.664245   -2.493530
     15          7           0       -1.344619    2.285176    0.094996
     16          1           0       -2.210463    2.381261   -0.481575
 ---------------------------------------------------------------------
                    Distance matrix (angstroms):
                    1          2          3          4          5
     1  C    0.000000
     2  H    1.084601   0.000000
     3  C    1.430846   2.286451   0.000000
     4  H    2.237904   2.757212   1.082119   0.000000
     5  C    2.273750   3.338270   1.406414   2.242747   0.000000
     6  C    3.672799   4.720569   2.588004   3.050325   1.410867
     7  C    4.597484   5.681228   3.775369   4.390067   2.403227
     8  C    4.546601   5.600967   4.146254   5.000511   2.769404
     9  C    3.564417   4.539576   3.586581   4.602715   2.452006
    10  C    2.222545   3.246169   2.270775   3.328092   1.423882
    11  H    4.243470   5.207559   2.931792   3.004640   2.174161
    12  H    5.635878   6.715409   4.707023   5.186790   3.393379
    13  H    5.565159   6.598320   5.229078   6.083316   3.854503
    14  H    4.096888   4.938183   4.420851   5.480712   3.440642
    15  N    1.311201   2.081480   2.239438   3.271925   2.269868
    16  H    2.078382   2.435453   3.242897   4.233308   3.283817
                    6          7          8          9         10
     6  C    0.000000
     7  C    1.389132   0.000000
     8  C    2.422865   1.400634   0.000000
     9  C    2.862756   2.464024   1.411618   0.000000
    10  C    2.453110   2.777081   2.370378   1.374427   0.000000
    11  H    1.085193   2.160300   3.412806   3.947918   3.441553
    12  H    2.147219   1.084450   2.152284   3.435071   3.861080
    13  H    3.397507   2.149566   1.085147   2.151870   3.352295
    14  H    3.944378   3.444312   2.180547   1.081713   2.152752
    15  N    3.604083   4.150954   3.727961   2.517533   1.397645
    16  H    4.565972   4.944961   4.281952   2.916722   2.185320
                   11         12         13         14         15
    11  H    0.000000
    12  H    2.492146   0.000000
    13  H    4.299843   2.462954   0.000000
    14  H    5.029562   4.325718   2.492962   0.000000
    15  N    4.443725   5.234659   4.643446   2.858987   0.000000
    16  H    5.454886   6.024191   5.055302   2.864296   1.044678
                   16
    16  H    0.000000
 Stoichiometry    C8H7N
 Framework group  C1[X(C8H7N)]
 Deg. of freedom    42
 Full point group                 C1      NOp   1
 Largest Abelian subgroup         C1      NOp   1
 Largest concise Abelian subgroup C1      NOp   1
                         Standard orientation:                         
 ---------------------------------------------------------------------
 Center     Atomic      Atomic             Coordinates (Angstroms)
 Number     Number       Type             X           Y           Z
 ---------------------------------------------------------------------
      1          6           0        2.375449    0.043538    0.000000
      2          1           0        3.456035   -0.049692    0.000000
      3          6           0        1.548859    1.211473   -0.000000
      4          1           0        1.908315    2.232146   -0.000000
      5          6           0        0.217207    0.759032   -0.000000
      6          6           0       -1.030994    1.416709    0.000000
      7          6           0       -2.183100    0.640604   -0.000000
      8          6           0       -2.100020   -0.757563    0.000000
      9          6           0       -0.865003   -1.441230   -0.000000
     10          6           0        0.268508   -0.663926    0.000000
     11          1           0       -1.084309    2.500592    0.000000
     12          1           0       -3.157219    1.117179    0.000000
     13          1           0       -3.014568   -1.341641    0.000000
     14          1           0       -0.818725   -2.521953    0.000000
     15          7           0        1.618199   -1.026892   -0.000000
     16          1           0        1.997653   -2.000219   -0.000001
 ---------------------------------------------------------------------
 Rotational constants (GHZ):           3.8795939           1.6449169           1.1551447

 **********************************************************************

            Population analysis using the SCF Density.

 **********************************************************************

 Orbital symmetries:
       Occupied  (A) (A) (A) (A) (A) (A) (A) (A) (A) (A) (A) (A)
                 (A) (A) (A) (A) (A) (A) (A) (A) (A) (A) (A) (A)
                 (A) (A) (A) (A) (A) (A) (A)
       Virtual   (A) (A) (A) (A) (A) (A) (A) (A) (A) (A) (A) (A)
                 (A) (A) (A) (A) (A) (A) (A) (A) (A) (A) (A) (A)
                 (A) (A) (A) (A) (A) (A) (A) (A) (A) (A) (A) (A)
                 (A) (A) (A) (A) (A) (A) (A) (A) (A) (A) (A) (A)
                 (A) (A) (A) (A) (A) (A) (A) (A) (A) (A) (A) (A)
                 (A) (A) (A) (A) (A) (A) (A) (A) (A) (A) (A) (A)
                 (A) (A) (A) (A) (A) (A) (A) (A) (A) (A) (A) (A)
                 (A) (A) (A) (A) (A) (A) (A) (A) (A) (A) (A) (A)
                 (A) (A) (A) (A) (A) (A) (A) (A) (A) (A) (A) (A)
                 (A) (A) (A) (A) (A) (A) (A) (A) (A) (A) (A) (A)
                 (A) (A) (A) (A) (A) (A) (A) (A) (A) (A) (A) (A)
                 (A) (A) (A) (A) (A) (A) (A) (A) (A) (A) (A) (A)
                 (A) (A) (A) (A) (A) (A) (A) (A) (A) (A)
 The electronic state is 1-A.
 Alpha  occ. eigenvalues --  -14.82038 -10.58909 -10.58300 -10.55481 -10.54780
 Alpha  occ. eigenvalues --  -10.54711 -10.54701 -10.54353 -10.53691  -1.10729
 Alpha  occ. eigenvalues --   -0.94618  -0.87622  -0.83984  -0.80129  -0.71268
 Alpha  occ. eigenvalues --   -0.67846  -0.66190  -0.61926  -0.55487  -0.54389
 Alpha  occ. eigenvalues --   -0.50870  -0.50528  -0.50106  -0.46797  -0.45176
 Alpha  occ. eigenvalues --   -0.41425  -0.40580  -0.39709  -0.33594  -0.28339
 Alpha  occ. eigenvalues --   -0.24147
 Alpha virt. eigenvalues --    0.00336   0.01008   0.02587   0.03143   0.04315
 Alpha virt. eigenvalues --    0.04633   0.05173   0.06617   0.06699   0.07003
 Alpha virt. eigenvalues --    0.07396   0.07519   0.09853   0.10330   0.10880
 Alpha virt. eigenvalues --    0.10995   0.12461   0.13793   0.14690   0.14980
 Alpha virt. eigenvalues --    0.15999   0.16378   0.17273   0.17906   0.18583
 Alpha virt. eigenvalues --    0.19479   0.19690   0.20431   0.21043   0.21427
 Alpha virt. eigenvalues --    0.22446   0.23064   0.23217   0.24033   0.24941
 Alpha virt. eigenvalues --    0.25181   0.25462   0.25998   0.26628   0.27445
 Alpha virt. eigenvalues --    0.28898   0.29069   0.30819   0.31814   0.32457
 Alpha virt. eigenvalues --    0.34097   0.34914   0.36261   0.38090   0.39821
 Alpha virt. eigenvalues --    0.40712   0.43659   0.47627   0.49189   0.56212
 Alpha virt. eigenvalues --    0.62776   0.66988   0.71560   0.71869   0.74386
 Alpha virt. eigenvalues --    0.76252   0.76870   0.77550   0.78156   0.79129
 Alpha virt. eigenvalues --    0.80300   0.81607   0.82298   0.84008   0.84304
 Alpha virt. eigenvalues --    0.86138   0.90130   0.93398   0.95014   0.96154
 Alpha virt. eigenvalues --    0.99338   0.99988   1.00697   1.01398   1.03604
 Alpha virt. eigenvalues --    1.05005   1.07210   1.09293   1.09469   1.12799
 Alpha virt. eigenvalues --    1.15041   1.16036   1.21293   1.21622   1.24109
 Alpha virt. eigenvalues --    1.25708   1.28340   1.29372   1.36632   1.37015
 Alpha virt. eigenvalues --    1.39890   1.40385   1.44712   1.47361   1.48289
 Alpha virt. eigenvalues --    1.52035   1.52568   1.55273   1.56154   1.57766
 Alpha virt. eigenvalues --    1.61377   1.68911   1.80754   1.87766   1.93289
 Alpha virt. eigenvalues --    1.94354   1.95364   1.98753   2.03130   2.05108
 Alpha virt. eigenvalues --    2.05498   2.10118   2.13060   2.18710   2.19944
 Alpha virt. eigenvalues --    2.21624   2.23108   2.27905   2.29619   2.31507
 Alpha virt. eigenvalues --    2.33882   2.36103   2.41579   2.45897   2.49542
 Alpha virt. eigenvalues --    2.56592   2.59784   2.66376   2.67609   2.69275
 Alpha virt. eigenvalues --    2.71843   2.75660   2.83427   2.87023   2.87471
 Alpha virt. eigenvalues --    2.96787   3.00239   3.12437   3.25752   3.44691
 Alpha virt. eigenvalues --    4.18713   4.28074   4.31753   4.33970   4.38648
 Alpha virt. eigenvalues --    4.42713   4.50526   4.54570   4.81003
          Condensed to atoms (all electrons):
               1          2          3          4          5          6
     1  C    6.079585   0.329420  -1.418106  -0.050220   1.834476   0.898604
     2  H    0.329420   0.470893   0.023424  -0.000567  -0.083707  -0.019594
     3  C   -1.418106   0.023424  11.048681   0.345848  -4.355059  -3.509334
     4  H   -0.050220  -0.000567   0.345848   0.479874  -0.038004  -0.032970
     5  C    1.834476  -0.083707  -4.355059  -0.038004  13.736747   0.520851
     6  C    0.898604  -0.019594  -3.509334  -0.032970   0.520851  11.738311
     7  C   -0.061025   0.001059   0.076957   0.002687  -0.175993   0.208002
     8  C    0.045209   0.000513  -0.278602   0.000801  -0.660956   0.671123
     9  C   -1.244805   0.031798   3.124290   0.005844  -3.958960  -3.171882
    10  C   -0.695539   0.094285   1.569243   0.065139  -2.917746  -1.109875
    11  H    0.005354  -0.000001  -0.041155   0.001335   0.095823   0.211891
    12  H    0.000019  -0.000000   0.004761  -0.000001   0.035904  -0.024497
    13  H    0.001462  -0.000000  -0.000259   0.000000   0.009807   0.005940
    14  H    0.009333   0.000002  -0.007766   0.000002   0.006179  -0.011199
    15  N    0.531721  -0.061462  -0.617703   0.007630   0.709925   0.114213
    16  H    0.004893  -0.003098  -0.029012  -0.000082   0.204245   0.030985
               7          8          9         10         11         12
     1  C   -0.061025   0.045209  -1.244805  -0.695539   0.005354   0.000019
     2  H    0.001059   0.000513   0.031798   0.094285  -0.000001  -0.000000
     3  C    0.076957  -0.278602   3.124290   1.569243  -0.041155   0.004761
     4  H    0.002687   0.000801   0.005844   0.065139   0.001335  -0.000001
     5  C   -0.175993  -0.660956  -3.958960  -2.917746   0.095823   0.035904
     6  C    0.208002   0.671123  -3.171882  -1.109875   0.211891  -0.024497
     7  C    5.445385   0.410395   0.359699  -0.504903   0.016321   0.289264
     8  C    0.410395   5.592410   0.226256   0.129553   0.010586   0.001496
     9  C    0.359699   0.226256  12.875865  -1.653411  -0.031948   0.020850
    10  C   -0.504903   0.129553  -1.653411  12.089888   0.029168  -0.018405
    11  H    0.016321   0.010586  -0.031948   0.029168   0.498384  -0.003083
    12  H    0.289264   0.001496   0.020850  -0.018405  -0.003083   0.497191
    13  H    0.006568   0.277473  -0.010480   0.019044  -0.000136  -0.003818
    14  H    0.006655   0.046604   0.193971   0.056330   0.000015  -0.000122
    15  N   -0.026736  -0.005601  -0.518128  -0.158682  -0.000652   0.000296
    16  H   -0.003864  -0.008193  -0.173494  -0.070345   0.000003  -0.000000
              13         14         15         16
     1  C    0.001462   0.009333   0.531721   0.004893
     2  H   -0.000000   0.000002  -0.061462  -0.003098
     3  C   -0.000259  -0.007766  -0.617703  -0.029012
     4  H    0.000000   0.000002   0.007630  -0.000082
     5  C    0.009807   0.006179   0.709925   0.204245
     6  C    0.005940  -0.011199   0.114213   0.030985
     7  C    0.006568   0.006655  -0.026736  -0.003864
     8  C    0.277473   0.046604  -0.005601  -0.008193
     9  C   -0.010480   0.193971  -0.518128  -0.173494
    10  C    0.019044   0.056330  -0.158682  -0.070345
    11  H   -0.000136   0.000015  -0.000652   0.000003
    12  H   -0.003818  -0.000122   0.000296  -0.000000
    13  H    0.502436  -0.003384  -0.000443  -0.000001
    14  H   -0.003384   0.502380  -0.004540   0.001492
    15  N   -0.000443  -0.004540   7.228155   0.280817
    16  H   -0.000001   0.001492   0.280817   0.325215
 Mulliken charges:
               1
     1  C   -0.270378
     2  H    0.217038
     3  C    0.063792
     4  H    0.212687
     5  C    1.036468
     6  C   -0.520570
     7  C   -0.050470
     8  C   -0.459066
     9  C   -0.075465
    10  C   -0.923744
    11  H    0.208095
    12  H    0.200144
    13  H    0.195792
    14  H    0.204047
    15  N   -0.478810
    16  H    0.440440
 Sum of Mulliken charges =  -0.00000
 Mulliken charges with hydrogens summed into heavy atoms:
               1
     1  C   -0.053340
     3  C    0.276479
     5  C    1.036468
     6  C   -0.312474
     7  C    0.149674
     8  C   -0.263274
     9  C    0.128582
    10  C   -0.923744
    15  N   -0.038370
 Electronic spatial extent (au):  <R**2>=           1006.9111
 Charge=             -0.0000 electrons
 Dipole moment (field-independent basis, Debye):
    X=              1.6803    Y=             -1.8466    Z=             -0.0000  Tot=              2.4967
 Quadrupole moment (field-independent basis, Debye-Ang):
   XX=            -44.7618   YY=            -44.4585   ZZ=            -59.2375
   XY=             -4.3345   XZ=             -0.0000   YZ=              0.0000
 Traceless Quadrupole moment (field-independent basis, Debye-Ang):
   XX=              4.7242   YY=              5.0274   ZZ=             -9.7515
   XY=             -4.3345   XZ=             -0.0000   YZ=              0.0000
 Octapole moment (field-independent basis, Debye-Ang**2):
  XXX=             16.7492  YYY=            -11.1605  ZZZ=             -0.0000  XYY=              8.2863
  XXY=            -10.0733  XXZ=             -0.0000  XZZ=              2.0319  YZZ=             -2.3205
  YYZ=             -0.0000  XYZ=              0.0000
 Hexadecapole moment (field-independent basis, Debye-Ang**3):
 XXXX=           -805.2416 YYYY=           -370.7596 ZZZZ=            -73.3733 XXXY=            -30.5452
 XXXZ=             -0.0000 YYYX=            -23.2415 YYYZ=              0.0000 ZZZX=             -0.0000
 ZZZY=              0.0000 XXYY=           -194.4662 XXZZ=           -189.2035 YYZZ=            -94.8200
 XXYZ=              0.0000 YYXZ=             -0.0000 ZZXY=             -5.1841
 N-N= 4.007815355903D+02 E-N=-1.644101166224D+03  KE= 3.604776324461D+02
 1\1\GINC-COMET-04-48\FOpt\RM062X TD-FC\6-31+G(d)\C8H7N1\GFOLEY1\13-Jun
 -2018\0\\# opt td=(root=2) M062X/6-31+g(d) geom=connectivity\\Title Ca
 rd Required\\0,1\C,-1.3581985694,2.0894711769,1.3914382994\H,-2.299779
 3173,2.0186292749,1.9250730991\C,-0.0139567471,2.0026335867,1.87392569
 08\H,0.2712445699,1.8438191318,2.9056333013\C,0.82357643,2.1628952406,
 0.7555091507\C,2.2241560569,2.1739965826,0.5858058569\C,2.7298863818,2
 .3621187918,-0.6942462708\C,1.8660040911,2.5355573529,-1.7830074713\C,
 0.4614774718,2.5288089924,-1.6418482959\C,-0.0282805422,2.3419578923,-
 0.371307495\H,2.8847322982,2.0386940438,1.436086065\H,3.8020481316,2.3
 755008004,-0.8564852038\H,2.2856630463,2.6807748429,-2.7731299457\H,-0
 .1915150963,2.664244745,-2.4935296277\N,-1.3446191278,2.2851762596,0.0
 949961315\H,-2.2104625775,2.3812606346,-0.4815748631\\Version=ES64L-G1
 6RevB.01\State=1-A\HF=-363.6620365\RMSD=3.664e-09\RMSF=9.242e-05\Dipol
 e=3.5506326,-0.1363575,0.6587207\PG=C01 [X(C8H7N1)]\\@


 THE WHOLE OF SCIENCE IS NOTHING MORE THAN A REFINEMENT OF EVERYDAY THINKING.
                                                              -- A. EINSTEIN
 Job cpu time:       0 days  1 hours 54 minutes 52.7 seconds.
 Elapsed time:       0 days  1 hours 55 minutes  6.4 seconds.
 File lengths (MBytes):  RWF=    209 Int=      0 D2E=      0 Chk=      8 Scr=      1
 Normal termination of Gaussian 16 at Wed Jun 13 08:41:25 2018.
