Running Q-Chem job 1 of 1 
Check license passed

                  Welcome to Q-Chem
     A Quantum Leap Into The Future Of Chemistry


 Q-Chem 5.1, Q-Chem, Inc., Pleasanton, CA (2018)

 Yihan Shao,  Zhengting Gan,  E. Epifanovsky,  A. T. B. Gilbert,  M. Wormit,  
 J. Kussmann,  A. W. Lange,  A. Behn,  Jia Deng,  Xintian Feng,  D. Ghosh,  
 M. Goldey,  P. R. Horn,  L. D. Jacobson,  I. Kaliman,  T. Kus,  A. Landau,  
 Jie Liu,  E. I. Proynov,  R. M. Richard,  R. P. Steele,  E. J. Sundstrom,  
 H. L. Woodcock III,  P. M. Zimmerman,  D. Zuev,  B. Albrecht,  E. Alguire,  
 S. A. Baeppler,  D. Barton,  Z. Benda,  Y. A. Bernard,  E. J. Berquist,  
 K. B. Bravaya,  H. Burton,  D. Casanova,  Chun-Min Chang,  Yunqing Chen,  
 A. Chien,  K. D. Closser,  M. P. Coons,  S. Coriani,  S. Dasgupta,  
 A. L. Dempwolff,  M. Diedenhofen,  Hainam Do,  R. G. Edgar,  Po-Tung Fang,  
 S. Faraji,  S. Fatehi,  Qingguo Feng,  K. D. Fenk,  J. Fosso-Tande,  
 J. Gayvert,  Qinghui Ge,  A. Ghysels,  G. Gidofalvi,  J. Gomes,  
 J. Gonthier,  A. Gunina,  D. Hait,  M. W. D. Hanson-Heine,  
 P. H. P. Harbach,  A. W. Hauser,  J. E. Herr,  E. G. Hohenstein,  
 Z. C. Holden,  Kerwin Hui,  B. C. Huynh,  T.-C. Jagau,  Hyunjun Ji,  
 B. Kaduk,  K. Khistyaev,  Jaehoon Kim,  P. Klunzinger,  K. Koh,  
 D. Kosenkov,  L. Koulias,  T. Kowalczyk,  C. M. Krauter,  A. Kunitsa,  
 Ka Un Lao,  A. Laurent,  K. V. Lawler,  Joonho Lee,  D. Lefrancois,  
 S. Lehtola,  D. S. Levine,  Yi-Pei Li,  You-Sheng Lin,  Fenglai Liu,  
 E. Livshits,  A. Luenser,  P. Manohar,  E. Mansoor,  S. F. Manzer,  
 Shan-Ping Mao,  Yuezhi Mao,  N. Mardirossian,  A. V. Marenich,  
 T. Markovich,  L. A. Martinez-Martinez,  S. A. Maurer,  N. J. Mayhall,  
 S. C. McKenzie,  J.-M. Mewes,  A. F. Morrison,  J. W. Mullinax,  K. Nanda,  
 T. S. Nguyen-Beck,  R. Olivares-Amaya,  J. A. Parkhill,  T. M. Perrine,  
 F. Plasser,  P. Pokhilko,  S. Prager,  A. Prociuk,  E. Ramos,  D. R. Rehn,  
 F. Rob,  M. Schneider,  N. Sergueev,  S. M. Sharada,  S. Sharma,  
 D. W. Small,  T. Stauch,  T. Stein,  Yu-Chuan Su,  A. J. W. Thom,  
 A. Tkatchenko,  T. Tsuchimochi,  N. M. Tubman,  L. Vogt,  M. L. Vidal,  
 O. Vydrov,  M. A. Watson,  J. Wenzel,  M. de Wergifosse,  T. A. Wesolowski,  
 A. White,  J. Witte,  A. Yamada,  Jun Yang,  K. Yao,  S. Yeganeh,  
 S. R. Yost,  Zhi-Qiang You,  A. Zech,  Igor Ying Zhang,  Xing Zhang,  
 Yan Zhao,  Ying Zhu,  B. R. Brooks,  G. K. L. Chan,  C. J. Cramer,  
 M. S. Gordon,  W. J. Hehre,  A. Klamt,  M. W. Schmidt,  C. D. Sherrill,  
 D. G. Truhlar,  A. Aspuru-Guzik,  R. Baer,  A. T. Bell,  N. A. Besley,  
 Jeng-Da Chai,  A. E. DePrince, III,  R. A. DiStasio Jr.,  A. Dreuw,  
 B. D. Dunietz,  T. R. Furlani,  Chao-Ping Hsu,  Yousung Jung,  Jing Kong,  
 D. S. Lambrecht,  WanZhen Liang,  C. Ochsenfeld,  V. A. Rassolov,  
 L. V. Slipchenko,  J. E. Subotnik,  T. Van Voorhis,  J. M. Herbert,  
 A. I. Krylov,  P. M. W. Gill,  M. Head-Gordon

 Contributors to earlier versions of Q-Chem not listed above: 
 R. D. Adamson,  B. Austin,  J. Baker,  G. J. O. Beran,  K. Brandhorst,  
 S. T. Brown,  E. F. C. Byrd,  A. K. Chakraborty,  C.-L. Cheng,  
 Siu Hung Chien,  D. M. Chipman,  D. L. Crittenden,  H. Dachsel,  
 R. J. Doerksen,  A. D. Dutoi,  L. Fusti-Molnar,  W. A. Goddard III,  
 A. Golubeva-Zadorozhnaya,  S. R. Gwaltney,  G. Hawkins,  A. Heyden,  
 S. Hirata,  G. Kedziora,  F. J. Keil,  C. Kelley,  Jihan Kim,  R. A. King,  
 R. Z. Khaliullin,  P. P. Korambath,  W. Kurlancheek,  A. M. Lee,  M. S. Lee,  
 S. V. Levchenko,  Ching Yeh Lin,  D. Liotard,  R. C. Lochan,  I. Lotan,  
 P. E. Maslen,  N. Nair,  D. P. O'Neill,  D. Neuhauser,  E. Neuscamman,  
 C. M. Oana,  R. Olson,  B. Peters,  R. Peverati,  P. A. Pieniazek,  
 Y. M. Rhee,  J. Ritchie,  M. A. Rohrdanz,  E. Rosta,  N. J. Russ,  
 H. F. Schaefer III,  N. E. Schultz,  N. Shenvi,  A. C. Simmonett,  A. Sodt,  
 D. Stuck,  K. S. Thanthiriwatte,  V. Vanovschi,  Tao Wang,  A. Warshel,  
 C. F. Williams,  Q. Wu,  X. Xu,  W. Zhang

 Please cite Q-Chem as follows:
 Y. Shao et al., Mol. Phys. 113, 184-215 (2015)
 DOI: 10.1080/00268976.2014.952696

 Q-Chem 5.1.2 for Intel X86 EM64T Linux

 Parts of Q-Chem use Armadillo 8.300.2 (Tropical Shenanigans).
 http://arma.sourceforge.net/

 Q-Chem begins on Fri Jun  4 16:52:01 2021  

Host: 127

     Scratch files written to C:/Users/scaparas/AppData/Local/Temp/qchem9641//
 Dec318 |cygdrive|d|Jenkins|workspace|build_RNUM -1
Input Ideriv = 2
Curr. Ideriv = -1
Max.  Ideriv = 2

Checking the input file for inconsistencies... 	...done.

--------------------------------------------------------------
User input:
--------------------------------------------------------------

$molecule
0 1
C         2.1665374654   -0.6554056232    0.0000000000
C         2.1169746126    0.7536230414    0.0000000000
C         0.9078293763    1.4297941068    0.0000000000
C        -0.2602955279    0.6603427264    0.0000000000
N        -1.5823227859    1.0465645945    0.0000000000
H        -1.9138448994    1.9970952131    0.0000000000
C        -2.3831006726   -0.0753467300    0.0000000000
C        -1.6031102305   -1.1965127142    0.0000000000
C        -0.2354025284   -0.7544080528    0.0000000000
C         1.0061117308   -1.4110304737    0.0000000000
H         3.1323502333   -1.1522732729    0.0000000000
H         3.0445811710    1.3187694778    0.0000000000
H         0.8711978004    2.5159935936    0.0000000000
H        -3.4599415153    0.0224367365    0.0000000000
H        -1.9589772753   -2.2174458375    0.0000000000
H         1.0526344532   -2.4968312448    0.0000000000
$end

$rem
BASIS  =  6-31+G*
GUI  =  2
JOB_TYPE  =  Optimization
METHOD  = SVWN5 
SCF_CONVERGENCE  =  8
THRESH = 12
CIS_N_ROOTS  = 3
CIS_SINGLETS = true
CIS_TRIPLETS = false
CIS_STATE_DERIV = 2
$end
--------------------------------------------------------------
 ----------------------------------------------------------------
             Standard Nuclear Orientation (Angstroms)
    I     Atom           X                Y                Z
 ----------------------------------------------------------------
    1      C       2.1545809193    -0.6917179572    -0.0000000000
    2      C       2.1305971189     0.7179781205     0.0000000000
    3      C       0.9339220871     1.4159812583     0.0000000000
    4      C      -0.2479743579     0.6678555924     0.0000000000
    5      N      -1.5627747859     1.0780058536     0.0000000000
    6      H      -1.8769921819     2.0343963579     0.0000000000
    7      C      -2.3837811130    -0.0291882824    -0.0000000000
    8      C      -1.6242659160    -1.1643248026    -0.0000000000
    9      C      -0.2487601923    -0.7471139518    -0.0000000000
   10      C       0.9806332983    -1.4261590938    -0.0000000000
   11      H       3.1112175340    -1.2060312385    -0.0000000000
   12      H       3.0683071256     1.2661973878     0.0000000000
   13      H       0.9170087673     2.5026666484     0.0000000000
   14      H      -3.4586700515     0.0881214642    -0.0000000000
   15      H      -1.9986021312    -2.1786315579    -0.0000000000
   16      H       1.0074433715    -2.5126253373    -0.0000000000
 ----------------------------------------------------------------
 Molecular Point Group                 Cs    NOp =  2
 Largest Abelian Subgroup              Cs    NOp =  2
 Nuclear Repulsion Energy =   400.7281381655 hartrees
 There are       31 alpha and       31 beta electrons
 Requested basis set is 6-31+G(d)
 There are 59 shells and 185 basis functions

 Total QAlloc Memory Limit   2000 MB
 Mega-Array Size       188 MB
 MEM_STATIC part       192 MB
 Smallest overlap matrix eigenvalue = 1.29E-06

 Scale SEOQF with 1.000000e-01/1.000000e-01/1.000000e-01

 Standard Electronic Orientation quadrupole field applied
 Nucleus-field energy     =     0.0000000117 hartrees
 Guess from superposition of atomic densities
 Warning:  Energy on first SCF cycle will be non-variational
 SAD guess density has 62.000000 electrons

 -----------------------------------------------------------------------
  General SCF calculation program by
  Eric Jon Sundstrom, Paul Horn, Yuezhi Mao, Dmitri Zuev, Alec White,
  David Stuck, Shaama M.S., Shane Yost, Joonho Lee, David Small,
  Daniel Levine, Susi Lehtola, Hugh Burton, Evgeny Epifanovsky
 -----------------------------------------------------------------------
 Exchange:  Slater      Correlation:  VWN5
 Using SG-1 standard quadrature grid
 using 4 threads for integral computing
 -------------------------------------------------------
 OpenMP Integral computing Module                
 Release: version 1.0, May 2013, Q-Chem Inc. Pittsburgh 
 -------------------------------------------------------
 -------------------------------------------------------
 OpenMP BLAS3 based DFT computing Module                
 Release: version 1.0, May 2013, Q-Chem Inc. Pittsburgh 
 -------------------------------------------------------
 A restricted SCF calculation will be
 performed using DIIS
 SCF converges when DIIS error is below 1.0e-08
 ---------------------------------------
  Cycle       Energy         DIIS error
 ---------------------------------------
    1    -362.4464918583      5.51e-02  
    2    -360.3495098339      6.64e-03  
    3    -360.0671605105      1.00e-02  
    4    -360.5380017976      2.64e-03  
    5    -360.5679782906      8.89e-04  
    6    -360.5712245100      3.21e-04  
    7    -360.5716222046      1.33e-04  
    8    -360.5716965705      3.91e-05  
    9    -360.5717032157      7.14e-06  
   10    -360.5717033920      3.91e-06  
   11    -360.5717034590      8.87e-07  
   12    -360.5717034617      5.08e-07  
   13    -360.5717034629      8.49e-08  
   14    -360.5717034629      3.71e-08  
   15    -360.5717034630      4.16e-09  Convergence criterion met
 ---------------------------------------
 SCF time:   CPU 33.69s  wall 10.00s 
 SCF   energy in the final basis set =     -360.5717034630
 Total energy in the final basis set =     -360.5717034630
 A cutoff of  1.0D-12 yielded   1657 shell pairs
 There are     17105 function pairs

 -------------------------------------------------------
 OpenMP Integral Computing Module                       
 Release: version 1.0, May 2013, Q-Chem Inc. Pittsburgh 
 -------------------------------------------------------
 Integral Job Info:
 Integral job number is                      11
 Integral operator is                         1
 short-range coefficients                     0
 long-range coefficients              100000000
 Omega coefficients                           0
 if combine SR and LR in K                    0
 Integral screening is                        0
 Integral computing path is                   2
 max size of driver memory is            800000
 size of driver memory is                593474
 size of scratch memory is              2361544
 max col of scratch BK array               1296
 max len of scratch array in speh3          155
 max len of scratch index in speh4           18
 max int batch size is                      520
 min int batch size is                       52
 fixed nKL is                                52
 max L of basis functions is                  2
 order of int derivative is                   0
 number of shells is                         59
 number of basis is                         185
 number of cartesian basis is               185
 number of contracted shell pairs          1657
 number of primitive shell pairs           5905
 maxK2 (contraction) of shell pair           36
 max number of K2 of shell pair               1
 max number of CS2 of shell pair            193
 max number of PS2 of shell pair           1158
 mem total for path MDJ                  542796
 -------------------------------------------------------

 Exchange:  Slater      Correlation:  VWN5
 Using SG-1 standard quadrature grid
 Direct TDDFT/TDA calculation will be performed
 Singlet excitation energies requested
 CIS energy converged when residual is below 10e- 6
 ---------------------------------------------------
 Iter    Rts Conv    Rts Left    Ttl Dev     Max Dev
 ---------------------------------------------------
   1         0           3      0.003945    0.001950
   2         0           3      0.002893    0.001509
   3         0           3      0.002259    0.001130
   4         1           2      0.001753    0.001197
   5         1           2      0.001522    0.001257
   6         1           2      0.000799    0.000690
   7         1           2      0.000247    0.000224
   8         1           2      0.000221    0.000214
   9         1           2      0.000052    0.000050
  10         2           1      0.000011    0.000010
  11         2           1      0.000003    0.000002
  12         3           0      0.000001    0.000001    Roots Converged
 ---------------------------------------------------

 ---------------------------------------------------
         TDDFT/TDA Excitation Energies              
 ---------------------------------------------------

 Excited state   1: excitation energy (eV) =    4.5582
 Total energy for state  1:                  -360.40419343 au
    Multiplicity: Singlet
    Trans. Mom.:  0.4450 X  -0.5571 Y   0.0000 Z
    Strength   :     0.0567775279
    D( 29) --> V(  1) amplitude = -0.2693
    D( 31) --> V(  1) amplitude =  0.8913

 Excited state   2: excitation energy (eV) =    4.7344
 Total energy for state  2:                  -360.39771613 au
    Multiplicity: Singlet
    Trans. Mom.:  0.0000 X   0.0000 Y   0.1079 Z
    Strength   :     0.0013496951
    D( 31) --> V(  2) amplitude =  0.9995

 Excited state   3: excitation energy (eV) =    4.7501
 Total energy for state  3:                  -360.39714129 au
    Multiplicity: Singlet
    Trans. Mom.:  0.3229 X   0.1302 Y  -0.0000 Z
    Strength   :     0.0141083914
    D( 30) --> V(  1) amplitude =  0.7438
    D( 31) --> V(  3) amplitude = -0.6537

 ---------------------------------------------------
 Calculating Relaxed Density
 ---------------------------------------------------
 Iter    Rts Conv    Rts Left    Ttl Dev     Max Dev
 ---------------------------------------------------
   1         0           3      0.002447    0.001243
   2         0           3      0.000872    0.000435
   3         0           3      0.000250    0.000128
   4         0           3      0.000089    0.000046
   5         0           3      0.000012    0.000006
   6         3           0      0.000000    0.000000    Roots Converged
 ---------------------------------------------------
  SETman timing summary (seconds)
  CPU time               131.88s
  System time             24.81s
  Wall time               35.88s

 --------------------------------------------------------------
             Orbital Energies (a.u.) and Symmetries
 --------------------------------------------------------------

 Alpha MOs, Restricted
 -- Occupied --                  
-13.930  -9.829  -9.828  -9.800  -9.796  -9.793  -9.793  -9.789
  1 A'    2 A'    3 A'    4 A'    5 A'    6 A'    7 A'    8 A'                 
 -9.787  -0.903  -0.764  -0.711  -0.666  -0.649  -0.569  -0.540
  9 A'   10 A'   11 A'   12 A'   13 A'   14 A'   15 A'   16 A'                 
 -0.528  -0.492  -0.436  -0.424  -0.397  -0.386  -0.385  -0.369
 17 A'   18 A'   19 A'   20 A'   21 A'    1 A"   22 A'   23 A'                 
 -0.350  -0.315  -0.305  -0.296  -0.255  -0.208  -0.190
 24 A'   25 A'    2 A"   26 A'    3 A"    4 A"    5 A"                         
 -- Virtual --                   
 -0.050  -0.017  -0.016   0.004   0.011   0.013   0.026   0.029
  6 A"   27 A'    7 A"   28 A'   29 A'    8 A"   30 A'   31 A'                 
  0.042   0.048   0.054   0.056   0.072   0.076   0.092   0.097
 32 A'    9 A"   33 A'   34 A'   10 A"   11 A"   35 A'   36 A'                 
  0.098   0.111   0.120   0.122   0.138   0.139   0.145   0.147
 37 A'   12 A"   13 A"   38 A'   14 A"   39 A'   40 A'   15 A"                 
  0.154   0.159   0.168   0.168   0.176   0.180   0.184   0.184
 41 A'   42 A'   43 A'   16 A"   44 A'   45 A'   46 A'   17 A"                 
  0.199   0.201   0.211   0.217   0.218   0.223   0.233   0.238
 47 A'   48 A'   49 A'   50 A'   18 A"   51 A'   52 A'   53 A'                 
  0.251   0.255   0.261   0.268   0.272   0.279   0.289   0.304
 54 A'   55 A'   56 A'   57 A'   58 A'   59 A'   60 A'   61 A'                 
  0.323   0.331   0.338   0.364   0.381   0.408   0.466   0.524
 62 A'   63 A'   64 A'   65 A'   66 A'   67 A'   68 A'   69 A'                 
  0.569   0.614   0.625   0.640   0.659   0.662   0.670   0.676
 70 A'   19 A"   71 A'   20 A"   72 A'   21 A"   73 A'   22 A"                 
  0.681   0.692   0.694   0.715   0.730   0.735   0.758   0.790
 74 A'   23 A"   75 A'   24 A"   25 A"   76 A'   77 A'   26 A"                 
  0.828   0.840   0.849   0.878   0.885   0.892   0.897   0.924
 78 A'   79 A'   80 A'   81 A'   82 A'   27 A"   83 A'   84 A'                 
  0.937   0.970   0.989   1.005   1.042   1.058   1.060   1.113
 85 A'   86 A'   87 A'   88 A'   89 A'   90 A'   91 A'   92 A'                 
  1.125   1.151   1.171   1.179   1.193   1.257   1.261   1.283
 93 A'   94 A'   95 A'   28 A"   96 A'   97 A'   29 A"   30 A"                 
  1.312   1.353   1.357   1.389   1.397   1.406   1.435   1.440
 98 A'   31 A"   99 A'  100 A'   32 A"   33 A"   34 A"   35 A"                 
  1.473   1.523   1.585   1.719   1.772   1.809   1.823   1.848
101 A'  102 A'  103 A'  104 A'  105 A'  106 A'   36 A"  107 A'                 
  1.873   1.919   1.922   1.935   1.988   2.022   2.063   2.094
108 A'  109 A'  110 A'   37 A"  111 A'  112 A'  113 A'  114 A'                 
  2.104   2.120   2.174   2.186   2.192   2.211   2.236   2.306
 38 A"  115 A'   39 A"   40 A"   41 A"  116 A'  117 A'   42 A"                 
  2.330   2.369   2.468   2.480   2.558   2.580   2.589   2.616
 43 A"  118 A'  119 A'   44 A"  120 A'  121 A'   45 A"  122 A'                 
  2.652   2.725   2.764   2.771   2.869   2.899   3.023   3.151
123 A'  124 A'  125 A'  126 A'  127 A'  128 A'  129 A'  130 A'                 
  3.355   4.058   4.165   4.198   4.232   4.267   4.303   4.387
131 A'  132 A'  133 A'  134 A'  135 A'  136 A'  137 A'  138 A'                 
  4.426   4.694
139 A'  140 A'                                                                 

 Beta MOs, Restricted
 -- Occupied --                  
-13.930  -9.829  -9.828  -9.800  -9.796  -9.793  -9.793  -9.789
  1 A'    2 A'    3 A'    4 A'    5 A'    6 A'    7 A'    8 A'                 
 -9.787  -0.903  -0.764  -0.711  -0.666  -0.649  -0.569  -0.540
  9 A'   10 A'   11 A'   12 A'   13 A'   14 A'   15 A'   16 A'                 
 -0.528  -0.492  -0.436  -0.424  -0.397  -0.386  -0.385  -0.369
 17 A'   18 A'   19 A'   20 A'   21 A'    1 A"   22 A'   23 A'                 
 -0.350  -0.315  -0.305  -0.296  -0.255  -0.208  -0.190
 24 A'   25 A'    2 A"   26 A'    3 A"    4 A"    5 A"                         
 -- Virtual --                   
 -0.050  -0.017  -0.016   0.004   0.011   0.013   0.026   0.029
  6 A"   27 A'    7 A"   28 A'   29 A'    8 A"   30 A'   31 A'                 
  0.042   0.048   0.054   0.056   0.072   0.076   0.092   0.097
 32 A'    9 A"   33 A'   34 A'   10 A"   11 A"   35 A'   36 A'                 
  0.098   0.111   0.120   0.122   0.138   0.139   0.145   0.147
 37 A'   12 A"   13 A"   38 A'   14 A"   39 A'   40 A'   15 A"                 
  0.154   0.159   0.168   0.168   0.176   0.180   0.184   0.184
 41 A'   42 A'   43 A'   16 A"   44 A'   45 A'   46 A'   17 A"                 
  0.199   0.201   0.211   0.217   0.218   0.223   0.233   0.238
 47 A'   48 A'   49 A'   50 A'   18 A"   51 A'   52 A'   53 A'                 
  0.251   0.255   0.261   0.268   0.272   0.279   0.289   0.304
 54 A'   55 A'   56 A'   57 A'   58 A'   59 A'   60 A'   61 A'                 
  0.323   0.331   0.338   0.364   0.381   0.408   0.466   0.524
 62 A'   63 A'   64 A'   65 A'   66 A'   67 A'   68 A'   69 A'                 
  0.569   0.614   0.625   0.640   0.659   0.662   0.670   0.676
 70 A'   19 A"   71 A'   20 A"   72 A'   21 A"   73 A'   22 A"                 
  0.681   0.692   0.694   0.715   0.730   0.735   0.758   0.790
 74 A'   23 A"   75 A'   24 A"   25 A"   76 A'   77 A'   26 A"                 
  0.828   0.840   0.849   0.878   0.885   0.892   0.897   0.924
 78 A'   79 A'   80 A'   81 A'   82 A'   27 A"   83 A'   84 A'                 
  0.937   0.970   0.989   1.005   1.042   1.058   1.060   1.113
 85 A'   86 A'   87 A'   88 A'   89 A'   90 A'   91 A'   92 A'                 
  1.125   1.151   1.171   1.179   1.193   1.257   1.261   1.283
 93 A'   94 A'   95 A'   28 A"   96 A'   97 A'   29 A"   30 A"                 
  1.312   1.353   1.357   1.389   1.397   1.406   1.435   1.440
 98 A'   31 A"   99 A'  100 A'   32 A"   33 A"   34 A"   35 A"                 
  1.473   1.523   1.585   1.719   1.772   1.809   1.823   1.848
101 A'  102 A'  103 A'  104 A'  105 A'  106 A'   36 A"  107 A'                 
  1.873   1.919   1.922   1.935   1.988   2.022   2.063   2.094
108 A'  109 A'  110 A'   37 A"  111 A'  112 A'  113 A'  114 A'                 
  2.104   2.120   2.174   2.186   2.192   2.211   2.236   2.306
 38 A"  115 A'   39 A"   40 A"   41 A"  116 A'  117 A'   42 A"                 
  2.330   2.369   2.468   2.480   2.558   2.580   2.589   2.616
 43 A"  118 A'  119 A'   44 A"  120 A'  121 A'   45 A"  122 A'                 
  2.652   2.725   2.764   2.771   2.869   2.899   3.023   3.151
123 A'  124 A'  125 A'  126 A'  127 A'  128 A'  129 A'  130 A'                 
  3.355   4.058   4.165   4.198   4.232   4.267   4.303   4.387
131 A'  132 A'  133 A'  134 A'  135 A'  136 A'  137 A'  138 A'                 
  4.426   4.694
139 A'  140 A'                                                                 
 --------------------------------------------------------------

          Ground-State Mulliken Net Atomic Charges

     Atom                 Charge (a.u.)
  ----------------------------------------
      1 C                     0.051738
      2 C                    -0.523134
      3 C                     0.036491
      4 C                    -1.310094
      5 N                    -0.439031
      6 H                     0.418642
      7 C                    -0.305785
      8 C                     0.220236
      9 C                     1.301878
     10 C                    -0.654229
     11 H                     0.192928
     12 H                     0.193858
     13 H                     0.195664
     14 H                     0.211111
     15 H                     0.208934
     16 H                     0.200794
  ----------------------------------------
  Sum of atomic charges =     0.000000

 -----------------------------------------------------------------
                    Cartesian Multipole Moments
 -----------------------------------------------------------------
    Charge (ESU x 10^10)
                 0.0000
    Dipole Moment (Debye)
         X      -1.5422      Y       1.6103      Z      -0.0000
       Tot       2.2296
    Quadrupole Moments (Debye-Ang)
        XX     -45.2505     XY      -3.2593     YY     -44.3015
        XZ       0.0000     YZ      -0.0000     ZZ     -58.9794
    Octopole Moments (Debye-Ang^2)
       XXX     -14.4082    XXY       8.2457    XYY      -8.2483
       YYY      10.6188    XXZ       0.0000    XYZ       0.0000
       YYZ      -0.0000    XZZ      -2.0648    YZZ       2.0385
       ZZZ      -0.0000
    Hexadecapole Moments (Debye-Ang^3)
      XXXX    -820.1516   XXXY     -22.0444   XXYY    -196.9381
      XYYY     -19.7536   YYYY    -372.7989   XXXZ       0.0000
      XXYZ      -0.0000   XYYZ       0.0000   YYYZ      -0.0000
      XXZZ    -190.7640   XYZZ      -4.0073   YYZZ     -94.8468
      XZZZ       0.0000   YZZZ      -0.0000   ZZZZ     -74.1312
 -----------------------------------------------------------------
 Calculating analytic gradient of the CIS energy
 CIS relaxed dipole moment
            1
    1   2.1594516
    2  -2.7098006
    3   0.0000000
	Magnitude:	 3.465 au	 8.807 Debye
 CIS 2 State Energy is -360.3977161340
 Gradient of the state energy (including CIS Excitation Energy)
            1           2           3           4           5           6
    1  -0.0057032  -0.0084780   0.0265501  -0.0037347   0.0084380   0.0182601
    2  -0.0205164   0.0290934   0.0044962  -0.0053772   0.0818967  -0.0479850
    3  -0.0000000  -0.0000000   0.0000000   0.0000000  -0.0000000   0.0000000
            7           8           9          10          11          12
    1  -0.0154504  -0.0420712   0.0078402   0.0098539  -0.0067714  -0.0065260
    2  -0.0634489   0.0145361   0.0033929  -0.0000257   0.0035836  -0.0037526
    3   0.0000000  -0.0000000  -0.0000000   0.0000000   0.0000000   0.0000000
           13          14          15          16
    1   0.0030501   0.0119388   0.0031424  -0.0003386
    2  -0.0075487  -0.0051402   0.0092959   0.0075000
    3   0.0000000   0.0000000  -0.0000000   0.0000000
 Gradient time:  CPU 24.56 s  wall 7.35 s
 Geometry Optimization Parameters
   NAtoms,    NIC,     NZ,  NCons,   NDum,   NFix, NCnnct, MaxDiis
       16     116       0       0       0       0       0       0


** GEOMETRY OPTIMIZATION IN DELOCALIZED INTERNAL COORDINATES **
   Searching for a Minimum

   Optimization Cycle:   1

                       Coordinates (Angstroms)
     ATOM                X               Y               Z
      1  C         2.1545809193   -0.6917179572    0.0000000000
      2  C         2.1305971189    0.7179781205    0.0000000000
      3  C         0.9339220871    1.4159812583    0.0000000000
      4  C        -0.2479743579    0.6678555924    0.0000000000
      5  N        -1.5627747859    1.0780058536    0.0000000000
      6  H        -1.8769921819    2.0343963579    0.0000000000
      7  C        -2.3837811130   -0.0291882824    0.0000000000
      8  C        -1.6242659160   -1.1643248026    0.0000000000
      9  C        -0.2487601923   -0.7471139518    0.0000000000
     10  C         0.9806332983   -1.4261590938    0.0000000000
     11  H         3.1112175340   -1.2060312385    0.0000000000
     12  H         3.0683071256    1.2661973878    0.0000000000
     13  H         0.9170087673    2.5026666484    0.0000000000
     14  H        -3.4586700515    0.0881214642    0.0000000000
     15  H        -1.9986021312   -2.1786315579    0.0000000000
     16  H         1.0074433715   -2.5126253373    0.0000000000
   Point Group: cs    Number of degrees of freedom:    29


   Energy is   -360.397716134


 Attempting to Generate Delocalized Internal Coordinates

 29 Hessian modes will be used to form the next step
  Hessian Eigenvalues:
     0.160000    0.160000    0.160000    0.160000    0.160000    0.160000
     0.160000    0.220000    0.221874    0.226615    0.240154    0.246535
     0.351831    0.351854    0.352547    0.352641    0.358411    0.358524
     0.370243    0.381736    0.421745    0.429383    0.450758    0.465320
     0.465358    0.471677    0.475377    0.478120    0.507735

 Minimum Search - Taking Simple RFO Step
 Searching for Lamda that Minimizes Along All modes
 Value Taken    Lamda =  -0.01731441
 Step Taken.  Stepsize is  0.194660

                             Maximum     Tolerance    Cnvgd?
         Gradient           0.040040      0.000300      NO
         Displacement       0.090298      0.001200      NO
         Energy change     *********      0.000001      NO


 New Cartesian Coordinates Obtained by Inverse Iteration

 Displacement from previous Coordinates is:  0.256226
 ----------------------------------------------------------------
             Standard Nuclear Orientation (Angstroms)
    I     Atom           X                Y                Z
 ----------------------------------------------------------------
    1      C       2.1732784345    -0.6974730606     0.0000000000
    2      C       2.1261342847     0.6973313005     0.0000000000
    3      C       0.9044585836     1.3987601248     0.0000000000
    4      C      -0.2601958873     0.6548872927     0.0000000000
    5      N      -1.5741409407     1.0694101805     0.0000000000
    6      H      -1.9142021764     2.0764577232     0.0000000000
    7      C      -2.3729421170     0.0052441489     0.0000000000
    8      C      -1.5940013560    -1.1635523088     0.0000000000
    9      C      -0.2369923743    -0.7585354811     0.0000000000
   10      C       0.9921665130    -1.4413844550     0.0000000000
   11      H       3.1448411823    -1.2070392442     0.0000000000
   12      H       3.0666827841     1.2618937844     0.0000000000
   13      H       0.8627019359     2.4956747702     0.0000000000
   14      H      -3.4617949444     0.1525436876     0.0000000000
   15      H      -1.9746929640    -2.1902394520     0.0000000000
   16      H       1.0205885346    -2.5385685496     0.0000000000
 ----------------------------------------------------------------
 Molecular Point Group                 Cs    NOp =  2
 Largest Abelian Subgroup              Cs    NOp =  2
 Nuclear Repulsion Energy =   400.8662148864 hartrees
 There are       31 alpha and       31 beta electrons
 Applying Cartesian multipole field
    Component          Value
    ---------          -----
     (2,0,0)        1.00000E-11
     (0,2,0)        2.00000E-11
     (0,0,2)       -3.00000E-11
 Nucleus-field energy     =     0.0000000117 hartrees
 Requested basis set is 6-31+G(d)
 There are 59 shells and 185 basis functions
 Smallest overlap matrix eigenvalue = 1.17E-06
 Guess MOs from SCF MO coefficient file

 -----------------------------------------------------------------------
  General SCF calculation program by
  Eric Jon Sundstrom, Paul Horn, Yuezhi Mao, Dmitri Zuev, Alec White,
  David Stuck, Shaama M.S., Shane Yost, Joonho Lee, David Small,
  Daniel Levine, Susi Lehtola, Hugh Burton, Evgeny Epifanovsky
 -----------------------------------------------------------------------
 Exchange:  Slater      Correlation:  VWN5
 Using SG-1 standard quadrature grid
 using 4 threads for integral computing
 -------------------------------------------------------
 OpenMP Integral computing Module                
 Release: version 1.0, May 2013, Q-Chem Inc. Pittsburgh 
 -------------------------------------------------------
 -------------------------------------------------------
 OpenMP BLAS3 based DFT computing Module                
 Release: version 1.0, May 2013, Q-Chem Inc. Pittsburgh 
 -------------------------------------------------------
 A restricted SCF calculation will be
 performed using DIIS
 SCF converges when DIIS error is below 1.0e-08
 ---------------------------------------
  Cycle       Energy         DIIS error
 ---------------------------------------
    1    -360.5633267998      7.61e-04  
    2    -360.5667620120      3.75e-04  
    3    -360.5663337868      4.90e-04  
    4    -360.5672460917      1.50e-04  
    5    -360.5673363694      6.08e-05  
    6    -360.5673532371      1.38e-05  
    7    -360.5673541049      4.15e-06  
    8    -360.5673541771      1.46e-06  
    9    -360.5673541864      2.23e-07  
   10    -360.5673541865      1.63e-07  
   11    -360.5673541867      2.08e-08  
   12    -360.5673541867      1.22e-08  
   13    -360.5673541867      1.75e-09  Convergence criterion met
 ---------------------------------------
 SCF time:   CPU 29.22s  wall 8.00s 
 SCF   energy in the final basis set =     -360.5673541867
 Total energy in the final basis set =     -360.5673541867
 A cutoff of  1.0D-12 yielded   1657 shell pairs
 There are     17105 function pairs

 Exchange:  Slater      Correlation:  VWN5
 Using SG-1 standard quadrature grid
 Direct TDDFT/TDA calculation will be performed
 Singlet excitation energies requested
 CIS energy converged when residual is below 10e- 6
 ---------------------------------------------------
 Iter    Rts Conv    Rts Left    Ttl Dev     Max Dev
 ---------------------------------------------------
   1         0           3      0.004008    0.001989
   2         0           3      0.003317    0.001679
   3         0           3      0.003012    0.001587
   4         1           2      0.001154    0.000806
   5         1           2      0.001264    0.000970
   6         1           2      0.000395    0.000282
   7         1           2      0.000090    0.000067
   8         1           2      0.000018    0.000012
   9         2           1      0.000004    0.000003
  10         3           0      0.000002    0.000001    Roots Converged
 ---------------------------------------------------

 ---------------------------------------------------
         TDDFT/TDA Excitation Energies              
 ---------------------------------------------------

 Excited state   1: excitation energy (eV) =    4.3074
 Total energy for state  1:                  -360.40905999 au
    Multiplicity: Singlet
    Trans. Mom.: -0.0000 X  -0.0000 Y  -0.0955 Z
    Strength   :     0.0009631106
    D( 31) --> V(  2) amplitude =  0.9995

 Excited state   2: excitation energy (eV) =    4.3598
 Total energy for state  2:                  -360.40713273 au
    Multiplicity: Singlet
    Trans. Mom.: -0.6463 X   0.5657 Y   0.0000 Z
    Strength   :     0.0787887400
    D( 29) --> V(  1) amplitude =  0.2573
    D( 31) --> V(  1) amplitude =  0.8863
    D( 31) --> V(  3) amplitude =  0.2165

 Excited state   3: excitation energy (eV) =    4.7305
 Total energy for state  3:                  -360.39351037 au
    Multiplicity: Singlet
    Trans. Mom.:  0.0380 X  -0.1718 Y  -0.0000 Z
    Strength   :     0.0035902704
    D( 30) --> V(  1) amplitude =  0.7096
    D( 31) --> V(  3) amplitude =  0.6745

 ---------------------------------------------------
 Calculating Relaxed Density
 ---------------------------------------------------
 Iter    Rts Conv    Rts Left    Ttl Dev     Max Dev
 ---------------------------------------------------
   1         0           3      0.002562    0.001256
   2         0           3      0.000925    0.000498
   3         0           3      0.000240    0.000111
   4         0           3      0.000083    0.000045
   5         0           3      0.000010    0.000005
   6         3           0      0.000000    0.000000    Roots Converged
 ---------------------------------------------------
  SETman timing summary (seconds)
  CPU time               127.16s
  System time             25.22s
  Wall time               34.95s

 --------------------------------------------------------------
             Orbital Energies (a.u.) and Symmetries
 --------------------------------------------------------------

 Alpha MOs, Restricted
 -- Occupied --                  
-13.938  -9.831  -9.827  -9.801  -9.795  -9.795  -9.794  -9.791
  1 A'    2 A'    3 A'    4 A'    5 A'    6 A'    7 A'    8 A'                 
 -9.787  -0.913  -0.765  -0.707  -0.671  -0.641  -0.570  -0.539
  9 A'   10 A'   11 A'   12 A'   13 A'   14 A'   15 A'   16 A'                 
 -0.525  -0.490  -0.433  -0.424  -0.397  -0.392  -0.384  -0.362
 17 A'   18 A'   19 A'   20 A'   21 A'    1 A"   22 A'   23 A'                 
 -0.349  -0.314  -0.307  -0.296  -0.253  -0.213  -0.183
 24 A'   25 A'    2 A"   26 A'    3 A"    4 A"    5 A"                         
 -- Virtual --                   
 -0.052  -0.025  -0.014   0.002   0.011   0.013   0.025   0.028
  6 A"   27 A'    7 A"   28 A'   29 A'    8 A"   30 A'   31 A'                 
  0.041   0.047   0.052   0.056   0.071   0.075   0.090   0.096
 32 A'    9 A"   33 A'   34 A'   10 A"   11 A"   35 A'   36 A'                 
  0.097   0.112   0.117   0.120   0.135   0.138   0.146   0.146
 37 A'   12 A"   38 A'   13 A"   39 A'   14 A"   40 A'   15 A"                 
  0.153   0.158   0.165   0.168   0.175   0.179   0.183   0.184
 41 A'   42 A'   43 A'   16 A"   44 A'   45 A'   46 A'   17 A"                 
  0.197   0.200   0.211   0.216   0.217   0.223   0.230   0.237
 47 A'   48 A'   49 A'   50 A'   18 A"   51 A'   52 A'   53 A'                 
  0.250   0.254   0.261   0.267   0.272   0.276   0.291   0.306
 54 A'   55 A'   56 A'   57 A'   58 A'   59 A'   60 A'   61 A'                 
  0.324   0.328   0.339   0.358   0.380   0.407   0.469   0.524
 62 A'   63 A'   64 A'   65 A'   66 A'   67 A'   68 A'   69 A'                 
  0.568   0.614   0.626   0.638   0.662   0.666   0.673   0.675
 70 A'   19 A"   71 A'   20 A"   21 A"   72 A'   73 A'   22 A"                 
  0.680   0.694   0.699   0.715   0.730   0.733   0.760   0.791
 74 A'   23 A"   75 A'   24 A"   25 A"   76 A'   77 A'   26 A"                 
  0.821   0.833   0.843   0.878   0.881   0.891   0.898   0.925
 78 A'   79 A'   80 A'   81 A'   82 A'   27 A"   83 A'   84 A'                 
  0.935   0.963   0.973   0.987   1.040   1.056   1.061   1.120
 85 A'   86 A'   87 A'   88 A'   89 A'   90 A'   91 A'   92 A'                 
  1.125   1.152   1.171   1.178   1.190   1.257   1.264   1.287
 93 A'   94 A'   95 A'   28 A"   96 A'   29 A"   97 A'   30 A"                 
  1.311   1.353   1.358   1.390   1.400   1.407   1.435   1.441
 98 A'   31 A"   99 A'  100 A'   32 A"   33 A"   34 A"   35 A"                 
  1.482   1.527   1.586   1.700   1.766   1.814   1.831   1.841
101 A'  102 A'  103 A'  104 A'  105 A'  106 A'   36 A"  107 A'                 
  1.869   1.907   1.912   1.938   1.987   2.017   2.068   2.090
108 A'  109 A'  110 A'   37 A"  111 A'  112 A'  113 A'  114 A'                 
  2.099   2.101   2.176   2.183   2.195   2.227   2.242   2.305
 38 A"  115 A'   39 A"   40 A"   41 A"  116 A'  117 A'   42 A"                 
  2.343   2.376   2.462   2.490   2.559   2.573   2.591   2.609
 43 A"  118 A'  119 A'   44 A"  120 A'  121 A'   45 A"  122 A'                 
  2.646   2.727   2.760   2.772   2.866   2.902   3.006   3.158
123 A'  124 A'  125 A'  126 A'  127 A'  128 A'  129 A'  130 A'                 
  3.351   4.062   4.162   4.192   4.226   4.268   4.303   4.388
131 A'  132 A'  133 A'  134 A'  135 A'  136 A'  137 A'  138 A'                 
  4.426   4.696
139 A'  140 A'                                                                 

 Beta MOs, Restricted
 -- Occupied --                  
-13.938  -9.831  -9.827  -9.801  -9.795  -9.795  -9.794  -9.791
  1 A'    2 A'    3 A'    4 A'    5 A'    6 A'    7 A'    8 A'                 
 -9.787  -0.913  -0.765  -0.707  -0.671  -0.641  -0.570  -0.539
  9 A'   10 A'   11 A'   12 A'   13 A'   14 A'   15 A'   16 A'                 
 -0.525  -0.490  -0.433  -0.424  -0.397  -0.392  -0.384  -0.362
 17 A'   18 A'   19 A'   20 A'   21 A'    1 A"   22 A'   23 A'                 
 -0.349  -0.314  -0.307  -0.296  -0.253  -0.213  -0.183
 24 A'   25 A'    2 A"   26 A'    3 A"    4 A"    5 A"                         
 -- Virtual --                   
 -0.052  -0.025  -0.014   0.002   0.011   0.013   0.025   0.028
  6 A"   27 A'    7 A"   28 A'   29 A'    8 A"   30 A'   31 A'                 
  0.041   0.047   0.052   0.056   0.071   0.075   0.090   0.096
 32 A'    9 A"   33 A'   34 A'   10 A"   11 A"   35 A'   36 A'                 
  0.097   0.112   0.117   0.120   0.135   0.138   0.146   0.146
 37 A'   12 A"   38 A'   13 A"   39 A'   14 A"   40 A'   15 A"                 
  0.153   0.158   0.165   0.168   0.175   0.179   0.183   0.184
 41 A'   42 A'   43 A'   16 A"   44 A'   45 A'   46 A'   17 A"                 
  0.197   0.200   0.211   0.216   0.217   0.223   0.230   0.237
 47 A'   48 A'   49 A'   50 A'   18 A"   51 A'   52 A'   53 A'                 
  0.250   0.254   0.261   0.267   0.272   0.276   0.291   0.306
 54 A'   55 A'   56 A'   57 A'   58 A'   59 A'   60 A'   61 A'                 
  0.324   0.328   0.339   0.358   0.380   0.407   0.469   0.524
 62 A'   63 A'   64 A'   65 A'   66 A'   67 A'   68 A'   69 A'                 
  0.568   0.614   0.626   0.638   0.662   0.666   0.673   0.675
 70 A'   19 A"   71 A'   20 A"   21 A"   72 A'   73 A'   22 A"                 
  0.680   0.694   0.699   0.715   0.730   0.733   0.760   0.791
 74 A'   23 A"   75 A'   24 A"   25 A"   76 A'   77 A'   26 A"                 
  0.821   0.833   0.843   0.878   0.881   0.891   0.898   0.925
 78 A'   79 A'   80 A'   81 A'   82 A'   27 A"   83 A'   84 A'                 
  0.935   0.963   0.973   0.987   1.040   1.056   1.061   1.120
 85 A'   86 A'   87 A'   88 A'   89 A'   90 A'   91 A'   92 A'                 
  1.125   1.152   1.171   1.178   1.190   1.257   1.264   1.287
 93 A'   94 A'   95 A'   28 A"   96 A'   29 A"   97 A'   30 A"                 
  1.311   1.353   1.358   1.390   1.400   1.407   1.435   1.441
 98 A'   31 A"   99 A'  100 A'   32 A"   33 A"   34 A"   35 A"                 
  1.482   1.527   1.586   1.700   1.766   1.814   1.831   1.841
101 A'  102 A'  103 A'  104 A'  105 A'  106 A'   36 A"  107 A'                 
  1.869   1.907   1.912   1.938   1.987   2.017   2.068   2.090
108 A'  109 A'  110 A'   37 A"  111 A'  112 A'  113 A'  114 A'                 
  2.099   2.101   2.176   2.183   2.195   2.227   2.242   2.305
 38 A"  115 A'   39 A"   40 A"   41 A"  116 A'  117 A'   42 A"                 
  2.343   2.376   2.462   2.490   2.559   2.573   2.591   2.609
 43 A"  118 A'  119 A'   44 A"  120 A'  121 A'   45 A"  122 A'                 
  2.646   2.727   2.760   2.772   2.866   2.902   3.006   3.158
123 A'  124 A'  125 A'  126 A'  127 A'  128 A'  129 A'  130 A'                 
  3.351   4.062   4.162   4.192   4.226   4.268   4.303   4.388
131 A'  132 A'  133 A'  134 A'  135 A'  136 A'  137 A'  138 A'                 
  4.426   4.696
139 A'  140 A'                                                                 
 --------------------------------------------------------------

          Ground-State Mulliken Net Atomic Charges

     Atom                 Charge (a.u.)
  ----------------------------------------
      1 C                     0.031779
      2 C                    -0.526950
      3 C                     0.009844
      4 C                    -1.331819
      5 N                    -0.383961
      6 H                     0.416836
      7 C                    -0.287585
      8 C                     0.092536
      9 C                     1.343126
     10 C                    -0.564691
     11 H                     0.195400
     12 H                     0.192783
     13 H                     0.193885
     14 H                     0.210556
     15 H                     0.206459
     16 H                     0.201801
  ----------------------------------------
  Sum of atomic charges =    -0.000000

 -----------------------------------------------------------------
                    Cartesian Multipole Moments
 -----------------------------------------------------------------
    Charge (ESU x 10^10)
                -0.0000
    Dipole Moment (Debye)
         X      -1.6399      Y       1.8503      Z       0.0000
       Tot       2.4724
    Quadrupole Moments (Debye-Ang)
        XX     -45.2976     XY      -4.2524     YY     -44.2896
        XZ       0.0000     YZ      -0.0000     ZZ     -59.1501
    Octopole Moments (Debye-Ang^2)
       XXX     -14.5721    XXY      10.0021    XYY      -9.2336
       YYY      12.2945    XXZ       0.0000    XYZ      -0.0000
       YYZ      -0.0000    XZZ      -2.1883    YZZ       2.5145
       ZZZ       0.0000
    Hexadecapole Moments (Debye-Ang^3)
      XXXX    -820.6449   XXXY     -23.8438   XXYY    -196.5163
      XYYY     -18.2702   YYYY    -373.0800   XXXZ       0.0000
      XXYZ       0.0000   XYYZ       0.0000   YYYZ      -0.0000
      XXZZ    -191.5313   XYZZ      -2.4195   YYZZ     -95.6121
      XZZZ       0.0000   YZZZ      -0.0000   ZZZZ     -74.6972
 -----------------------------------------------------------------
 Calculating analytic gradient of the CIS energy
 CIS relaxed dipole moment
            1
    1  -2.0566537
    2   0.5349560
    3   0.0000000
	Magnitude:	 2.125 au	 5.401 Debye
 CIS 2 State Energy is -360.4071327282
 Gradient of the state energy (including CIS Excitation Energy)
            1           2           3           4           5           6
    1  -0.0122254  -0.0077307  -0.0122502  -0.0141426   0.0205105  -0.0108592
    2  -0.0192320   0.0123048  -0.0366847   0.0421514  -0.0226729   0.0272491
    3  -0.0000000   0.0000000  -0.0000000  -0.0000000  -0.0000000   0.0000000
            7           8           9          10          11          12
    1   0.0385746   0.0053142  -0.0126167   0.0092439   0.0000410  -0.0002722
    2  -0.0118292   0.0102687  -0.0319455   0.0283241  -0.0001321  -0.0010979
    3   0.0000000  -0.0000000  -0.0000000   0.0000000   0.0000000  -0.0000000
           13          14          15          16
    1  -0.0028387  -0.0031955   0.0015031   0.0009440
    2  -0.0001869   0.0048069  -0.0012503  -0.0000736
    3  -0.0000000   0.0000000   0.0000000  -0.0000000
 Gradient time:  CPU 24.58 s  wall 7.61 s
 Geometry Optimization Parameters
   NAtoms,    NIC,     NZ,  NCons,   NDum,   NFix, NCnnct, MaxDiis
       16     116       0       0       0       0       0       0

 Cartesian Hessian Update
 Hessian Updated using BFGS Update


** GEOMETRY OPTIMIZATION IN DELOCALIZED INTERNAL COORDINATES **
   Searching for a Minimum

   Optimization Cycle:   2

                       Coordinates (Angstroms)
     ATOM                X               Y               Z
      1  C         2.1732784345   -0.6974730606    0.0000000000
      2  C         2.1261342847    0.6973313005    0.0000000000
      3  C         0.9044585836    1.3987601248    0.0000000000
      4  C        -0.2601958873    0.6548872927    0.0000000000
      5  N        -1.5741409407    1.0694101805    0.0000000000
      6  H        -1.9142021764    2.0764577232    0.0000000000
      7  C        -2.3729421170    0.0052441489    0.0000000000
      8  C        -1.5940013560   -1.1635523088    0.0000000000
      9  C        -0.2369923743   -0.7585354811    0.0000000000
     10  C         0.9921665130   -1.4413844550    0.0000000000
     11  H         3.1448411823   -1.2070392442    0.0000000000
     12  H         3.0666827841    1.2618937844    0.0000000000
     13  H         0.8627019359    2.4956747702    0.0000000000
     14  H        -3.4617949444    0.1525436876    0.0000000000
     15  H        -1.9746929640   -2.1902394520    0.0000000000
     16  H         1.0205885346   -2.5385685496    0.0000000000
   Point Group: cs    Number of degrees of freedom:    29


   Energy is   -360.407132728

 Hessian Updated using BFGS Update

 24 Hessian modes will be used to form the next step
  Hessian Eigenvalues:
     0.159243    0.162202    0.188831    0.220608    0.226319    0.243877
     0.246834    0.318068    0.351843    0.352175    0.352608    0.355613
     0.358569    0.368010    0.372707    0.397878    0.422401    0.433923
     0.454744    0.465724    0.470689    0.476493    0.492401    0.974580

 Minimum Search - Taking Simple RFO Step
 Searching for Lamda that Minimizes Along All modes
 Value Taken    Lamda =  -0.00918974
 Step Taken.  Stepsize is  0.162062

                             Maximum     Tolerance    Cnvgd?
         Gradient           0.032232      0.000300      NO
         Displacement       0.073818      0.001200      NO
         Energy change     -0.009417      0.000001      NO


 New Cartesian Coordinates Obtained by Inverse Iteration

 Displacement from previous Coordinates is:  0.198536
 ----------------------------------------------------------------
             Standard Nuclear Orientation (Angstroms)
    I     Atom           X                Y                Z
 ----------------------------------------------------------------
    1      C       2.1903600030    -0.6914922867     0.0000000000
    2      C       2.1439618075     0.6956352600     0.0000000000
    3      C       0.9140181447     1.4217219847     0.0000000000
    4      C      -0.2508517262     0.6411013139     0.0000000000
    5      N      -1.5919091170     1.0458288580     0.0000000000
    6      H      -1.9205505906     2.0576592637     0.0000000000
    7      C      -2.4160664373     0.0204369556     0.0000000000
    8      C      -1.5992910152    -1.1561283729     0.0000000000
    9      C      -0.2268242293    -0.7556731482     0.0000000000
   10      C       0.9983316184    -1.4630626844     0.0000000000
   11      H       3.1698237260    -1.1968782567     0.0000000000
   12      H       3.0910609547     1.2609892200     0.0000000000
   13      H       0.8728477584     2.5239184748     0.0000000000
   14      H      -3.5093790417     0.1643599668     0.0000000000
   15      H      -1.9837398325    -2.1876234109     0.0000000000
   16      H       1.0200974699    -2.5653826762     0.0000000000
 ----------------------------------------------------------------
 Molecular Point Group                 Cs    NOp =  2
 Largest Abelian Subgroup              Cs    NOp =  2
 Nuclear Repulsion Energy =   398.3435196982 hartrees
 There are       31 alpha and       31 beta electrons
 Applying Cartesian multipole field
    Component          Value
    ---------          -----
     (2,0,0)        1.00000E-11
     (0,2,0)        2.00000E-11
     (0,0,2)       -3.00000E-11
 Nucleus-field energy     =     0.0000000119 hartrees
 Requested basis set is 6-31+G(d)
 There are 59 shells and 185 basis functions
 Smallest overlap matrix eigenvalue = 1.27E-06
 Guess MOs from SCF MO coefficient file

 -----------------------------------------------------------------------
  General SCF calculation program by
  Eric Jon Sundstrom, Paul Horn, Yuezhi Mao, Dmitri Zuev, Alec White,
  David Stuck, Shaama M.S., Shane Yost, Joonho Lee, David Small,
  Daniel Levine, Susi Lehtola, Hugh Burton, Evgeny Epifanovsky
 -----------------------------------------------------------------------
 Exchange:  Slater      Correlation:  VWN5
 Using SG-1 standard quadrature grid
 using 4 threads for integral computing
 -------------------------------------------------------
 OpenMP Integral computing Module                
 Release: version 1.0, May 2013, Q-Chem Inc. Pittsburgh 
 -------------------------------------------------------
 -------------------------------------------------------
 OpenMP BLAS3 based DFT computing Module                
 Release: version 1.0, May 2013, Q-Chem Inc. Pittsburgh 
 -------------------------------------------------------
 A restricted SCF calculation will be
 performed using DIIS
 SCF converges when DIIS error is below 1.0e-08
 ---------------------------------------
  Cycle       Energy         DIIS error
 ---------------------------------------
    1    -360.5573330808      6.77e-04  
    2    -360.5599651579      2.39e-04  
    3    -360.5598101073      3.02e-04  
    4    -360.5601511876      9.73e-05  
    5    -360.5601947987      3.27e-05  
    6    -360.5601997951      1.00e-05  
    7    -360.5602002358      2.09e-06  
    8    -360.5602002503      1.03e-06  
    9    -360.5602002551      1.39e-07  
   10    -360.5602002552      7.25e-08  
   11    -360.5602002552      1.63e-08  
   12    -360.5602002552      7.65e-09  Convergence criterion met
 ---------------------------------------
 SCF time:   CPU 26.05s  wall 7.00s 
 SCF   energy in the final basis set =     -360.5602002552
 Total energy in the final basis set =     -360.5602002552
 A cutoff of  1.0D-12 yielded   1657 shell pairs
 There are     17105 function pairs

 Exchange:  Slater      Correlation:  VWN5
 Using SG-1 standard quadrature grid
 Direct TDDFT/TDA calculation will be performed
 Singlet excitation energies requested
 CIS energy converged when residual is below 10e- 6
 ---------------------------------------------------
 Iter    Rts Conv    Rts Left    Ttl Dev     Max Dev
 ---------------------------------------------------
   1         0           3      0.003979    0.001944
   2         0           3      0.003249    0.001733
   3         0           3      0.002188    0.001326
   4         1           2      0.001670    0.000969
   5         1           2      0.001368    0.000987
   6         1           2      0.000278    0.000179
   7         1           2      0.000077    0.000047
   8         1           2      0.000011    0.000006
   9         3           0      0.000002    0.000001    Roots Converged
 ---------------------------------------------------

 ---------------------------------------------------
         TDDFT/TDA Excitation Energies              
 ---------------------------------------------------

 Excited state   1: excitation energy (eV) =    4.0218
 Total energy for state  1:                  -360.41240207 au
    Multiplicity: Singlet
    Trans. Mom.:  0.5898 X  -0.5731 Y  -0.0000 Z
    Strength   :     0.0666320415
    D( 29) --> V(  1) amplitude =  0.2739
    D( 31) --> V(  1) amplitude =  0.8992

 Excited state   2: excitation energy (eV) =    4.2019
 Total energy for state  2:                  -360.40578471 au
    Multiplicity: Singlet
    Trans. Mom.:  0.0000 X   0.0000 Y   0.0908 Z
    Strength   :     0.0008483236
    D( 31) --> V(  2) amplitude =  0.9995

 Excited state   3: excitation energy (eV) =    4.6446
 Total energy for state  3:                  -360.38951604 au
    Multiplicity: Singlet
    Trans. Mom.:  0.1157 X  -0.1627 Y   0.0000 Z
    Strength   :     0.0045347331
    D( 30) --> V(  1) amplitude =  0.6858
    D( 31) --> V(  3) amplitude = -0.6924

 ---------------------------------------------------
 Calculating Relaxed Density
 ---------------------------------------------------
 Iter    Rts Conv    Rts Left    Ttl Dev     Max Dev
 ---------------------------------------------------
   1         0           3      0.002683    0.001322
   2         0           3      0.000947    0.000503
   3         0           3      0.000242    0.000114
   4         0           3      0.000081    0.000042
   5         0           3      0.000011    0.000006
   6         3           0      0.000000    0.000000    Roots Converged
 ---------------------------------------------------
  SETman timing summary (seconds)
  CPU time               122.61s
  System time             23.48s
  Wall time               33.12s

 --------------------------------------------------------------
             Orbital Energies (a.u.) and Symmetries
 --------------------------------------------------------------

 Alpha MOs, Restricted
 -- Occupied --                  
-13.938  -9.834  -9.831  -9.808  -9.801  -9.798  -9.797  -9.796
  1 A'    2 A'    3 A'    4 A'    5 A'    6 A'    7 A'    8 A'                 
 -9.789  -0.911  -0.764  -0.701  -0.672  -0.638  -0.572  -0.535
  9 A'   10 A'   11 A'   12 A'   13 A'   14 A'   15 A'   16 A'                 
 -0.522  -0.489  -0.433  -0.425  -0.395  -0.390  -0.386  -0.356
 17 A'   18 A'   19 A'   20 A'   21 A'    1 A"   22 A'   23 A'                 
 -0.351  -0.313  -0.307  -0.300  -0.249  -0.216  -0.179
 24 A'   25 A'    2 A"   26 A'    3 A"    4 A"    5 A"                         
 -- Virtual --                   
 -0.058  -0.025  -0.015   0.002   0.010   0.011   0.024   0.027
  6 A"   27 A'    7 A"   28 A'    8 A"   29 A'   30 A'   31 A'                 
  0.041   0.047   0.051   0.055   0.071   0.075   0.089   0.094
 32 A'    9 A"   33 A'   34 A'   10 A"   11 A"   35 A'   36 A'                 
  0.096   0.111   0.117   0.119   0.134   0.135   0.145   0.146
 37 A'   12 A"   38 A'   13 A"   39 A'   14 A"   15 A"   40 A'                 
  0.150   0.153   0.163   0.167   0.174   0.177   0.183   0.184
 41 A'   42 A'   43 A'   16 A"   44 A'   45 A'   46 A'   17 A"                 
  0.195   0.198   0.209   0.215   0.217   0.219   0.228   0.236
 47 A'   48 A'   49 A'   50 A'   18 A"   51 A'   52 A'   53 A'                 
  0.248   0.252   0.258   0.263   0.271   0.272   0.289   0.306
 54 A'   55 A'   56 A'   57 A'   58 A'   59 A'   60 A'   61 A'                 
  0.318   0.325   0.326   0.355   0.371   0.406   0.461   0.519
 62 A'   63 A'   64 A'   65 A'   66 A'   67 A'   68 A'   69 A'                 
  0.556   0.613   0.622   0.638   0.663   0.664   0.670   0.674
 70 A'   19 A"   71 A'   20 A"   21 A"   72 A'   73 A'   22 A"                 
  0.674   0.693   0.696   0.712   0.727   0.729   0.754   0.789
 74 A'   23 A"   75 A'   24 A"   76 A'   25 A"   77 A'   26 A"                 
  0.819   0.828   0.835   0.875   0.883   0.890   0.897   0.920
 78 A'   79 A'   80 A'   81 A'   82 A'   27 A"   83 A'   84 A'                 
  0.932   0.964   0.974   0.984   1.038   1.056   1.064   1.115
 85 A'   86 A'   87 A'   88 A'   89 A'   90 A'   91 A'   92 A'                 
  1.120   1.153   1.170   1.179   1.187   1.256   1.261   1.289
 93 A'   94 A'   95 A'   28 A"   96 A'   29 A"   97 A'   30 A"                 
  1.306   1.340   1.344   1.379   1.407   1.415   1.427   1.437
 98 A'   99 A'   31 A"  100 A'   32 A"   33 A"   34 A"   35 A"                 
  1.477   1.511   1.564   1.710   1.754   1.796   1.828   1.831
101 A'  102 A'  103 A'  104 A'  105 A'  106 A'   36 A"  107 A'                 
  1.852   1.900   1.904   1.930   1.957   1.994   2.050   2.090
108 A'  109 A'  110 A'   37 A"  111 A'  112 A'  113 A'   38 A"                 
  2.093   2.108   2.152   2.172   2.204   2.212   2.230   2.294
114 A'  115 A'   39 A"   40 A"   41 A"  116 A'  117 A'   42 A"                 
  2.323   2.373   2.437   2.478   2.541   2.569   2.572   2.588
 43 A"  118 A'  119 A'   44 A"  120 A'  121 A'   45 A"  122 A'                 
  2.643   2.710   2.739   2.763   2.859   2.890   2.972   3.146
123 A'  124 A'  125 A'  126 A'  127 A'  128 A'  129 A'  130 A'                 
  3.316   4.056   4.151   4.186   4.220   4.260   4.301   4.380
131 A'  132 A'  133 A'  134 A'  135 A'  136 A'  137 A'  138 A'                 
  4.423   4.683
139 A'  140 A'                                                                 

 Beta MOs, Restricted
 -- Occupied --                  
-13.938  -9.834  -9.831  -9.808  -9.801  -9.798  -9.797  -9.796
  1 A'    2 A'    3 A'    4 A'    5 A'    6 A'    7 A'    8 A'                 
 -9.789  -0.911  -0.764  -0.701  -0.672  -0.638  -0.572  -0.535
  9 A'   10 A'   11 A'   12 A'   13 A'   14 A'   15 A'   16 A'                 
 -0.522  -0.489  -0.433  -0.425  -0.395  -0.390  -0.386  -0.356
 17 A'   18 A'   19 A'   20 A'   21 A'    1 A"   22 A'   23 A'                 
 -0.351  -0.313  -0.307  -0.300  -0.249  -0.216  -0.179
 24 A'   25 A'    2 A"   26 A'    3 A"    4 A"    5 A"                         
 -- Virtual --                   
 -0.058  -0.025  -0.015   0.002   0.010   0.011   0.024   0.027
  6 A"   27 A'    7 A"   28 A'    8 A"   29 A'   30 A'   31 A'                 
  0.041   0.047   0.051   0.055   0.071   0.075   0.089   0.094
 32 A'    9 A"   33 A'   34 A'   10 A"   11 A"   35 A'   36 A'                 
  0.096   0.111   0.117   0.119   0.134   0.135   0.145   0.146
 37 A'   12 A"   38 A'   13 A"   39 A'   14 A"   15 A"   40 A'                 
  0.150   0.153   0.163   0.167   0.174   0.177   0.183   0.184
 41 A'   42 A'   43 A'   16 A"   44 A'   45 A'   46 A'   17 A"                 
  0.195   0.198   0.209   0.215   0.217   0.219   0.228   0.236
 47 A'   48 A'   49 A'   50 A'   18 A"   51 A'   52 A'   53 A'                 
  0.248   0.252   0.258   0.263   0.271   0.272   0.289   0.306
 54 A'   55 A'   56 A'   57 A'   58 A'   59 A'   60 A'   61 A'                 
  0.318   0.325   0.326   0.355   0.371   0.406   0.461   0.519
 62 A'   63 A'   64 A'   65 A'   66 A'   67 A'   68 A'   69 A'                 
  0.556   0.613   0.622   0.638   0.663   0.664   0.670   0.674
 70 A'   19 A"   71 A'   20 A"   21 A"   72 A'   73 A'   22 A"                 
  0.674   0.693   0.696   0.712   0.727   0.729   0.754   0.789
 74 A'   23 A"   75 A'   24 A"   76 A'   25 A"   77 A'   26 A"                 
  0.819   0.828   0.835   0.875   0.883   0.890   0.897   0.920
 78 A'   79 A'   80 A'   81 A'   82 A'   27 A"   83 A'   84 A'                 
  0.932   0.964   0.974   0.984   1.038   1.056   1.064   1.115
 85 A'   86 A'   87 A'   88 A'   89 A'   90 A'   91 A'   92 A'                 
  1.120   1.153   1.170   1.179   1.187   1.256   1.261   1.289
 93 A'   94 A'   95 A'   28 A"   96 A'   29 A"   97 A'   30 A"                 
  1.306   1.340   1.344   1.379   1.407   1.415   1.427   1.437
 98 A'   99 A'   31 A"  100 A'   32 A"   33 A"   34 A"   35 A"                 
  1.477   1.511   1.564   1.710   1.754   1.796   1.828   1.831
101 A'  102 A'  103 A'  104 A'  105 A'  106 A'   36 A"  107 A'                 
  1.852   1.900   1.904   1.930   1.957   1.994   2.050   2.090
108 A'  109 A'  110 A'   37 A"  111 A'  112 A'  113 A'   38 A"                 
  2.093   2.108   2.152   2.172   2.204   2.212   2.230   2.294
114 A'  115 A'   39 A"   40 A"   41 A"  116 A'  117 A'   42 A"                 
  2.323   2.373   2.437   2.478   2.541   2.569   2.572   2.588
 43 A"  118 A'  119 A'   44 A"  120 A'  121 A'   45 A"  122 A'                 
  2.643   2.710   2.739   2.763   2.859   2.890   2.972   3.146
123 A'  124 A'  125 A'  126 A'  127 A'  128 A'  129 A'  130 A'                 
  3.316   4.056   4.151   4.186   4.220   4.260   4.301   4.380
131 A'  132 A'  133 A'  134 A'  135 A'  136 A'  137 A'  138 A'                 
  4.423   4.683
139 A'  140 A'                                                                 
 --------------------------------------------------------------

          Ground-State Mulliken Net Atomic Charges

     Atom                 Charge (a.u.)
  ----------------------------------------
      1 C                    -0.010231
      2 C                    -0.461826
      3 C                    -0.095820
      4 C                    -1.335313
      5 N                    -0.381811
      6 H                     0.413234
      7 C                    -0.233978
      8 C                    -0.033412
      9 C                     1.412284
     10 C                    -0.487203
     11 H                     0.196177
     12 H                     0.193791
     13 H                     0.198749
     14 H                     0.217115
     15 H                     0.202534
     16 H                     0.205710
  ----------------------------------------
  Sum of atomic charges =    -0.000000

 -----------------------------------------------------------------
                    Cartesian Multipole Moments
 -----------------------------------------------------------------
    Charge (ESU x 10^10)
                -0.0000
    Dipole Moment (Debye)
         X      -1.5591      Y       1.9144      Z      -0.0000
       Tot       2.4689
    Quadrupole Moments (Debye-Ang)
        XX     -44.8877     XY      -4.3834     YY     -44.4765
        XZ       0.0000     YZ      -0.0000     ZZ     -59.4594
    Octopole Moments (Debye-Ang^2)
       XXX     -16.2586    XXY      10.6192    XYY      -8.1084
       YYY      12.4676    XXZ       0.0000    XYZ       0.0000
       YYZ       0.0000    XZZ      -2.0730    YZZ       2.7041
       ZZZ       0.0000
    Hexadecapole Moments (Debye-Ang^3)
      XXXX    -826.3522   XXXY     -25.3227   XXYY    -201.4740
      XYYY     -18.1216   YYYY    -374.6858   XXXZ       0.0000
      XXYZ      -0.0000   XYYZ       0.0000   YYYZ      -0.0000
      XXZZ    -195.6280   XYZZ      -2.8243   YYZZ     -96.7282
      XZZZ       0.0000   YZZZ      -0.0000   ZZZZ     -75.7168
 -----------------------------------------------------------------
 Calculating analytic gradient of the CIS energy
 CIS relaxed dipole moment
            1
    1   2.1982184
    2  -2.6841499
    3  -0.0000000
	Magnitude:	 3.469 au	 8.818 Debye
 CIS 2 State Energy is -360.4057847146
 Gradient of the state energy (including CIS Excitation Energy)
            1           2           3           4           5           6
    1   0.0122176   0.0084954   0.0054564  -0.0030383  -0.0132354   0.0082326
    2   0.0162845  -0.0137373   0.0182181  -0.0314881   0.0160181  -0.0246746
    3  -0.0000000   0.0000000  -0.0000000  -0.0000000   0.0000000  -0.0000000
            7           8           9          10          11          12
    1  -0.0267038  -0.0016607   0.0126667  -0.0074702   0.0033259   0.0034715
    2   0.0057765   0.0108824   0.0206065  -0.0139778  -0.0005819   0.0011054
    3  -0.0000000  -0.0000000   0.0000000   0.0000000  -0.0000000  -0.0000000
           13          14          15          16
    1   0.0004226  -0.0001602  -0.0014765  -0.0005436
    2   0.0041692  -0.0017830  -0.0027917  -0.0040261
    3   0.0000000   0.0000000  -0.0000000   0.0000000
 Gradient time:  CPU 23.97 s  wall 7.32 s
 Geometry Optimization Parameters
   NAtoms,    NIC,     NZ,  NCons,   NDum,   NFix, NCnnct, MaxDiis
       16     116       0       0       0       0       0       0

 Cartesian Hessian Update
 Hessian Updated using BFGS Update


** GEOMETRY OPTIMIZATION IN DELOCALIZED INTERNAL COORDINATES **
   Searching for a Minimum

   Optimization Cycle:   3

                       Coordinates (Angstroms)
     ATOM                X               Y               Z
      1  C         2.1903600030   -0.6914922867    0.0000000000
      2  C         2.1439618075    0.6956352600    0.0000000000
      3  C         0.9140181447    1.4217219847    0.0000000000
      4  C        -0.2508517262    0.6411013139    0.0000000000
      5  N        -1.5919091170    1.0458288580    0.0000000000
      6  H        -1.9205505906    2.0576592637    0.0000000000
      7  C        -2.4160664373    0.0204369556    0.0000000000
      8  C        -1.5992910152   -1.1561283729    0.0000000000
      9  C        -0.2268242293   -0.7556731482    0.0000000000
     10  C         0.9983316184   -1.4630626844    0.0000000000
     11  H         3.1698237260   -1.1968782567    0.0000000000
     12  H         3.0910609547    1.2609892200    0.0000000000
     13  H         0.8728477584    2.5239184748    0.0000000000
     14  H        -3.5093790417    0.1643599668    0.0000000000
     15  H        -1.9837398325   -2.1876234109    0.0000000000
     16  H         1.0200974699   -2.5653826762    0.0000000000
   Point Group: cs    Number of degrees of freedom:    29


   Energy is   -360.405784715

 Hessian Updated using BFGS Update

 25 Hessian modes will be used to form the next step
  Hessian Eigenvalues:
     0.159298    0.160085    0.161922    0.208407    0.220233    0.238890
     0.245563    0.246937    0.349995    0.351845    0.352311    0.352674
     0.356003    0.358615    0.369527    0.372764    0.401187    0.422340
     0.433582    0.454830    0.466578    0.472928    0.477023    0.490988
     1.354560

 Minimum Search - Taking Simple RFO Step
 Searching for Lamda that Minimizes Along All modes
 Value Taken    Lamda =  -0.00371608
 Step Taken.  Stepsize is  0.079919

                             Maximum     Tolerance    Cnvgd?
         Gradient           0.029619      0.000300      NO
         Displacement       0.039829      0.001200      NO
         Energy change      0.001348      0.000001      NO


 New Cartesian Coordinates Obtained by Inverse Iteration

 Displacement from previous Coordinates is:  0.119542
 ----------------------------------------------------------------
             Standard Nuclear Orientation (Angstroms)
    I     Atom           X                Y                Z
 ----------------------------------------------------------------
    1      C       2.1727041745    -0.6917381800     0.0000000000
    2      C       2.1324840265     0.7008602888     0.0000000000
    3      C       0.9145052234     1.4234919225     0.0000000000
    4      C      -0.2456807334     0.6494322720     0.0000000000
    5      N      -1.5789448112     1.0552752807     0.0000000000
    6      H      -1.9122896781     2.0683907145     0.0000000000
    7      C      -2.3924527815     0.0107232357     0.0000000000
    8      C      -1.5973351377    -1.1706554169     0.0000000000
    9      C      -0.2324440846    -0.7578826565     0.0000000000
   10      C       0.9904565803    -1.4580970369     0.0000000000
   11      H       3.1452171188    -1.2003339831     0.0000000000
   12      H       3.0752955436     1.2640872117     0.0000000000
   13      H       0.8792369118     2.5204614371     0.0000000000
   14      H      -3.4822610818     0.1527357673     0.0000000000
   15      H      -1.9825790519    -2.1963325337     0.0000000000
   16      H       1.0159772737    -2.5550078616     0.0000000000
 ----------------------------------------------------------------
 Molecular Point Group                 Cs    NOp =  2
 Largest Abelian Subgroup              Cs    NOp =  2
 Nuclear Repulsion Energy =   399.3177370026 hartrees
 There are       31 alpha and       31 beta electrons
 Applying Cartesian multipole field
    Component          Value
    ---------          -----
     (2,0,0)        1.00000E-11
     (0,2,0)        2.00000E-11
     (0,0,2)       -3.00000E-11
 Nucleus-field energy     =     0.0000000118 hartrees
 Requested basis set is 6-31+G(d)
 There are 59 shells and 185 basis functions
 Smallest overlap matrix eigenvalue = 1.27E-06
 Guess MOs from SCF MO coefficient file

 -----------------------------------------------------------------------
  General SCF calculation program by
  Eric Jon Sundstrom, Paul Horn, Yuezhi Mao, Dmitri Zuev, Alec White,
  David Stuck, Shaama M.S., Shane Yost, Joonho Lee, David Small,
  Daniel Levine, Susi Lehtola, Hugh Burton, Evgeny Epifanovsky
 -----------------------------------------------------------------------
 Exchange:  Slater      Correlation:  VWN5
 Using SG-1 standard quadrature grid
 using 4 threads for integral computing
 -------------------------------------------------------
 OpenMP Integral computing Module                
 Release: version 1.0, May 2013, Q-Chem Inc. Pittsburgh 
 -------------------------------------------------------
 -------------------------------------------------------
 OpenMP BLAS3 based DFT computing Module                
 Release: version 1.0, May 2013, Q-Chem Inc. Pittsburgh 
 -------------------------------------------------------
 A restricted SCF calculation will be
 performed using DIIS
 SCF converges when DIIS error is below 1.0e-08
 ---------------------------------------
  Cycle       Energy         DIIS error
 ---------------------------------------
    1    -360.5641658220      3.09e-04  
    2    -360.5647031139      1.37e-04  
    3    -360.5646267298      1.84e-04  
    4    -360.5647733592      4.70e-05  
    5    -360.5647837409      1.32e-05  
    6    -360.5647844761      4.06e-06  
    7    -360.5647845473      1.11e-06  
    8    -360.5647845514      5.37e-07  
    9    -360.5647845527      1.36e-07  
   10    -360.5647845528      4.31e-08  
   11    -360.5647845528      1.26e-08  
   12    -360.5647845528      2.49e-09  Convergence criterion met
 ---------------------------------------
 SCF time:   CPU 26.39s  wall 7.00s 
 SCF   energy in the final basis set =     -360.5647845528
 Total energy in the final basis set =     -360.5647845528
 A cutoff of  1.0D-12 yielded   1657 shell pairs
 There are     17105 function pairs

 Exchange:  Slater      Correlation:  VWN5
 Using SG-1 standard quadrature grid
 Direct TDDFT/TDA calculation will be performed
 Singlet excitation energies requested
 CIS energy converged when residual is below 10e- 6
 ---------------------------------------------------
 Iter    Rts Conv    Rts Left    Ttl Dev     Max Dev
 ---------------------------------------------------
   1         0           3      0.003983    0.001960
   2         0           3      0.003073    0.001538
   3         0           3      0.001870    0.001210
   4         1           2      0.001580    0.001115
   5         1           2      0.000696    0.000553
   6         1           2      0.000189    0.000150
   7         1           2      0.000043    0.000035
   8         1           2      0.000011    0.000009
   9         2           1      0.000002    0.000001
  10         3           0      0.000001    0.000001    Roots Converged
 ---------------------------------------------------

 ---------------------------------------------------
         TDDFT/TDA Excitation Energies              
 ---------------------------------------------------

 Excited state   1: excitation energy (eV) =    4.1708
 Total energy for state  1:                  -360.41151029 au
    Multiplicity: Singlet
    Trans. Mom.:  0.6008 X  -0.5646 Y  -0.0000 Z
    Strength   :     0.0694579639
    D( 29) --> V(  1) amplitude = -0.2668
    D( 31) --> V(  1) amplitude =  0.8944

 Excited state   2: excitation energy (eV) =    4.2552
 Total energy for state  2:                  -360.40840858 au
    Multiplicity: Singlet
    Trans. Mom.:  0.0000 X  -0.0000 Y   0.0926 Z
    Strength   :     0.0008941199
    D( 31) --> V(  2) amplitude =  0.9995

 Excited state   3: excitation energy (eV) =    4.6743
 Total energy for state  3:                  -360.39300884 au
    Multiplicity: Singlet
    Trans. Mom.: -0.0545 X   0.1711 Y   0.0000 Z
    Strength   :     0.0036929296
    D( 30) --> V(  1) amplitude =  0.7036
    D( 31) --> V(  3) amplitude =  0.6771

 ---------------------------------------------------
 Calculating Relaxed Density
 ---------------------------------------------------
 Iter    Rts Conv    Rts Left    Ttl Dev     Max Dev
 ---------------------------------------------------
   1         0           3      0.002651    0.001304
   2         0           3      0.000942    0.000505
   3         0           3      0.000244    0.000112
   4         0           3      0.000083    0.000043
   5         0           3      0.000011    0.000005
   6         3           0      0.000000    0.000000    Roots Converged
 ---------------------------------------------------
  SETman timing summary (seconds)
  CPU time               125.80s
  System time             24.72s
  Wall time               34.35s

 --------------------------------------------------------------
             Orbital Energies (a.u.) and Symmetries
 --------------------------------------------------------------

 Alpha MOs, Restricted
 -- Occupied --                  
-13.938  -9.833  -9.829  -9.805  -9.798  -9.797  -9.796  -9.793
  1 A'    2 A'    3 A'    4 A'    5 A'    6 A'    7 A'    8 A'                 
 -9.789  -0.910  -0.764  -0.703  -0.670  -0.640  -0.570  -0.536
  9 A'   10 A'   11 A'   12 A'   13 A'   14 A'   15 A'   16 A'                 
 -0.523  -0.490  -0.433  -0.423  -0.396  -0.390  -0.387  -0.360
 17 A'   18 A'   19 A'   20 A'   21 A'    1 A"   22 A'   23 A'                 
 -0.349  -0.311  -0.307  -0.300  -0.251  -0.214  -0.181
 24 A'   25 A'    2 A"   26 A'    3 A"    4 A"    5 A"                         
 -- Virtual --                   
 -0.055  -0.025  -0.015   0.002   0.011   0.011   0.025   0.027
  6 A"   27 A'    7 A"   28 A'    8 A"   29 A'   30 A'   31 A'                 
  0.041   0.048   0.051   0.055   0.071   0.075   0.090   0.095
 32 A'    9 A"   33 A'   34 A'   10 A"   11 A"   35 A'   36 A'                 
  0.097   0.111   0.116   0.119   0.135   0.136   0.145   0.146
 37 A'   12 A"   38 A'   13 A"   39 A'   14 A"   15 A"   40 A'                 
  0.152   0.155   0.164   0.168   0.175   0.178   0.183   0.184
 41 A'   42 A'   43 A'   16 A"   44 A'   45 A'   46 A'   17 A"                 
  0.197   0.199   0.210   0.215   0.217   0.220   0.229   0.236
 47 A'   48 A'   49 A'   50 A'   18 A"   51 A'   52 A'   53 A'                 
  0.249   0.253   0.260   0.266   0.271   0.274   0.289   0.306
 54 A'   55 A'   56 A'   57 A'   58 A'   59 A'   60 A'   61 A'                 
  0.321   0.325   0.331   0.356   0.374   0.406   0.463   0.521
 62 A'   63 A'   64 A'   65 A'   66 A'   67 A'   68 A'   69 A'                 
  0.560   0.613   0.622   0.638   0.663   0.664   0.671   0.675
 70 A'   19 A"   71 A'   20 A"   21 A"   72 A'   73 A'   22 A"                 
  0.676   0.693   0.697   0.713   0.728   0.729   0.757   0.790
 74 A'   23 A"   75 A'   24 A"   76 A'   25 A"   77 A'   26 A"                 
  0.819   0.831   0.839   0.876   0.883   0.890   0.898   0.921
 78 A'   79 A'   80 A'   81 A'   82 A'   27 A"   83 A'   84 A'                 
  0.935   0.964   0.973   0.985   1.038   1.057   1.064   1.117
 85 A'   86 A'   87 A'   88 A'   89 A'   90 A'   91 A'   92 A'                 
  1.123   1.152   1.171   1.179   1.187   1.256   1.263   1.288
 93 A'   94 A'   95 A'   28 A"   96 A'   29 A"   97 A'   30 A"                 
  1.308   1.345   1.349   1.381   1.406   1.408   1.430   1.437
 98 A'   99 A'   31 A"  100 A'   32 A"   33 A"   34 A"   35 A"                 
  1.478   1.516   1.575   1.706   1.760   1.805   1.828   1.837
101 A'  102 A'  103 A'  104 A'  105 A'  106 A'   36 A"  107 A'                 
  1.854   1.902   1.910   1.937   1.973   2.001   2.062   2.091
108 A'  109 A'  110 A'   37 A"  111 A'  112 A'  113 A'  114 A'                 
  2.094   2.097   2.164   2.171   2.198   2.215   2.235   2.300
 38 A"  115 A'   39 A"   40 A"   41 A"  116 A'  117 A'   42 A"                 
  2.329   2.375   2.444   2.479   2.546   2.570   2.578   2.597
 43 A"  118 A'  119 A'   44 A"  120 A'  121 A'   45 A"  122 A'                 
  2.646   2.716   2.749   2.762   2.861   2.898   2.986   3.144
123 A'  124 A'  125 A'  126 A'  127 A'  128 A'  129 A'  130 A'                 
  3.331   4.055   4.157   4.192   4.222   4.262   4.300   4.383
131 A'  132 A'  133 A'  134 A'  135 A'  136 A'  137 A'  138 A'                 
  4.426   4.686
139 A'  140 A'                                                                 

 Beta MOs, Restricted
 -- Occupied --                  
-13.938  -9.833  -9.829  -9.805  -9.798  -9.797  -9.796  -9.793
  1 A'    2 A'    3 A'    4 A'    5 A'    6 A'    7 A'    8 A'                 
 -9.789  -0.910  -0.764  -0.703  -0.670  -0.640  -0.570  -0.536
  9 A'   10 A'   11 A'   12 A'   13 A'   14 A'   15 A'   16 A'                 
 -0.523  -0.490  -0.433  -0.423  -0.396  -0.390  -0.387  -0.360
 17 A'   18 A'   19 A'   20 A'   21 A'    1 A"   22 A'   23 A'                 
 -0.349  -0.311  -0.307  -0.300  -0.251  -0.214  -0.181
 24 A'   25 A'    2 A"   26 A'    3 A"    4 A"    5 A"                         
 -- Virtual --                   
 -0.055  -0.025  -0.015   0.002   0.011   0.011   0.025   0.027
  6 A"   27 A'    7 A"   28 A'    8 A"   29 A'   30 A'   31 A'                 
  0.041   0.048   0.051   0.055   0.071   0.075   0.090   0.095
 32 A'    9 A"   33 A'   34 A'   10 A"   11 A"   35 A'   36 A'                 
  0.097   0.111   0.116   0.119   0.135   0.136   0.145   0.146
 37 A'   12 A"   38 A'   13 A"   39 A'   14 A"   15 A"   40 A'                 
  0.152   0.155   0.164   0.168   0.175   0.178   0.183   0.184
 41 A'   42 A'   43 A'   16 A"   44 A'   45 A'   46 A'   17 A"                 
  0.197   0.199   0.210   0.215   0.217   0.220   0.229   0.236
 47 A'   48 A'   49 A'   50 A'   18 A"   51 A'   52 A'   53 A'                 
  0.249   0.253   0.260   0.266   0.271   0.274   0.289   0.306
 54 A'   55 A'   56 A'   57 A'   58 A'   59 A'   60 A'   61 A'                 
  0.321   0.325   0.331   0.356   0.374   0.406   0.463   0.521
 62 A'   63 A'   64 A'   65 A'   66 A'   67 A'   68 A'   69 A'                 
  0.560   0.613   0.622   0.638   0.663   0.664   0.671   0.675
 70 A'   19 A"   71 A'   20 A"   21 A"   72 A'   73 A'   22 A"                 
  0.676   0.693   0.697   0.713   0.728   0.729   0.757   0.790
 74 A'   23 A"   75 A'   24 A"   76 A'   25 A"   77 A'   26 A"                 
  0.819   0.831   0.839   0.876   0.883   0.890   0.898   0.921
 78 A'   79 A'   80 A'   81 A'   82 A'   27 A"   83 A'   84 A'                 
  0.935   0.964   0.973   0.985   1.038   1.057   1.064   1.117
 85 A'   86 A'   87 A'   88 A'   89 A'   90 A'   91 A'   92 A'                 
  1.123   1.152   1.171   1.179   1.187   1.256   1.263   1.288
 93 A'   94 A'   95 A'   28 A"   96 A'   29 A"   97 A'   30 A"                 
  1.308   1.345   1.349   1.381   1.406   1.408   1.430   1.437
 98 A'   99 A'   31 A"  100 A'   32 A"   33 A"   34 A"   35 A"                 
[...]
 54 A'   55 A'   56 A'   57 A'   58 A'   59 A'   60 A'   61 A'                 
  0.314   0.325   0.333   0.357   0.372   0.400   0.459   0.504
 62 A'   63 A'   64 A'   65 A'   66 A'   67 A'   68 A'   69 A'                 
  0.543   0.614   0.624   0.639   0.653   0.661   0.665   0.676
 70 A'   19 A"   71 A'   20 A"   72 A'   21 A"   73 A'   22 A"                 
  0.676   0.690   0.691   0.713   0.724   0.729   0.755   0.788
 74 A'   75 A'   23 A"   24 A"   76 A'   25 A"   77 A'   26 A"                 
  0.822   0.832   0.843   0.877   0.882   0.890   0.896   0.922
 78 A'   79 A'   80 A'   81 A'   82 A'   27 A"   83 A'   84 A'                 
  0.929   0.968   0.987   0.998   1.039   1.052   1.055   1.111
 85 A'   86 A'   87 A'   88 A'   89 A'   90 A'   91 A'   92 A'                 
  1.123   1.145   1.169   1.181   1.183   1.252   1.261   1.284
 93 A'   94 A'   95 A'   28 A"   96 A'   97 A'   29 A"   30 A"                 
  1.306   1.346   1.348   1.374   1.396   1.411   1.431   1.433
 98 A'   99 A'   31 A"  100 A'   32 A"   33 A"   34 A"   35 A"                 
  1.465   1.516   1.573   1.709   1.752   1.812   1.821   1.835
101 A'  102 A'  103 A'  104 A'  105 A'  106 A'   36 A"  107 A'                 
  1.839   1.902   1.908   1.935   1.960   1.978   2.042   2.055
108 A'  109 A'  110 A'   37 A"  111 A'  112 A'  113 A'  114 A'                 
  2.076   2.100   2.153   2.165   2.180   2.183   2.220   2.281
 38 A"  115 A'   39 A"   40 A"   41 A"  116 A'  117 A'   42 A"                 
  2.329   2.365   2.442   2.465   2.542   2.552   2.564   2.589
 43 A"  118 A'  119 A'   44 A"  120 A'   45 A"  121 A'  122 A'                 
  2.625   2.704   2.735   2.749   2.868   2.880   2.993   3.134
123 A'  124 A'  125 A'  126 A'  127 A'  128 A'  129 A'  130 A'                 
  3.293   4.046   4.141   4.196   4.222   4.260   4.301   4.377
131 A'  132 A'  133 A'  134 A'  135 A'  136 A'  137 A'  138 A'                 
  4.419   4.673
139 A'  140 A'                                                                 
 --------------------------------------------------------------

          Ground-State Mulliken Net Atomic Charges

     Atom                 Charge (a.u.)
  ----------------------------------------
      1 C                     0.003355
      2 C                    -0.487295
      3 C                    -0.026409
      4 C                    -1.213481
      5 N                    -0.424266
      6 H                     0.419694
      7 C                    -0.287774
      8 C                     0.189004
      9 C                     1.208686
     10 C                    -0.596368
     11 H                     0.193280
     12 H                     0.196024
     13 H                     0.198089
     14 H                     0.214445
     15 H                     0.209563
     16 H                     0.203454
  ----------------------------------------
  Sum of atomic charges =    -0.000000

 -----------------------------------------------------------------
                    Cartesian Multipole Moments
 -----------------------------------------------------------------
    Charge (ESU x 10^10)
                -0.0000
    Dipole Moment (Debye)
         X      -1.6383      Y       1.6577      Z      -0.0000
       Tot       2.3306
    Quadrupole Moments (Debye-Ang)
        XX     -45.2257     XY      -3.3019     YY     -44.1471
        XZ       0.0000     YZ      -0.0000     ZZ     -59.4731
    Octopole Moments (Debye-Ang^2)
       XXX     -15.2671    XXY       8.8054    XYY      -8.2550
       YYY      10.8894    XXZ      -0.0000    XYZ      -0.0000
       YYZ      -0.0000    XZZ      -2.3604    YZZ       2.1452
       ZZZ      -0.0000
    Hexadecapole Moments (Debye-Ang^3)
      XXXX    -825.3939   XXXY     -22.6082   XXYY    -200.4723
      XYYY     -20.6324   YYYY    -382.5188   XXXZ       0.0000
      XXYZ      -0.0000   XYYZ      -0.0000   YYYZ      -0.0000
      XXZZ    -194.4791   XYZZ      -4.1451   YYZZ     -97.9169
      XZZZ       0.0000   YZZZ      -0.0000   ZZZZ     -75.5595
 -----------------------------------------------------------------
 Calculating analytic gradient of the CIS energy
 CIS relaxed dipole moment
            1
    1  -0.8239361
    2   0.5103622
    3   0.0000000
	Magnitude:	 0.969 au	 2.463 Debye
 CIS 2 State Energy is -360.4021799107
 Gradient of the state energy (including CIS Excitation Energy)
            1           2           3           4           5           6
    1  -0.0000985   0.0000274  -0.0000625  -0.0000845   0.0002694  -0.0000034
    2  -0.0000912   0.0001007   0.0000192   0.0000201  -0.0000031   0.0000700
    3  -0.0000000   0.0000000  -0.0000000  -0.0000000   0.0000000   0.0000000
            7           8           9          10          11          12
    1  -0.0000312  -0.0001524   0.0000227   0.0000565   0.0000167   0.0000022
    2  -0.0002561   0.0000925   0.0000774  -0.0000143   0.0000280  -0.0000122
    3  -0.0000000   0.0000000  -0.0000000   0.0000000  -0.0000000   0.0000000
           13          14          15          16
    1   0.0000124   0.0000064   0.0000324  -0.0000135
    2  -0.0000106  -0.0000209  -0.0000133   0.0000137
    3  -0.0000000  -0.0000000  -0.0000000  -0.0000000
 Gradient time:  CPU 23.61 s  wall 7.12 s

Z-matrix Print:
$molecule
0 1
C 
N  1 1.375425
H  2 1.019904 1 124.882622
C  2 1.385892 1 110.421809 3 -180.000000 0
H  4 1.091312 2 121.165224 1 -180.000000 0
C  4 1.396710 2 108.195040 1 -0.000000 0
H  6 1.093199 4 125.252806 2 -180.000000 0
C  1 1.406239 2 130.246634 3 -0.000000 0
H  8 1.097355 1 121.758970 2 -0.000000 0
C  8 1.406108 1 116.993468 2 -180.000000 0
H  10 1.096133 8 119.778215 1 -180.000000 0
C  6 1.413839 4 108.054449 2 -0.000000 0
C  12 1.404016 6 134.220716 4 -180.000000 0
H  13 1.096677 12 121.043663 6 -0.000000 0
C  13 1.425143 12 118.237545 6 -180.000000 0
H  15 1.096480 13 119.404798 12 -180.000000 0
$end

 Geometry Optimization Parameters
   NAtoms,    NIC,     NZ,  NCons,   NDum,   NFix, NCnnct, MaxDiis
       16     116       0       0       0       0       0       0

 Cartesian Hessian Update
 Hessian Updated using BFGS Update


** GEOMETRY OPTIMIZATION IN DELOCALIZED INTERNAL COORDINATES **
   Searching for a Minimum

   Optimization Cycle:  28

                       Coordinates (Angstroms)
     ATOM                X               Y               Z
      1  C         2.1685325585   -0.6978756120    0.0000000000
      2  C         2.1484295243    0.7367101677    0.0000000000
      3  C         0.9327130164    1.4432317357    0.0000000000
      4  C        -0.2487490473    0.6805688405    0.0000000000
      5  N        -1.5647039813    1.0806405836    0.0000000000
      6  H        -1.8794060115    2.0507782244    0.0000000000
      7  C        -2.4051525671   -0.0213311622    0.0000000000
      8  C        -1.6145890985   -1.1727691116    0.0000000000
      9  C        -0.2584027648   -0.7731439468    0.0000000000
     10  C         0.9652681170   -1.4615418913    0.0000000000
     11  H         3.1349232973   -1.2159076760    0.0000000000
     12  H         3.0971486550    1.2857455718    0.0000000000
     13  H         0.9119478152    2.5403903774    0.0000000000
     14  H        -3.4901498773    0.0958994875    0.0000000000
     15  H        -1.9933964442   -2.1982390265    0.0000000000
     16  H         0.9974763007   -2.5577461008    0.0000000000
   Point Group: cs    Number of degrees of freedom:    29


   Energy is   -360.402179911

 Hessian Updated using BFGS Update

 29 Hessian modes will be used to form the next step
  Hessian Eigenvalues:
     0.135341    0.158436    0.159796    0.160006    0.160333    0.160638
     0.161072    0.199765    0.221916    0.245927    0.252716    0.267763
     0.343874    0.352039    0.352555    0.353342    0.357344    0.359383
     0.367643    0.380041    0.421188    0.433802    0.435861    0.444552
     0.482135    0.489573    0.528511    0.644640    0.765800

 Minimum Search - Taking Simple RFO Step
 Searching for Lamda that Minimizes Along All modes
 Value Taken    Lamda =   0.00000000
 Step Taken.  Stepsize is  0.001022

                             Maximum     Tolerance    Cnvgd?
         Gradient           0.000145      0.000300     YES
         Displacement       0.000408      0.001200     YES
         Energy change     -0.000002      0.000001      NO

 Final energy is   -360.40217991068113     


 ******************************
 **  OPTIMIZATION CONVERGED  **
 ******************************

                       Coordinates (Angstroms)
     ATOM                X               Y               Z
      1  C         2.1685325585   -0.6978756120    0.0000000000
      2  C         2.1484295243    0.7367101677    0.0000000000
      3  C         0.9327130164    1.4432317357    0.0000000000
      4  C        -0.2487490473    0.6805688405    0.0000000000
      5  N        -1.5647039813    1.0806405836    0.0000000000
      6  H        -1.8794060115    2.0507782244    0.0000000000
      7  C        -2.4051525671   -0.0213311622    0.0000000000
      8  C        -1.6145890985   -1.1727691116    0.0000000000
      9  C        -0.2584027648   -0.7731439468    0.0000000000
     10  C         0.9652681170   -1.4615418913    0.0000000000
     11  H         3.1349232973   -1.2159076760    0.0000000000
     12  H         3.0971486550    1.2857455718    0.0000000000
     13  H         0.9119478152    2.5403903774    0.0000000000
     14  H        -3.4901498773    0.0958994875    0.0000000000
     15  H        -1.9933964442   -2.1982390265    0.0000000000
     16  H         0.9974763007   -2.5577461008    0.0000000000

 --------------------------------------------------------------
             Orbital Energies (a.u.) and Symmetries
 --------------------------------------------------------------

 Alpha MOs, Restricted
 -- Occupied --                  
-13.935  -9.835  -9.834  -9.805  -9.800  -9.800  -9.799  -9.797
  1 A'    2 A'    3 A'    4 A'    5 A'    6 A'    7 A'    8 A'                 
 -9.791  -0.901  -0.755  -0.710  -0.661  -0.645  -0.567  -0.540
  9 A'   10 A'   11 A'   12 A'   13 A'   14 A'   15 A'   16 A'                 
 -0.524  -0.487  -0.438  -0.421  -0.394  -0.385  -0.384  -0.364
 17 A'   18 A'   19 A'   20 A'   21 A'   22 A'    1 A"   23 A'                 
 -0.352  -0.315  -0.300  -0.297  -0.257  -0.205  -0.189
 24 A'   25 A'    2 A"   26 A'    3 A"    4 A"    5 A"                         
 -- Virtual --                   
 -0.055  -0.022  -0.018   0.003   0.010   0.011   0.024   0.028
  6 A"    7 A"   27 A'   28 A'   29 A'    8 A"   30 A'   31 A'                 
  0.042   0.048   0.052   0.055   0.069   0.076   0.091   0.096
 32 A'    9 A"   33 A'   34 A'   10 A"   11 A"   35 A'   36 A'                 
  0.096   0.110   0.119   0.119   0.134   0.136   0.140   0.146
 37 A'   12 A"   38 A'   13 A"   14 A"   39 A'   40 A'   15 A"                 
  0.151   0.158   0.164   0.166   0.174   0.176   0.182   0.183
 41 A'   42 A'   43 A'   16 A"   44 A'   45 A'   46 A'   17 A"                 
  0.196   0.198   0.209   0.215   0.217   0.218   0.230   0.236
 47 A'   48 A'   49 A'   50 A'   18 A"   51 A'   52 A'   53 A'                 
  0.249   0.253   0.258   0.261   0.265   0.274   0.285   0.297
 54 A'   55 A'   56 A'   57 A'   58 A'   59 A'   60 A'   61 A'                 
  0.314   0.325   0.333   0.357   0.372   0.400   0.459   0.504
 62 A'   63 A'   64 A'   65 A'   66 A'   67 A'   68 A'   69 A'                 
  0.543   0.614   0.624   0.639   0.653   0.661   0.665   0.676
 70 A'   19 A"   71 A'   20 A"   72 A'   21 A"   73 A'   22 A"                 
  0.676   0.690   0.691   0.713   0.724   0.729   0.755   0.788
 74 A'   75 A'   23 A"   24 A"   76 A'   25 A"   77 A'   26 A"                 
  0.822   0.832   0.843   0.877   0.882   0.890   0.896   0.922
 78 A'   79 A'   80 A'   81 A'   82 A'   27 A"   83 A'   84 A'                 
  0.929   0.968   0.987   0.998   1.039   1.052   1.055   1.111
 85 A'   86 A'   87 A'   88 A'   89 A'   90 A'   91 A'   92 A'                 
  1.123   1.145   1.169   1.181   1.183   1.252   1.261   1.284
 93 A'   94 A'   95 A'   28 A"   96 A'   97 A'   29 A"   30 A"                 
  1.306   1.346   1.348   1.374   1.396   1.411   1.431   1.433
 98 A'   99 A'   31 A"  100 A'   32 A"   33 A"   34 A"   35 A"                 
  1.465   1.516   1.573   1.709   1.752   1.812   1.821   1.835
101 A'  102 A'  103 A'  104 A'  105 A'  106 A'   36 A"  107 A'                 
  1.839   1.902   1.908   1.935   1.960   1.978   2.042   2.055
108 A'  109 A'  110 A'   37 A"  111 A'  112 A'  113 A'  114 A'                 
  2.076   2.100   2.153   2.165   2.180   2.183   2.220   2.281
 38 A"  115 A'   39 A"   40 A"   41 A"  116 A'  117 A'   42 A"                 
  2.329   2.365   2.442   2.465   2.542   2.552   2.564   2.589
 43 A"  118 A'  119 A'   44 A"  120 A'   45 A"  121 A'  122 A'                 
  2.625   2.704   2.735   2.749   2.868   2.880   2.993   3.134
123 A'  124 A'  125 A'  126 A'  127 A'  128 A'  129 A'  130 A'                 
  3.293   4.046   4.141   4.196   4.222   4.260   4.301   4.377
131 A'  132 A'  133 A'  134 A'  135 A'  136 A'  137 A'  138 A'                 
  4.419   4.673
139 A'  140 A'                                                                 

 Beta MOs, Restricted
 -- Occupied --                  
-13.935  -9.835  -9.834  -9.805  -9.800  -9.800  -9.799  -9.797
  1 A'    2 A'    3 A'    4 A'    5 A'    6 A'    7 A'    8 A'                 
 -9.791  -0.901  -0.755  -0.710  -0.661  -0.645  -0.567  -0.540
  9 A'   10 A'   11 A'   12 A'   13 A'   14 A'   15 A'   16 A'                 
 -0.524  -0.487  -0.438  -0.421  -0.394  -0.385  -0.384  -0.364
 17 A'   18 A'   19 A'   20 A'   21 A'   22 A'    1 A"   23 A'                 
 -0.352  -0.315  -0.300  -0.297  -0.257  -0.205  -0.189
 24 A'   25 A'    2 A"   26 A'    3 A"    4 A"    5 A"                         
 -- Virtual --                   
 -0.055  -0.022  -0.018   0.003   0.010   0.011   0.024   0.028
  6 A"    7 A"   27 A'   28 A'   29 A'    8 A"   30 A'   31 A'                 
  0.042   0.048   0.052   0.055   0.069   0.076   0.091   0.096
 32 A'    9 A"   33 A'   34 A'   10 A"   11 A"   35 A'   36 A'                 
  0.096   0.110   0.119   0.119   0.134   0.136   0.140   0.146
 37 A'   12 A"   38 A'   13 A"   14 A"   39 A'   40 A'   15 A"                 
  0.151   0.158   0.164   0.166   0.174   0.176   0.182   0.183
 41 A'   42 A'   43 A'   16 A"   44 A'   45 A'   46 A'   17 A"                 
  0.196   0.198   0.209   0.215   0.217   0.218   0.230   0.236
 47 A'   48 A'   49 A'   50 A'   18 A"   51 A'   52 A'   53 A'                 
  0.249   0.253   0.258   0.261   0.265   0.274   0.285   0.297
 54 A'   55 A'   56 A'   57 A'   58 A'   59 A'   60 A'   61 A'                 
  0.314   0.325   0.333   0.357   0.372   0.400   0.459   0.504
 62 A'   63 A'   64 A'   65 A'   66 A'   67 A'   68 A'   69 A'                 
  0.543   0.614   0.624   0.639   0.653   0.661   0.665   0.676
 70 A'   19 A"   71 A'   20 A"   72 A'   21 A"   73 A'   22 A"                 
  0.676   0.690   0.691   0.713   0.724   0.729   0.755   0.788
 74 A'   75 A'   23 A"   24 A"   76 A'   25 A"   77 A'   26 A"                 
  0.822   0.832   0.843   0.877   0.882   0.890   0.896   0.922
 78 A'   79 A'   80 A'   81 A'   82 A'   27 A"   83 A'   84 A'                 
  0.929   0.968   0.987   0.998   1.039   1.052   1.055   1.111
 85 A'   86 A'   87 A'   88 A'   89 A'   90 A'   91 A'   92 A'                 
  1.123   1.145   1.169   1.181   1.183   1.252   1.261   1.284
 93 A'   94 A'   95 A'   28 A"   96 A'   97 A'   29 A"   30 A"                 
  1.306   1.346   1.348   1.374   1.396   1.411   1.431   1.433
 98 A'   99 A'   31 A"  100 A'   32 A"   33 A"   34 A"   35 A"                 
  1.465   1.516   1.573   1.709   1.752   1.812   1.821   1.835
101 A'  102 A'  103 A'  104 A'  105 A'  106 A'   36 A"  107 A'                 
  1.839   1.902   1.908   1.935   1.960   1.978   2.042   2.055
108 A'  109 A'  110 A'   37 A"  111 A'  112 A'  113 A'  114 A'                 
  2.076   2.100   2.153   2.165   2.180   2.183   2.220   2.281
 38 A"  115 A'   39 A"   40 A"   41 A"  116 A'  117 A'   42 A"                 
  2.329   2.365   2.442   2.465   2.542   2.552   2.564   2.589
 43 A"  118 A'  119 A'   44 A"  120 A'   45 A"  121 A'  122 A'                 
  2.625   2.704   2.735   2.749   2.868   2.880   2.993   3.134
123 A'  124 A'  125 A'  126 A'  127 A'  128 A'  129 A'  130 A'                 
  3.293   4.046   4.141   4.196   4.222   4.260   4.301   4.377
131 A'  132 A'  133 A'  134 A'  135 A'  136 A'  137 A'  138 A'                 
  4.419   4.673
139 A'  140 A'                                                                 
 --------------------------------------------------------------

          Ground-State Mulliken Net Atomic Charges

     Atom                 Charge (a.u.)
  ----------------------------------------
      1 C                     0.003355
      2 C                    -0.487295
      3 C                    -0.026409
      4 C                    -1.213481
      5 N                    -0.424266
      6 H                     0.419694
      7 C                    -0.287774
      8 C                     0.189004
      9 C                     1.208686
     10 C                    -0.596368
     11 H                     0.193280
     12 H                     0.196024
     13 H                     0.198089
     14 H                     0.214445
     15 H                     0.209563
     16 H                     0.203454
  ----------------------------------------
  Sum of atomic charges =    -0.000000

 -----------------------------------------------------------------
                    Cartesian Multipole Moments
 -----------------------------------------------------------------
    Charge (ESU x 10^10)
                -0.0000
    Dipole Moment (Debye)
         X      -1.6383      Y       1.6577      Z      -0.0000
       Tot       2.3306
    Quadrupole Moments (Debye-Ang)
        XX     -45.2257     XY      -3.3019     YY     -44.1471
        XZ       0.0000     YZ      -0.0000     ZZ     -59.4731
    Octopole Moments (Debye-Ang^2)
       XXX     -15.2671    XXY       8.8054    XYY      -8.2550
       YYY      10.8894    XXZ      -0.0000    XYZ      -0.0000
       YYZ      -0.0000    XZZ      -2.3604    YZZ       2.1452
       ZZZ      -0.0000
    Hexadecapole Moments (Debye-Ang^3)
      XXXX    -825.3939   XXXY     -22.6082   XXYY    -200.4723
      XYYY     -20.6324   YYYY    -382.5188   XXXZ       0.0000
      XXYZ      -0.0000   XYYZ      -0.0000   YYYZ      -0.0000
      XXZZ    -194.4791   XYZZ      -4.1451   YYZZ     -97.9169
      XZZZ       0.0000   YZZZ      -0.0000   ZZZZ     -75.5595
 -----------------------------------------------------------------
Archival summary:
1\1\WKENNERL-11804\OPT\ProcedureUnspecified\6-31+G*\187\scaparas\FriJun417:14:572021FriJun417:14:572021\0\\#,OPT,ProcedureUnspecified,6-31+G*,\\0,1\C\N,1,1.37543\H,2,1.0199,1,124.883\C,2,1.38589,1,110.422,3,-180,0\H,4,1.09131,2,121.165,1,-180,0\C,4,1.39671,2,108.195,1,-0,0\H,6,1.0932,4,125.253,2,-180,0\C,1,1.40624,2,130.247,3,-0,0\H,8,1.09736,1,121.759,2,-0,0\C,8,1.40611,1,116.993,2,-180,0\H,10,1.09613,8,119.778,1,-180,0\C,6,1.41384,4,108.054,2,-0,0\C,12,1.40402,6,134.221,4,-180,0\H,13,1.09668,12,121.044,6,-0,0\C,13,1.42514,12,118.238,6,-180,0\H,15,1.09648,13,119.405,12,-180,0\\\@

 Total job time:  1375.81s(wall), 4882.03s(cpu) 
 Fri Jun  4 17:14:57 2021

        *************************************************************
        *                                                           *
        *  Thank you very much for using Q-Chem.  Have a nice day.  *
        *                                                           *
        *************************************************************


