Running Q-Chem job 1 of 1 
Check license passed

                  Welcome to Q-Chem
     A Quantum Leap Into The Future Of Chemistry


 Q-Chem 5.1, Q-Chem, Inc., Pleasanton, CA (2018)

 Yihan Shao,  Zhengting Gan,  E. Epifanovsky,  A. T. B. Gilbert,  M. Wormit,  
 J. Kussmann,  A. W. Lange,  A. Behn,  Jia Deng,  Xintian Feng,  D. Ghosh,  
 M. Goldey,  P. R. Horn,  L. D. Jacobson,  I. Kaliman,  T. Kus,  A. Landau,  
 Jie Liu,  E. I. Proynov,  R. M. Richard,  R. P. Steele,  E. J. Sundstrom,  
 H. L. Woodcock III,  P. M. Zimmerman,  D. Zuev,  B. Albrecht,  E. Alguire,  
 S. A. Baeppler,  D. Barton,  Z. Benda,  Y. A. Bernard,  E. J. Berquist,  
 K. B. Bravaya,  H. Burton,  D. Casanova,  Chun-Min Chang,  Yunqing Chen,  
 A. Chien,  K. D. Closser,  M. P. Coons,  S. Coriani,  S. Dasgupta,  
 A. L. Dempwolff,  M. Diedenhofen,  Hainam Do,  R. G. Edgar,  Po-Tung Fang,  
 S. Faraji,  S. Fatehi,  Qingguo Feng,  K. D. Fenk,  J. Fosso-Tande,  
 J. Gayvert,  Qinghui Ge,  A. Ghysels,  G. Gidofalvi,  J. Gomes,  
 J. Gonthier,  A. Gunina,  D. Hait,  M. W. D. Hanson-Heine,  
 P. H. P. Harbach,  A. W. Hauser,  J. E. Herr,  E. G. Hohenstein,  
 Z. C. Holden,  Kerwin Hui,  B. C. Huynh,  T.-C. Jagau,  Hyunjun Ji,  
 B. Kaduk,  K. Khistyaev,  Jaehoon Kim,  P. Klunzinger,  K. Koh,  
 D. Kosenkov,  L. Koulias,  T. Kowalczyk,  C. M. Krauter,  A. Kunitsa,  
 Ka Un Lao,  A. Laurent,  K. V. Lawler,  Joonho Lee,  D. Lefrancois,  
 S. Lehtola,  D. S. Levine,  Yi-Pei Li,  You-Sheng Lin,  Fenglai Liu,  
 E. Livshits,  A. Luenser,  P. Manohar,  E. Mansoor,  S. F. Manzer,  
 Shan-Ping Mao,  Yuezhi Mao,  N. Mardirossian,  A. V. Marenich,  
 T. Markovich,  L. A. Martinez-Martinez,  S. A. Maurer,  N. J. Mayhall,  
 S. C. McKenzie,  J.-M. Mewes,  A. F. Morrison,  J. W. Mullinax,  K. Nanda,  
 T. S. Nguyen-Beck,  R. Olivares-Amaya,  J. A. Parkhill,  T. M. Perrine,  
 F. Plasser,  P. Pokhilko,  S. Prager,  A. Prociuk,  E. Ramos,  D. R. Rehn,  
 F. Rob,  M. Schneider,  N. Sergueev,  S. M. Sharada,  S. Sharma,  
 D. W. Small,  T. Stauch,  T. Stein,  Yu-Chuan Su,  A. J. W. Thom,  
 A. Tkatchenko,  T. Tsuchimochi,  N. M. Tubman,  L. Vogt,  M. L. Vidal,  
 O. Vydrov,  M. A. Watson,  J. Wenzel,  M. de Wergifosse,  T. A. Wesolowski,  
 A. White,  J. Witte,  A. Yamada,  Jun Yang,  K. Yao,  S. Yeganeh,  
 S. R. Yost,  Zhi-Qiang You,  A. Zech,  Igor Ying Zhang,  Xing Zhang,  
 Yan Zhao,  Ying Zhu,  B. R. Brooks,  G. K. L. Chan,  C. J. Cramer,  
 M. S. Gordon,  W. J. Hehre,  A. Klamt,  M. W. Schmidt,  C. D. Sherrill,  
 D. G. Truhlar,  A. Aspuru-Guzik,  R. Baer,  A. T. Bell,  N. A. Besley,  
 Jeng-Da Chai,  A. E. DePrince, III,  R. A. DiStasio Jr.,  A. Dreuw,  
 B. D. Dunietz,  T. R. Furlani,  Chao-Ping Hsu,  Yousung Jung,  Jing Kong,  
 D. S. Lambrecht,  WanZhen Liang,  C. Ochsenfeld,  V. A. Rassolov,  
 L. V. Slipchenko,  J. E. Subotnik,  T. Van Voorhis,  J. M. Herbert,  
 A. I. Krylov,  P. M. W. Gill,  M. Head-Gordon

 Contributors to earlier versions of Q-Chem not listed above: 
 R. D. Adamson,  B. Austin,  J. Baker,  G. J. O. Beran,  K. Brandhorst,  
 S. T. Brown,  E. F. C. Byrd,  A. K. Chakraborty,  C.-L. Cheng,  
 Siu Hung Chien,  D. M. Chipman,  D. L. Crittenden,  H. Dachsel,  
 R. J. Doerksen,  A. D. Dutoi,  L. Fusti-Molnar,  W. A. Goddard III,  
 A. Golubeva-Zadorozhnaya,  S. R. Gwaltney,  G. Hawkins,  A. Heyden,  
 S. Hirata,  G. Kedziora,  F. J. Keil,  C. Kelley,  Jihan Kim,  R. A. King,  
 R. Z. Khaliullin,  P. P. Korambath,  W. Kurlancheek,  A. M. Lee,  M. S. Lee,  
 S. V. Levchenko,  Ching Yeh Lin,  D. Liotard,  R. C. Lochan,  I. Lotan,  
 P. E. Maslen,  N. Nair,  D. P. O'Neill,  D. Neuhauser,  E. Neuscamman,  
 C. M. Oana,  R. Olson,  B. Peters,  R. Peverati,  P. A. Pieniazek,  
 Y. M. Rhee,  J. Ritchie,  M. A. Rohrdanz,  E. Rosta,  N. J. Russ,  
 H. F. Schaefer III,  N. E. Schultz,  N. Shenvi,  A. C. Simmonett,  A. Sodt,  
 D. Stuck,  K. S. Thanthiriwatte,  V. Vanovschi,  Tao Wang,  A. Warshel,  
 C. F. Williams,  Q. Wu,  X. Xu,  W. Zhang

 Please cite Q-Chem as follows:
 Y. Shao et al., Mol. Phys. 113, 184-215 (2015)
 DOI: 10.1080/00268976.2014.952696

 Q-Chem 5.1.2 for Intel X86 EM64T Linux

 Parts of Q-Chem use Armadillo 8.300.2 (Tropical Shenanigans).
 http://arma.sourceforge.net/

 Q-Chem begins on Mon Jun  7 15:20:51 2021  

Host: 127

     Scratch files written to C:/Users/scaparas/AppData/Local/Temp/qchem10395//
 Dec318 |cygdrive|d|Jenkins|workspace|build_RNUM -1
Input Ideriv = 1
Curr. Ideriv = -1
Max.  Ideriv = 1

Checking the input file for inconsistencies... 	...done.

--------------------------------------------------------------
User input:
--------------------------------------------------------------

$molecule
0 1
C         2.1665374654   -0.6554056232    0.0000000000
C         2.1169746126    0.7536230414    0.0000000000
C         0.9078293763    1.4297941068    0.0000000000
C        -0.2602955279    0.6603427264    0.0000000000
N        -1.5823227859    1.0465645945    0.0000000000
H        -1.9138448994    1.9970952131    0.0000000000
C        -2.3831006726   -0.0753467300    0.0000000000
C        -1.6031102305   -1.1965127142    0.0000000000
C        -0.2354025284   -0.7544080528    0.0000000000
C         1.0061117308   -1.4110304737    0.0000000000
H         3.1323502333   -1.1522732729    0.0000000000
H         3.0445811710    1.3187694778    0.0000000000
H         0.8711978004    2.5159935936    0.0000000000
H        -3.4599415153    0.0224367365    0.0000000000
H        -1.9589772753   -2.2174458375    0.0000000000
H         1.0526344532   -2.4968312448    0.0000000000
$end

$rem
BASIS  =  6-31+G*
GUI  =  2
JOB_TYPE  =  Optimization
METHOD  = PBE
SCF_CONVERGENCE  =  8
THRESH = 12
CIS_N_ROOTS  = 3
CIS_SINGLETS = true
CIS_TRIPLETS = false
CIS_STATE_DERIV = 2
$end
--------------------------------------------------------------
 ----------------------------------------------------------------
             Standard Nuclear Orientation (Angstroms)
    I     Atom           X                Y                Z
 ----------------------------------------------------------------
    1      C       2.1545809193    -0.6917179572    -0.0000000000
    2      C       2.1305971189     0.7179781205     0.0000000000
    3      C       0.9339220871     1.4159812583     0.0000000000
    4      C      -0.2479743579     0.6678555924     0.0000000000
    5      N      -1.5627747859     1.0780058536     0.0000000000
    6      H      -1.8769921819     2.0343963579     0.0000000000
    7      C      -2.3837811130    -0.0291882824    -0.0000000000
    8      C      -1.6242659160    -1.1643248026    -0.0000000000
    9      C      -0.2487601923    -0.7471139518    -0.0000000000
   10      C       0.9806332983    -1.4261590938    -0.0000000000
   11      H       3.1112175340    -1.2060312385    -0.0000000000
   12      H       3.0683071256     1.2661973878     0.0000000000
   13      H       0.9170087673     2.5026666484     0.0000000000
   14      H      -3.4586700515     0.0881214642    -0.0000000000
   15      H      -1.9986021312    -2.1786315579    -0.0000000000
   16      H       1.0074433715    -2.5126253373    -0.0000000000
 ----------------------------------------------------------------
 Molecular Point Group                 Cs    NOp =  2
 Largest Abelian Subgroup              Cs    NOp =  2
 Nuclear Repulsion Energy =   400.7281381655 hartrees
 There are       31 alpha and       31 beta electrons
 Requested basis set is 6-31+G(d)
 There are 59 shells and 185 basis functions

 Total QAlloc Memory Limit   2000 MB
 Mega-Array Size       188 MB
 MEM_STATIC part       192 MB
 Smallest overlap matrix eigenvalue = 1.29E-06

 Scale SEOQF with 1.000000e-01/1.000000e-01/1.000000e-01

 Standard Electronic Orientation quadrupole field applied
 Nucleus-field energy     =     0.0000000117 hartrees
 Guess from superposition of atomic densities
 Warning:  Energy on first SCF cycle will be non-variational
 SAD guess density has 62.000000 electrons

 -----------------------------------------------------------------------
  General SCF calculation program by
  Eric Jon Sundstrom, Paul Horn, Yuezhi Mao, Dmitri Zuev, Alec White,
  David Stuck, Shaama M.S., Shane Yost, Joonho Lee, David Small,
  Daniel Levine, Susi Lehtola, Hugh Burton, Evgeny Epifanovsky
 -----------------------------------------------------------------------
 Exchange:  PBE      Correlation:  PBE
 Using SG-1 standard quadrature grid
 using 4 threads for integral computing
 -------------------------------------------------------
 OpenMP Integral computing Module                
 Release: version 1.0, May 2013, Q-Chem Inc. Pittsburgh 
 -------------------------------------------------------
 -------------------------------------------------------
 OpenMP BLAS3 based DFT computing Module                
 Release: version 1.0, May 2013, Q-Chem Inc. Pittsburgh 
 -------------------------------------------------------
 A restricted SCF calculation will be
 performed using DIIS
 SCF converges when DIIS error is below 1.0e-08
 ---------------------------------------
  Cycle       Energy         DIIS error
 ---------------------------------------
    1    -365.2684550148      5.42e-02  
    2    -363.1715116520      6.25e-03  
    3    -362.9213414574      9.40e-03  
    4    -363.3394498629      2.55e-03  
    5    -363.3679702801      8.17e-04  
    6    -363.3707248398      2.94e-04  
    7    -363.3710598690      1.23e-04  
    8    -363.3711245226      3.62e-05  
    9    -363.3711302883      6.06e-06  
   10    -363.3711304130      3.45e-06  
   11    -363.3711304660      7.28e-07  
   12    -363.3711304679      4.29e-07  
   13    -363.3711304687      7.49e-08  
   14    -363.3711304688      3.39e-08  
   15    -363.3711304688      3.61e-09  Convergence criterion met
 ---------------------------------------
 SCF time:   CPU 38.81s  wall 10.00s 
 SCF   energy in the final basis set =     -363.3711304688
 Total energy in the final basis set =     -363.3711304688
 A cutoff of  1.0D-12 yielded   1657 shell pairs
 There are     17105 function pairs

 -------------------------------------------------------
 OpenMP Integral Computing Module                       
 Release: version 1.0, May 2013, Q-Chem Inc. Pittsburgh 
 -------------------------------------------------------
 Integral Job Info:
 Integral job number is                      11
 Integral operator is                         1
 short-range coefficients                     0
 long-range coefficients              100000000
 Omega coefficients                           0
 if combine SR and LR in K                    0
 Integral screening is                        0
 Integral computing path is                   2
 max size of driver memory is            800000
 size of driver memory is                593474
 size of scratch memory is              2361544
 max col of scratch BK array               1296
 max len of scratch array in speh3          155
 max len of scratch index in speh4           18
 max int batch size is                      520
 min int batch size is                       52
 fixed nKL is                                52
 max L of basis functions is                  2
 order of int derivative is                   0
 number of shells is                         59
 number of basis is                         185
 number of cartesian basis is               185
 number of contracted shell pairs          1657
 number of primitive shell pairs           5905
 maxK2 (contraction) of shell pair           36
 max number of K2 of shell pair               1
 max number of CS2 of shell pair            193
 max number of PS2 of shell pair           1158
 mem total for path MDJ                  542796
 -------------------------------------------------------

 Exchange:  PBE      Correlation:  PBE
 Using SG-1 standard quadrature grid
 Direct TDDFT/TDA calculation will be performed
 Singlet excitation energies requested
 CIS energy converged when residual is below 10e- 6
 ---------------------------------------------------
 Iter    Rts Conv    Rts Left    Ttl Dev     Max Dev
 ---------------------------------------------------
   1         0           3      0.003907    0.001937
   2         0           3      0.003019    0.001520
   3         0           3      0.002659    0.001514
   4         1           2      0.001680    0.000851
   5         1           2      0.001839    0.001494
   6         1           2      0.001158    0.001023
   7         1           2      0.000733    0.000698
   8         1           2      0.000359    0.000346
   9         1           2      0.000083    0.000080
  10         2           1      0.000012    0.000011
  11         2           1      0.000003    0.000002
  12         3           0      0.000001    0.000000    Roots Converged
 ---------------------------------------------------

 ---------------------------------------------------
         TDDFT/TDA Excitation Energies              
 ---------------------------------------------------

 Excited state   1: excitation energy (eV) =    4.5578
 Total energy for state  1:                  -363.20363298 au
    Multiplicity: Singlet
    Trans. Mom.:  0.4580 X  -0.5574 Y  -0.0000 Z
    Strength   :     0.0581126475
    D( 29) --> V(  1) amplitude =  0.2590
    D( 31) --> V(  1) amplitude =  0.8933

 Excited state   2: excitation energy (eV) =    4.5673
 Total energy for state  2:                  -363.20328705 au
    Multiplicity: Singlet
    Trans. Mom.: -0.0000 X   0.0000 Y  -0.1069 Z
    Strength   :     0.0012778404
    D( 31) --> V(  2) amplitude =  0.9996

 Excited state   3: excitation energy (eV) =    4.7436
 Total energy for state  3:                  -363.19680801 au
    Multiplicity: Singlet
    Trans. Mom.: -0.3381 X  -0.1267 Y   0.0000 Z
    Strength   :     0.0151475253
    D( 30) --> V(  1) amplitude =  0.7463
    D( 31) --> V(  3) amplitude =  0.6505

 ---------------------------------------------------
 Calculating Relaxed Density
 ---------------------------------------------------
 Iter    Rts Conv    Rts Left    Ttl Dev     Max Dev
 ---------------------------------------------------
   1         0           3      0.002399    0.001233
   2         0           3      0.000841    0.000415
   3         0           3      0.000236    0.000117
   4         0           3      0.000083    0.000040
   5         0           3      0.000011    0.000005
   6         3           0      0.000000    0.000000    Roots Converged
 ---------------------------------------------------
  SETman timing summary (seconds)
  CPU time               154.69s
  System time             34.00s
  Wall time               40.82s

 --------------------------------------------------------------
             Orbital Energies (a.u.) and Symmetries
 --------------------------------------------------------------

 Alpha MOs, Restricted
 -- Occupied --                  
-14.058  -9.934  -9.932  -9.904  -9.900  -9.898  -9.898  -9.894
  1 A'    2 A'    3 A'    4 A'    5 A'    6 A'    7 A'    8 A'                 
 -9.892  -0.905  -0.766  -0.713  -0.668  -0.651  -0.567  -0.539
  9 A'   10 A'   11 A'   12 A'   13 A'   14 A'   15 A'   16 A'                 
 -0.526  -0.489  -0.434  -0.422  -0.392  -0.383  -0.379  -0.365
 17 A'   18 A'   19 A'   20 A'   21 A'   22 A'    1 A"   23 A'                 
 -0.347  -0.312  -0.298  -0.294  -0.249  -0.201  -0.184
 24 A'   25 A'    2 A"   26 A'    3 A"    4 A"    5 A"                         
 -- Virtual --                   
 -0.042  -0.016  -0.009   0.004   0.011   0.020   0.026   0.028
  6 A"   27 A'    7 A"   28 A'   29 A'    8 A"   30 A'   31 A'                 
  0.046   0.048   0.054   0.057   0.072   0.075   0.095   0.098
 32 A'    9 A"   33 A'   34 A'   10 A"   11 A"   35 A'   36 A'                 
  0.099   0.112   0.120   0.124   0.140   0.141   0.148   0.149
 37 A'   12 A"   13 A"   38 A'   39 A'   14 A"   15 A"   40 A'                 
  0.157   0.161   0.168   0.170   0.180   0.181   0.184   0.185
 41 A'   42 A'   16 A"   43 A'   44 A'   45 A'   17 A"   46 A'                 
  0.201   0.205   0.214   0.220   0.220   0.227   0.237   0.242
 47 A'   48 A'   49 A'   18 A"   50 A'   51 A'   52 A'   53 A'                 
  0.254   0.258   0.261   0.271   0.274   0.282   0.294   0.307
 54 A'   55 A'   56 A'   57 A'   58 A'   59 A'   60 A'   61 A'                 
  0.324   0.336   0.344   0.367   0.390   0.413   0.473   0.535
 62 A'   63 A'   64 A'   65 A'   66 A'   67 A'   68 A'   69 A'                 
  0.575   0.631   0.638   0.656   0.672   0.678   0.683   0.693
 70 A'   19 A"   71 A'   20 A"   72 A'   21 A"   73 A'   22 A"                 
  0.694   0.708   0.709   0.732   0.746   0.751   0.769   0.807
 74 A'   75 A'   23 A"   24 A"   25 A"   76 A'   77 A'   26 A"                 
  0.843   0.849   0.860   0.884   0.890   0.902   0.907   0.933
 78 A'   79 A'   80 A'   81 A'   82 A'   83 A'   27 A"   84 A'                 
  0.951   0.982   1.000   1.009   1.052   1.067   1.069   1.124
 85 A'   86 A'   87 A'   88 A'   89 A'   90 A'   91 A'   92 A'                 
  1.132   1.157   1.176   1.179   1.202   1.259   1.264   1.280
 93 A'   94 A'   28 A"   95 A'   96 A'   29 A"   97 A'   30 A"                 
  1.317   1.351   1.364   1.395   1.395   1.404   1.432   1.438
 98 A'   31 A"   99 A'  100 A'   32 A"   33 A"   34 A"   35 A"                 
  1.484   1.530   1.590   1.722   1.775   1.811   1.822   1.848
101 A'  102 A'  103 A'  104 A'  105 A'  106 A'   36 A"  107 A'                 
  1.875   1.917   1.921   1.934   1.990   2.024   2.067   2.096
108 A'  109 A'  110 A'   37 A"  111 A'  112 A'  113 A'  114 A'                 
  2.103   2.120   2.172   2.185   2.191   2.214   2.240   2.305
 38 A"  115 A'   39 A"   40 A"   41 A"  116 A'  117 A'   42 A"                 
  2.329   2.371   2.470   2.478   2.561   2.582   2.587   2.618
 43 A"  118 A'  119 A'   44 A"  120 A'  121 A'   45 A"  122 A'                 
  2.657   2.728   2.767   2.775   2.872   2.902   3.022   3.155
123 A'  124 A'  125 A'  126 A'  127 A'  128 A'  129 A'  130 A'                 
  3.355   4.057   4.169   4.201   4.236   4.270   4.306   4.390
131 A'  132 A'  133 A'  134 A'  135 A'  136 A'  137 A'  138 A'                 
  4.429   4.696
139 A'  140 A'                                                                 

 Beta MOs, Restricted
 -- Occupied --                  
-14.058  -9.934  -9.932  -9.904  -9.900  -9.898  -9.898  -9.894
  1 A'    2 A'    3 A'    4 A'    5 A'    6 A'    7 A'    8 A'                 
 -9.892  -0.905  -0.766  -0.713  -0.668  -0.651  -0.567  -0.539
  9 A'   10 A'   11 A'   12 A'   13 A'   14 A'   15 A'   16 A'                 
 -0.526  -0.489  -0.434  -0.422  -0.392  -0.383  -0.379  -0.365
 17 A'   18 A'   19 A'   20 A'   21 A'   22 A'    1 A"   23 A'                 
 -0.347  -0.312  -0.298  -0.294  -0.249  -0.201  -0.184
 24 A'   25 A'    2 A"   26 A'    3 A"    4 A"    5 A"                         
 -- Virtual --                   
 -0.042  -0.016  -0.009   0.004   0.011   0.020   0.026   0.028
  6 A"   27 A'    7 A"   28 A'   29 A'    8 A"   30 A'   31 A'                 
  0.046   0.048   0.054   0.057   0.072   0.075   0.095   0.098
 32 A'    9 A"   33 A'   34 A'   10 A"   11 A"   35 A'   36 A'                 
  0.099   0.112   0.120   0.124   0.140   0.141   0.148   0.149
 37 A'   12 A"   13 A"   38 A'   39 A'   14 A"   15 A"   40 A'                 
  0.157   0.161   0.168   0.170   0.180   0.181   0.184   0.185
 41 A'   42 A'   16 A"   43 A'   44 A'   45 A'   17 A"   46 A'                 
  0.201   0.205   0.214   0.220   0.220   0.227   0.237   0.242
 47 A'   48 A'   49 A'   18 A"   50 A'   51 A'   52 A'   53 A'                 
  0.254   0.258   0.261   0.271   0.274   0.282   0.294   0.307
 54 A'   55 A'   56 A'   57 A'   58 A'   59 A'   60 A'   61 A'                 
  0.324   0.336   0.344   0.367   0.390   0.413   0.473   0.535
 62 A'   63 A'   64 A'   65 A'   66 A'   67 A'   68 A'   69 A'                 
  0.575   0.631   0.638   0.656   0.672   0.678   0.683   0.693
 70 A'   19 A"   71 A'   20 A"   72 A'   21 A"   73 A'   22 A"                 
  0.694   0.708   0.709   0.732   0.746   0.751   0.769   0.807
 74 A'   75 A'   23 A"   24 A"   25 A"   76 A'   77 A'   26 A"                 
  0.843   0.849   0.860   0.884   0.890   0.902   0.907   0.933
 78 A'   79 A'   80 A'   81 A'   82 A'   83 A'   27 A"   84 A'                 
  0.951   0.982   1.000   1.009   1.052   1.067   1.069   1.124
 85 A'   86 A'   87 A'   88 A'   89 A'   90 A'   91 A'   92 A'                 
  1.132   1.157   1.176   1.179   1.202   1.259   1.264   1.280
 93 A'   94 A'   28 A"   95 A'   96 A'   29 A"   97 A'   30 A"                 
  1.317   1.351   1.364   1.395   1.395   1.404   1.432   1.438
 98 A'   31 A"   99 A'  100 A'   32 A"   33 A"   34 A"   35 A"                 
  1.484   1.530   1.590   1.722   1.775   1.811   1.822   1.848
101 A'  102 A'  103 A'  104 A'  105 A'  106 A'   36 A"  107 A'                 
  1.875   1.917   1.921   1.934   1.990   2.024   2.067   2.096
108 A'  109 A'  110 A'   37 A"  111 A'  112 A'  113 A'  114 A'                 
  2.103   2.120   2.172   2.185   2.191   2.214   2.240   2.305
 38 A"  115 A'   39 A"   40 A"   41 A"  116 A'  117 A'   42 A"                 
  2.329   2.371   2.470   2.478   2.561   2.582   2.587   2.618
 43 A"  118 A'  119 A'   44 A"  120 A'  121 A'   45 A"  122 A'                 
  2.657   2.728   2.767   2.775   2.872   2.902   3.022   3.155
123 A'  124 A'  125 A'  126 A'  127 A'  128 A'  129 A'  130 A'                 
  3.355   4.057   4.169   4.201   4.236   4.270   4.306   4.390
131 A'  132 A'  133 A'  134 A'  135 A'  136 A'  137 A'  138 A'                 
  4.429   4.696
139 A'  140 A'                                                                 
 --------------------------------------------------------------

          Ground-State Mulliken Net Atomic Charges

     Atom                 Charge (a.u.)
  ----------------------------------------
      1 C                     0.075173
      2 C                    -0.529537
      3 C                    -0.140072
      4 C                    -1.241222
      5 N                    -0.424530
      6 H                     0.412476
      7 C                    -0.259248
      8 C                     0.107138
      9 C                     1.691701
     10 C                    -0.821069
     11 H                     0.182119
     12 H                     0.183239
     13 H                     0.183358
     14 H                     0.196421
     15 H                     0.195217
     16 H                     0.188837
  ----------------------------------------
  Sum of atomic charges =     0.000000

 -----------------------------------------------------------------
                    Cartesian Multipole Moments
 -----------------------------------------------------------------
    Charge (ESU x 10^10)
                -0.0000
    Dipole Moment (Debye)
         X      -1.5385      Y       1.5949      Z      -0.0000
       Tot       2.2160
    Quadrupole Moments (Debye-Ang)
        XX     -45.5968     XY      -3.2418     YY     -44.5845
        XZ       0.0000     YZ      -0.0000     ZZ     -58.6051
    Octopole Moments (Debye-Ang^2)
       XXX     -14.4039    XXY       8.1974    XYY      -8.2631
       YYY      10.5537    XXZ       0.0000    XYZ       0.0000
       YYZ      -0.0000    XZZ      -2.0120    YZZ       2.0246
       ZZZ      -0.0000
    Hexadecapole Moments (Debye-Ang^3)
      XXXX    -823.5721   XXXY     -21.7889   XXYY    -197.6087
      XYYY     -19.7832   YYYY    -374.1974   XXXZ       0.0000
      XXYZ      -0.0000   XYYZ       0.0000   YYYZ      -0.0000
      XXZZ    -189.2388   XYZZ      -4.0020   YYZZ     -93.9233
      XZZZ       0.0000   YZZZ      -0.0000   ZZZZ     -73.0411
 -----------------------------------------------------------------
 Calculating analytic gradient of the CIS energy
 CIS relaxed dipole moment
            1
    1   2.3034450
    2  -2.7343476
    3   0.0000000
	Magnitude:	 3.575 au	 9.087 Debye
 CIS 2 State Energy is -363.2032870496
 Gradient of the state energy (including CIS Excitation Energy)
            1           2           3           4           5           6
    1  -0.0161211  -0.0188391   0.0267530  -0.0060742   0.0145983   0.0172785
    2  -0.0150079   0.0233013  -0.0083506  -0.0068636   0.0633276  -0.0422053
    3  -0.0000000   0.0000000  -0.0000000   0.0000000  -0.0000000   0.0000000
            7           8           9          10          11          12
    1  -0.0003254  -0.0376816   0.0075977   0.0091972  -0.0051900  -0.0048887
    2  -0.0626870   0.0270383   0.0062104   0.0119351   0.0027472  -0.0028110
    3  -0.0000000   0.0000000  -0.0000000   0.0000000   0.0000000  -0.0000000
           13          14          15          16
    1   0.0024279   0.0091753   0.0025247  -0.0004326
    2  -0.0047814  -0.0046645   0.0071424   0.0056692
    3  -0.0000000   0.0000000  -0.0000000  -0.0000000
 Gradient time:  CPU 32.22 s  wall 10.34 s
 Geometry Optimization Parameters
   NAtoms,    NIC,     NZ,  NCons,   NDum,   NFix, NCnnct, MaxDiis
       16     116       0       0       0       0       0       0


** GEOMETRY OPTIMIZATION IN DELOCALIZED INTERNAL COORDINATES **
   Searching for a Minimum

   Optimization Cycle:   1

                       Coordinates (Angstroms)
     ATOM                X               Y               Z
      1  C         2.1545809193   -0.6917179572    0.0000000000
      2  C         2.1305971189    0.7179781205    0.0000000000
      3  C         0.9339220871    1.4159812583    0.0000000000
      4  C        -0.2479743579    0.6678555924    0.0000000000
      5  N        -1.5627747859    1.0780058536    0.0000000000
      6  H        -1.8769921819    2.0343963579    0.0000000000
      7  C        -2.3837811130   -0.0291882824    0.0000000000
      8  C        -1.6242659160   -1.1643248026    0.0000000000
      9  C        -0.2487601923   -0.7471139518    0.0000000000
     10  C         0.9806332983   -1.4261590938    0.0000000000
     11  H         3.1112175340   -1.2060312385    0.0000000000
     12  H         3.0683071256    1.2661973878    0.0000000000
     13  H         0.9170087673    2.5026666484    0.0000000000
     14  H        -3.4586700515    0.0881214642    0.0000000000
     15  H        -1.9986021312   -2.1786315579    0.0000000000
     16  H         1.0074433715   -2.5126253373    0.0000000000
   Point Group: cs    Number of degrees of freedom:    29


   Energy is   -363.203287050


 Attempting to Generate Delocalized Internal Coordinates

 29 Hessian modes will be used to form the next step
  Hessian Eigenvalues:
     0.160000    0.160000    0.160000    0.160000    0.160000    0.160000
     0.160000    0.220000    0.221874    0.226615    0.240154    0.246535
     0.351831    0.351854    0.352547    0.352641    0.358411    0.358524
     0.370243    0.381736    0.421745    0.429383    0.450758    0.465320
     0.465358    0.471677    0.475377    0.478120    0.507735

 Minimum Search - Taking Simple RFO Step
 Searching for Lamda that Minimizes Along All modes
 Value Taken    Lamda =  -0.01665395
 Step Taken.  Stepsize is  0.189334

                             Maximum     Tolerance    Cnvgd?
         Gradient           0.038360      0.000300      NO
         Displacement       0.092299      0.001200      NO
         Energy change     *********      0.000001      NO


 New Cartesian Coordinates Obtained by Inverse Iteration

 Displacement from previous Coordinates is:  0.279033
 ----------------------------------------------------------------
             Standard Nuclear Orientation (Angstroms)
    I     Atom           X                Y                Z
 ----------------------------------------------------------------
    1      C       2.1910943274    -0.7034489636     0.0000000000
    2      C       2.1440161555     0.7025813420     0.0000000000
    3      C       0.9134531545     1.4104877149     0.0000000000
    4      C      -0.2631613794     0.6630377169     0.0000000000
    5      N      -1.5900826679     1.0799274214     0.0000000000
    6      H      -1.9344564428     2.0788599577     0.0000000000
    7      C      -2.3937933669     0.0047624546     0.0000000000
    8      C      -1.6079108148    -1.1707735160     0.0000000000
    9      C      -0.2391907600    -0.7627075698     0.0000000000
   10      C       1.0003133620    -1.4516923848     0.0000000000
   11      H       3.1600161265    -1.2125732983     0.0000000000
   12      H       3.0825456285     1.2652844267     0.0000000000
   13      H       0.8772641104     2.5036295879     0.0000000000
   14      H      -3.4791459201     0.1486838986     0.0000000000
   15      H      -1.9879131205    -2.1943805757     0.0000000000
   16      H       1.0288411001    -2.5462677508     0.0000000000
 ----------------------------------------------------------------
 Molecular Point Group                 Cs    NOp =  2
 Largest Abelian Subgroup              Cs    NOp =  2
 Nuclear Repulsion Energy =   397.9687870326 hartrees
 There are       31 alpha and       31 beta electrons
 Applying Cartesian multipole field
    Component          Value
    ---------          -----
     (2,0,0)        1.00000E-11
     (0,2,0)        2.00000E-11
     (0,0,2)       -3.00000E-11
 Nucleus-field energy     =     0.0000000119 hartrees
 Requested basis set is 6-31+G(d)
 There are 59 shells and 185 basis functions
 Smallest overlap matrix eigenvalue = 1.29E-06
 Guess MOs from SCF MO coefficient file

 -----------------------------------------------------------------------
  General SCF calculation program by
  Eric Jon Sundstrom, Paul Horn, Yuezhi Mao, Dmitri Zuev, Alec White,
  David Stuck, Shaama M.S., Shane Yost, Joonho Lee, David Small,
  Daniel Levine, Susi Lehtola, Hugh Burton, Evgeny Epifanovsky
 -----------------------------------------------------------------------
 Exchange:  PBE      Correlation:  PBE
 Using SG-1 standard quadrature grid
 using 4 threads for integral computing
 -------------------------------------------------------
 OpenMP Integral computing Module                
 Release: version 1.0, May 2013, Q-Chem Inc. Pittsburgh 
 -------------------------------------------------------
 -------------------------------------------------------
 OpenMP BLAS3 based DFT computing Module                
 Release: version 1.0, May 2013, Q-Chem Inc. Pittsburgh 
 -------------------------------------------------------
 A restricted SCF calculation will be
 performed using DIIS
 SCF converges when DIIS error is below 1.0e-08
 ---------------------------------------
  Cycle       Energy         DIIS error
 ---------------------------------------
    1    -363.3637884068      8.10e-04  
    2    -363.3670221071      3.70e-04  
    3    -363.3666138338      4.83e-04  
    4    -363.3674831269      1.68e-04  
    5    -363.3676089116      5.16e-05  
    6    -363.3676210449      1.53e-05  
    7    -363.3676221018      2.89e-06  
    8    -363.3676221302      1.57e-06  
    9    -363.3676221413      2.41e-07  
   10    -363.3676221415      1.35e-07  
   11    -363.3676221416      2.61e-08  
   12    -363.3676221416      1.54e-08  
   13    -363.3676221416      2.49e-09  Convergence criterion met
 ---------------------------------------
 SCF time:   CPU 32.45s  wall 8.00s 
 SCF   energy in the final basis set =     -363.3676221416
 Total energy in the final basis set =     -363.3676221416
 A cutoff of  1.0D-12 yielded   1657 shell pairs
 There are     17105 function pairs

 Exchange:  PBE      Correlation:  PBE
 Using SG-1 standard quadrature grid
 Direct TDDFT/TDA calculation will be performed
 Singlet excitation energies requested
 CIS energy converged when residual is below 10e- 6
 ---------------------------------------------------
 Iter    Rts Conv    Rts Left    Ttl Dev     Max Dev
 ---------------------------------------------------
   1         0           3      0.003970    0.001981
   2         0           3      0.003325    0.001699
   3         0           3      0.002510    0.001538
   4         1           2      0.001489    0.000772
   5         1           2      0.001659    0.001097
   6         1           2      0.000373    0.000189
   7         1           2      0.000092    0.000050
   8         1           2      0.000027    0.000014
   9         1           2      0.000007    0.000004
  10         3           0      0.000002    0.000001    Roots Converged
 ---------------------------------------------------

 ---------------------------------------------------
         TDDFT/TDA Excitation Energies              
 ---------------------------------------------------

 Excited state   1: excitation energy (eV) =    4.1879
 Total energy for state  1:                  -363.21371900 au
    Multiplicity: Singlet
    Trans. Mom.:  0.0000 X  -0.0000 Y  -0.0992 Z
    Strength   :     0.0010100099
    D( 31) --> V(  2) amplitude =  0.9996

 Excited state   2: excitation energy (eV) =    4.3010
 Total energy for state  2:                  -363.20956480 au
    Multiplicity: Singlet
    Trans. Mom.: -0.6595 X   0.5612 Y  -0.0000 Z
    Strength   :     0.0790190858
    D( 29) --> V(  1) amplitude =  0.2535
    D( 31) --> V(  1) amplitude =  0.8849
    D( 31) --> V(  3) amplitude = -0.2209

 Excited state   3: excitation energy (eV) =    4.6407
 Total energy for state  3:                  -363.19708114 au
    Multiplicity: Singlet
    Trans. Mom.:  0.0383 X  -0.1757 Y  -0.0000 Z
    Strength   :     0.0036770136
    D( 30) --> V(  1) amplitude =  0.7114
    D( 31) --> V(  3) amplitude = -0.6718

 ---------------------------------------------------
 Calculating Relaxed Density
 ---------------------------------------------------
 Iter    Rts Conv    Rts Left    Ttl Dev     Max Dev
 ---------------------------------------------------
   1         0           3      0.002571    0.001278
   2         0           3      0.000904    0.000498
   3         0           3      0.000231    0.000109
   4         0           3      0.000080    0.000043
   5         1           2      0.000008    0.000005
   6         3           0      0.000000    0.000000    Roots Converged
 ---------------------------------------------------
  SETman timing summary (seconds)
  CPU time               143.55s
  System time             30.98s
  Wall time               38.49s

 --------------------------------------------------------------
             Orbital Energies (a.u.) and Symmetries
 --------------------------------------------------------------

 Alpha MOs, Restricted
 -- Occupied --                  
-14.066  -9.939  -9.935  -9.909  -9.904  -9.903  -9.902  -9.899
  1 A'    2 A'    3 A'    4 A'    5 A'    6 A'    7 A'    8 A'                 
 -9.895  -0.909  -0.762  -0.706  -0.671  -0.642  -0.567  -0.537
  9 A'   10 A'   11 A'   12 A'   13 A'   14 A'   15 A'   16 A'                 
 -0.523  -0.486  -0.432  -0.421  -0.392  -0.383  -0.381  -0.359
 17 A'   18 A'   19 A'   20 A'   21 A'   22 A'    1 A"   23 A'                 
 -0.346  -0.313  -0.298  -0.294  -0.245  -0.206  -0.177
 24 A'   25 A'    2 A"   26 A'    3 A"    4 A"    5 A"                         
 -- Virtual --                   
 -0.047  -0.023  -0.010   0.003   0.011   0.017   0.025   0.027
  6 A"   27 A'    7 A"   28 A'   29 A'    8 A"   30 A'   31 A'                 
  0.045   0.048   0.051   0.055   0.072   0.075   0.094   0.096
 32 A'    9 A"   33 A'   34 A'   10 A"   11 A"   35 A'   36 A'                 
  0.097   0.111   0.119   0.119   0.136   0.138   0.147   0.148
 37 A'   12 A"   38 A'   13 A"   39 A'   14 A"   15 A"   40 A'                 
  0.154   0.159   0.166   0.167   0.178   0.180   0.183   0.185
 41 A'   42 A'   43 A'   16 A"   44 A'   45 A'   17 A"   46 A'                 
  0.198   0.202   0.213   0.218   0.218   0.225   0.233   0.240
 47 A'   48 A'   49 A'   18 A"   50 A'   51 A'   52 A'   53 A'                 
  0.253   0.255   0.260   0.266   0.271   0.277   0.294   0.306
 54 A'   55 A'   56 A'   57 A'   58 A'   59 A'   60 A'   61 A'                 
  0.323   0.328   0.338   0.357   0.380   0.406   0.467   0.525
 62 A'   63 A'   64 A'   65 A'   66 A'   67 A'   68 A'   69 A'                 
  0.561   0.631   0.638   0.654   0.675   0.679   0.680   0.688
 70 A'   19 A"   71 A'   20 A"   72 A'   21 A"   73 A'   74 A'                 
  0.692   0.708   0.709   0.731   0.744   0.745   0.766   0.806
 22 A"   75 A'   23 A"   24 A"   76 A'   25 A"   77 A'   26 A"                 
  0.834   0.844   0.852   0.885   0.890   0.903   0.905   0.933
 78 A'   79 A'   80 A'   81 A'   82 A'   83 A'   27 A"   84 A'                 
  0.946   0.970   0.986   0.998   1.048   1.061   1.066   1.125
 85 A'   86 A'   87 A'   88 A'   89 A'   90 A'   91 A'   92 A'                 
  1.128   1.153   1.177   1.178   1.194   1.255   1.266   1.284
 93 A'   94 A'   28 A"   95 A'   96 A'   29 A"   97 A'   30 A"                 
  1.310   1.350   1.361   1.390   1.394   1.405   1.430   1.435
 98 A'   31 A"   99 A'  100 A'   32 A"   33 A"   34 A"   35 A"                 
  1.486   1.528   1.586   1.696   1.758   1.802   1.823   1.831
101 A'  102 A'  103 A'  104 A'  105 A'  106 A'   36 A"  107 A'                 
  1.861   1.901   1.904   1.928   1.970   2.001   2.054   2.077
108 A'  109 A'  110 A'   37 A"  111 A'  112 A'  113 A'  114 A'                 
  2.086   2.089   2.163   2.172   2.182   2.212   2.230   2.289
115 A'   38 A"   39 A"   40 A"   41 A"  116 A'  117 A'   42 A"                 
  2.327   2.368   2.450   2.467   2.556   2.566   2.569   2.598
 43 A"  118 A'  119 A'   44 A"  120 A'   45 A"  121 A'  122 A'                 
  2.637   2.712   2.751   2.759   2.856   2.893   2.983   3.142
123 A'  124 A'  125 A'  126 A'  127 A'  128 A'  129 A'  130 A'                 
  3.317   4.053   4.155   4.193   4.224   4.262   4.302   4.384
131 A'  132 A'  133 A'  134 A'  135 A'  136 A'  137 A'  138 A'                 
  4.425   4.684
139 A'  140 A'                                                                 

 Beta MOs, Restricted
 -- Occupied --                  
-14.066  -9.939  -9.935  -9.909  -9.904  -9.903  -9.902  -9.899
  1 A'    2 A'    3 A'    4 A'    5 A'    6 A'    7 A'    8 A'                 
 -9.895  -0.909  -0.762  -0.706  -0.671  -0.642  -0.567  -0.537
  9 A'   10 A'   11 A'   12 A'   13 A'   14 A'   15 A'   16 A'                 
 -0.523  -0.486  -0.432  -0.421  -0.392  -0.383  -0.381  -0.359
 17 A'   18 A'   19 A'   20 A'   21 A'   22 A'    1 A"   23 A'                 
 -0.346  -0.313  -0.298  -0.294  -0.245  -0.206  -0.177
 24 A'   25 A'    2 A"   26 A'    3 A"    4 A"    5 A"                         
 -- Virtual --                   
 -0.047  -0.023  -0.010   0.003   0.011   0.017   0.025   0.027
  6 A"   27 A'    7 A"   28 A'   29 A'    8 A"   30 A'   31 A'                 
  0.045   0.048   0.051   0.055   0.072   0.075   0.094   0.096
 32 A'    9 A"   33 A'   34 A'   10 A"   11 A"   35 A'   36 A'                 
  0.097   0.111   0.119   0.119   0.136   0.138   0.147   0.148
 37 A'   12 A"   38 A'   13 A"   39 A'   14 A"   15 A"   40 A'                 
  0.154   0.159   0.166   0.167   0.178   0.180   0.183   0.185
 41 A'   42 A'   43 A'   16 A"   44 A'   45 A'   17 A"   46 A'                 
  0.198   0.202   0.213   0.218   0.218   0.225   0.233   0.240
 47 A'   48 A'   49 A'   18 A"   50 A'   51 A'   52 A'   53 A'                 
  0.253   0.255   0.260   0.266   0.271   0.277   0.294   0.306
 54 A'   55 A'   56 A'   57 A'   58 A'   59 A'   60 A'   61 A'                 
  0.323   0.328   0.338   0.357   0.380   0.406   0.467   0.525
 62 A'   63 A'   64 A'   65 A'   66 A'   67 A'   68 A'   69 A'                 
  0.561   0.631   0.638   0.654   0.675   0.679   0.680   0.688
 70 A'   19 A"   71 A'   20 A"   72 A'   21 A"   73 A'   74 A'                 
  0.692   0.708   0.709   0.731   0.744   0.745   0.766   0.806
 22 A"   75 A'   23 A"   24 A"   76 A'   25 A"   77 A'   26 A"                 
  0.834   0.844   0.852   0.885   0.890   0.903   0.905   0.933
 78 A'   79 A'   80 A'   81 A'   82 A'   83 A'   27 A"   84 A'                 
  0.946   0.970   0.986   0.998   1.048   1.061   1.066   1.125
 85 A'   86 A'   87 A'   88 A'   89 A'   90 A'   91 A'   92 A'                 
  1.128   1.153   1.177   1.178   1.194   1.255   1.266   1.284
 93 A'   94 A'   28 A"   95 A'   96 A'   29 A"   97 A'   30 A"                 
  1.310   1.350   1.361   1.390   1.394   1.405   1.430   1.435
 98 A'   31 A"   99 A'  100 A'   32 A"   33 A"   34 A"   35 A"                 
  1.486   1.528   1.586   1.696   1.758   1.802   1.823   1.831
101 A'  102 A'  103 A'  104 A'  105 A'  106 A'   36 A"  107 A'                 
  1.861   1.901   1.904   1.928   1.970   2.001   2.054   2.077
108 A'  109 A'  110 A'   37 A"  111 A'  112 A'  113 A'  114 A'                 
  2.086   2.089   2.163   2.172   2.182   2.212   2.230   2.289
115 A'   38 A"   39 A"   40 A"   41 A"  116 A'  117 A'   42 A"                 
  2.327   2.368   2.450   2.467   2.556   2.566   2.569   2.598
 43 A"  118 A'  119 A'   44 A"  120 A'   45 A"  121 A'  122 A'                 
  2.637   2.712   2.751   2.759   2.856   2.893   2.983   3.142
123 A'  124 A'  125 A'  126 A'  127 A'  128 A'  129 A'  130 A'                 
  3.317   4.053   4.155   4.193   4.224   4.262   4.302   4.384
131 A'  132 A'  133 A'  134 A'  135 A'  136 A'  137 A'  138 A'                 
  4.425   4.684
139 A'  140 A'                                                                 
 --------------------------------------------------------------

          Ground-State Mulliken Net Atomic Charges

     Atom                 Charge (a.u.)
  ----------------------------------------
      1 C                     0.051720
      2 C                    -0.511684
      3 C                    -0.204372
      4 C                    -1.253222
      5 N                    -0.369686
      6 H                     0.411644
      7 C                    -0.240725
      8 C                    -0.028624
      9 C                     1.705448
     10 C                    -0.694677
     11 H                     0.185468
     12 H                     0.183675
     13 H                     0.182974
     14 H                     0.196967
     15 H                     0.194086
     16 H                     0.191007
  ----------------------------------------
  Sum of atomic charges =    -0.000000

 -----------------------------------------------------------------
                    Cartesian Multipole Moments
 -----------------------------------------------------------------
    Charge (ESU x 10^10)
                 0.0000
    Dipole Moment (Debye)
         X      -1.6127      Y       1.7971      Z       0.0000
       Tot       2.4146
    Quadrupole Moments (Debye-Ang)
        XX     -45.4315     XY      -4.1893     YY     -44.5281
        XZ      -0.0000     YZ       0.0000     ZZ     -59.0204
    Octopole Moments (Debye-Ang^2)
       XXX     -14.6715    XXY       9.9091    XYY      -9.1001
       YYY      12.0346    XXZ       0.0000    XYZ      -0.0000
       YYZ       0.0000    XZZ      -2.1254    YZZ       2.4642
       ZZZ       0.0000
    Hexadecapole Moments (Debye-Ang^3)
      XXXX    -833.7454   XXXY     -23.6864   XXYY    -199.3727
      XYYY     -18.1272   YYYY    -377.9222   XXXZ      -0.0000
      XXYZ       0.0000   XYYZ       0.0000   YYYZ      -0.0000
      XXZZ    -193.1696   XYZZ      -2.3957   YYZZ     -95.8042
      XZZZ      -0.0000   YZZZ       0.0000   ZZZZ     -74.3118
 -----------------------------------------------------------------
 Calculating analytic gradient of the CIS energy
 CIS relaxed dipole moment
            1
    1  -2.0368033
    2   0.5205273
    3   0.0000000
	Magnitude:	 2.102 au	 5.343 Debye
 CIS 2 State Energy is -363.2095648002
 Gradient of the state energy (including CIS Excitation Energy)
            1           2           3           4           5           6
    1  -0.0119362  -0.0080171  -0.0107516  -0.0161032   0.0208042  -0.0106238
    2  -0.0198556   0.0134182  -0.0352988   0.0416483  -0.0212471   0.0256410
    3  -0.0000000  -0.0000000   0.0000000  -0.0000000  -0.0000000   0.0000000
            7           8           9          10          11          12
    1   0.0370320   0.0037439  -0.0106680   0.0091369   0.0000355  -0.0002663
    2  -0.0115673   0.0104843  -0.0316370   0.0277690  -0.0000723  -0.0013285
    3   0.0000000  -0.0000000  -0.0000000  -0.0000000  -0.0000000   0.0000000
           13          14          15          16
    1  -0.0025967  -0.0026473   0.0018042   0.0010534
    2  -0.0010844   0.0044956  -0.0013607  -0.0000048
    3  -0.0000000  -0.0000000  -0.0000000  -0.0000000
 Gradient time:  CPU 31.58 s  wall 10.31 s
 Geometry Optimization Parameters
   NAtoms,    NIC,     NZ,  NCons,   NDum,   NFix, NCnnct, MaxDiis
       16     116       0       0       0       0       0       0

 Cartesian Hessian Update
 Hessian Updated using BFGS Update


** GEOMETRY OPTIMIZATION IN DELOCALIZED INTERNAL COORDINATES **
   Searching for a Minimum

   Optimization Cycle:   2

                       Coordinates (Angstroms)
     ATOM                X               Y               Z
      1  C         2.1910943274   -0.7034489636    0.0000000000
      2  C         2.1440161555    0.7025813420    0.0000000000
      3  C         0.9134531545    1.4104877149    0.0000000000
      4  C        -0.2631613794    0.6630377169    0.0000000000
      5  N        -1.5900826679    1.0799274214    0.0000000000
      6  H        -1.9344564428    2.0788599577    0.0000000000
      7  C        -2.3937933669    0.0047624546    0.0000000000
      8  C        -1.6079108148   -1.1707735160    0.0000000000
      9  C        -0.2391907600   -0.7627075698    0.0000000000
     10  C         1.0003133620   -1.4516923848    0.0000000000
     11  H         3.1600161265   -1.2125732983    0.0000000000
     12  H         3.0825456285    1.2652844267    0.0000000000
     13  H         0.8772641104    2.5036295879    0.0000000000
     14  H        -3.4791459201    0.1486838986    0.0000000000
     15  H        -1.9879131205   -2.1943805757    0.0000000000
     16  H         1.0288411001   -2.5462677508    0.0000000000
   Point Group: cs    Number of degrees of freedom:    29


   Energy is   -363.209564800

 Hessian Updated using BFGS Update

 24 Hessian modes will be used to form the next step
  Hessian Eigenvalues:
     0.156737    0.162295    0.177021    0.220706    0.226357    0.244441
     0.247705    0.300889    0.351856    0.352141    0.352611    0.354661
     0.358540    0.363342    0.370434    0.392738    0.422399    0.431541
     0.454923    0.466090    0.470590    0.476257    0.491313    0.982053

 Minimum Search - Taking Simple RFO Step
 Searching for Lamda that Minimizes Along All modes
 Value Taken    Lamda =  -0.01164292
 Step Taken.  Stepsize is  0.210938

                             Maximum     Tolerance    Cnvgd?
         Gradient           0.031280      0.000300      NO
         Displacement       0.084320      0.001200      NO
         Energy change     -0.006278      0.000001      NO


 New Cartesian Coordinates Obtained by Inverse Iteration

 Displacement from previous Coordinates is:  0.286387
 ----------------------------------------------------------------
             Standard Nuclear Orientation (Angstroms)
    I     Atom           X                Y                Z
 ----------------------------------------------------------------
    1      C       2.2244874782    -0.7010064965     0.0000000000
    2      C       2.1755188905     0.7011349211     0.0000000000
    3      C       0.9257143366     1.4423362908     0.0000000000
    4      C      -0.2545773095     0.6500226153     0.0000000000
    5      N      -1.6213035006     1.0581031425     0.0000000000
    6      H      -1.9585386703     2.0656096723     0.0000000000
    7      C      -2.4542882628     0.0262034962     0.0000000000
    8      C      -1.6181466971    -1.1678190489     0.0000000000
    9      C      -0.2277687179    -0.7645134011     0.0000000000
   10      C       1.0140109270    -1.4859725095     0.0000000000
   11      H       3.2026009560    -1.2046017115     0.0000000000
   12      H       3.1200437567     1.2668353198     0.0000000000
   13      H       0.8887814639     2.5414733931     0.0000000000
   14      H      -3.5447394580     0.1695209328     0.0000000000
   15      H      -2.0048806989    -2.1957286506     0.0000000000
   16      H       1.0349749988    -2.5861875041     0.0000000000
 ----------------------------------------------------------------
 Molecular Point Group                 Cs    NOp =  2
 Largest Abelian Subgroup              Cs    NOp =  2
 Nuclear Repulsion Energy =   393.3396402209 hartrees
 There are       31 alpha and       31 beta electrons
 Applying Cartesian multipole field
    Component          Value
    ---------          -----
     (2,0,0)        1.00000E-11
     (0,2,0)        2.00000E-11
     (0,0,2)       -3.00000E-11
 Nucleus-field energy     =     0.0000000122 hartrees
 Requested basis set is 6-31+G(d)
 There are 59 shells and 185 basis functions
 Smallest overlap matrix eigenvalue = 1.48E-06
 Guess MOs from SCF MO coefficient file

 -----------------------------------------------------------------------
  General SCF calculation program by
  Eric Jon Sundstrom, Paul Horn, Yuezhi Mao, Dmitri Zuev, Alec White,
  David Stuck, Shaama M.S., Shane Yost, Joonho Lee, David Small,
  Daniel Levine, Susi Lehtola, Hugh Burton, Evgeny Epifanovsky
 -----------------------------------------------------------------------
 Exchange:  PBE      Correlation:  PBE
 Using SG-1 standard quadrature grid
 using 4 threads for integral computing
 -------------------------------------------------------
 OpenMP Integral computing Module                
 Release: version 1.0, May 2013, Q-Chem Inc. Pittsburgh 
 -------------------------------------------------------
 -------------------------------------------------------
 OpenMP BLAS3 based DFT computing Module                
 Release: version 1.0, May 2013, Q-Chem Inc. Pittsburgh 
 -------------------------------------------------------
 A restricted SCF calculation will be
 performed using DIIS
 SCF converges when DIIS error is below 1.0e-08
 ---------------------------------------
  Cycle       Energy         DIIS error
 ---------------------------------------
    1    -363.3513148513      9.16e-04  
    2    -363.3555769288      3.05e-04  
    3    -363.3552959867      3.94e-04  
    4    -363.3558587002      1.47e-04  
    5    -363.3559643418      3.84e-05  
    6    -363.3559710977      1.39e-05  
    7    -363.3559719453      2.93e-06  
    8    -363.3559719774      1.40e-06  
    9    -363.3559719872      1.67e-07  
   10    -363.3559719873      1.27e-07  
   11    -363.3559719874      3.21e-08  
   12    -363.3559719874      8.07e-09  Convergence criterion met
 ---------------------------------------
 SCF time:   CPU 30.81s  wall 9.00s 
 SCF   energy in the final basis set =     -363.3559719874
 Total energy in the final basis set =     -363.3559719874
 A cutoff of  1.0D-12 yielded   1654 shell pairs
 There are     17089 function pairs

 Exchange:  PBE      Correlation:  PBE
 Using SG-1 standard quadrature grid
 Direct TDDFT/TDA calculation will be performed
 Singlet excitation energies requested
 CIS energy converged when residual is below 10e- 6
 ---------------------------------------------------
 Iter    Rts Conv    Rts Left    Ttl Dev     Max Dev
 ---------------------------------------------------
   1         0           3      0.003952    0.001934
   2         0           3      0.003230    0.001739
   3         0           3      0.001956    0.001184
   4         1           2      0.002089    0.001123
   5         1           2      0.000882    0.000567
   6         1           2      0.000239    0.000146
   7         1           2      0.000068    0.000047
   8         1           2      0.000013    0.000008
   9         2           1      0.000003    0.000002
  10         3           0      0.000001    0.000000    Roots Converged
 ---------------------------------------------------

 ---------------------------------------------------
         TDDFT/TDA Excitation Energies              
 ---------------------------------------------------

 Excited state   1: excitation energy (eV) =    3.8586
 Total energy for state  1:                  -363.21417054 au
    Multiplicity: Singlet
    Trans. Mom.:  0.6100 X  -0.5727 Y   0.0000 Z
    Strength   :     0.0661846817
    D( 29) --> V(  1) amplitude =  0.2740
    D( 31) --> V(  1) amplitude =  0.8976

 Excited state   2: excitation energy (eV) =    4.0297
 Total energy for state  2:                  -363.20788158 au
    Multiplicity: Singlet
    Trans. Mom.:  0.0000 X   0.0000 Y  -0.0930 Z
    Strength   :     0.0008543377
    D( 31) --> V(  2) amplitude =  0.9996

 Excited state   3: excitation energy (eV) =    4.4892
 Total energy for state  3:                  -363.19099746 au
    Multiplicity: Singlet
    Trans. Mom.: -0.1699 X   0.1614 Y   0.0000 Z
    Strength   :     0.0060393372
    D( 30) --> V(  1) amplitude =  0.6760
    D( 31) --> V(  3) amplitude =  0.6967

 ---------------------------------------------------
 Calculating Relaxed Density
 ---------------------------------------------------
 Iter    Rts Conv    Rts Left    Ttl Dev     Max Dev
 ---------------------------------------------------
   1         0           3      0.002754    0.001372
   2         0           3      0.000955    0.000521
   3         0           3      0.000235    0.000116
   4         0           3      0.000079    0.000042
   5         0           3      0.000011    0.000006
   6         3           0      0.000000    0.000000    Roots Converged
 ---------------------------------------------------
  SETman timing summary (seconds)
  CPU time               143.92s
  System time             30.94s
  Wall time               39.32s

 --------------------------------------------------------------
             Orbital Energies (a.u.) and Symmetries
 --------------------------------------------------------------

 Alpha MOs, Restricted
 -- Occupied --                  
-14.068  -9.944  -9.942  -9.919  -9.912  -9.909  -9.909  -9.906
  1 A'    2 A'    3 A'    4 A'    5 A'    6 A'    7 A'    8 A'                 
 -9.899  -0.903  -0.758  -0.697  -0.670  -0.636  -0.568  -0.533
  9 A'   10 A'   11 A'   12 A'   13 A'   14 A'   15 A'   16 A'                 
 -0.518  -0.486  -0.433  -0.423  -0.388  -0.384  -0.376  -0.352
 17 A'   18 A'   19 A'   20 A'   21 A'   22 A'    1 A"   23 A'                 
 -0.347  -0.312  -0.298  -0.297  -0.240  -0.210  -0.171
 24 A'   25 A'   26 A'    2 A"    3 A"    4 A"    5 A"                         
 -- Virtual --                   
 -0.056  -0.024  -0.013   0.002   0.011   0.012   0.023   0.026
  6 A"   27 A'    7 A"   28 A'   29 A'    8 A"   30 A'   31 A'                 
  0.045   0.048   0.049   0.054   0.071   0.075   0.092   0.094
 32 A'    9 A"   33 A'   34 A'   10 A"   11 A"   35 A'   36 A'                 
  0.095   0.110   0.118   0.119   0.132   0.134   0.145   0.145
 37 A'   12 A"   13 A"   38 A'   14 A"   39 A'   15 A"   40 A'                 
  0.150   0.152   0.162   0.164   0.173   0.178   0.184   0.184
 41 A'   42 A'   43 A'   16 A"   44 A'   45 A'   17 A"   46 A'                 
  0.195   0.197   0.209   0.216   0.217   0.218   0.230   0.238
 47 A'   48 A'   49 A'   50 A'   18 A"   51 A'   52 A'   53 A'                 
  0.249   0.251   0.257   0.261   0.266   0.274   0.291   0.303
 54 A'   55 A'   56 A'   57 A'   58 A'   59 A'   60 A'   61 A'                 
  0.314   0.319   0.323   0.351   0.365   0.402   0.454   0.512
 62 A'   63 A'   64 A'   65 A'   66 A'   67 A'   68 A'   69 A'                 
  0.539   0.630   0.632   0.653   0.669   0.676   0.680   0.680
 70 A'   19 A"   71 A'   20 A"   72 A'   73 A'   21 A"   74 A'                 
  0.690   0.703   0.709   0.727   0.735   0.743   0.758   0.802
 22 A"   75 A'   23 A"   24 A"   76 A'   25 A"   77 A'   26 A"                 
  0.829   0.838   0.841   0.881   0.894   0.901   0.903   0.927
 78 A'   79 A'   80 A'   81 A'   82 A'   83 A'   27 A"   84 A'                 
  0.941   0.971   0.984   0.993   1.045   1.058   1.068   1.115
 85 A'   86 A'   87 A'   88 A'   89 A'   90 A'   91 A'   92 A'                 
  1.121   1.154   1.174   1.179   1.189   1.255   1.262   1.288
 93 A'   94 A'   95 A'   28 A"   96 A'   29 A"   97 A'   30 A"                 
  1.300   1.338   1.340   1.375   1.404   1.410   1.418   1.432
 98 A'   99 A'   31 A"  100 A'   32 A"   33 A"   34 A"   35 A"                 
  1.477   1.508   1.557   1.700   1.735   1.769   1.811   1.816
101 A'  102 A'  103 A'  104 A'  105 A'  106 A'  107 A'   36 A"                 
  1.837   1.888   1.891   1.915   1.925   1.967   2.015   2.068
108 A'  109 A'  110 A'   37 A"  111 A'  112 A'  113 A'  114 A'                 
  2.071   2.092   2.126   2.150   2.186   2.191   2.208   2.268
 38 A"  115 A'   39 A"   40 A"  116 A'   41 A"  117 A'   42 A"                 
  2.298   2.360   2.411   2.441   2.529   2.531   2.557   2.569
 43 A"  118 A'  119 A'   44 A"   45 A"  120 A'  121 A'  122 A'                 
  2.627   2.685   2.716   2.745   2.839   2.871   2.929   3.114
123 A'  124 A'  125 A'  126 A'  127 A'  128 A'  129 A'  130 A'                 
  3.258   4.040   4.131   4.183   4.216   4.248   4.299   4.372
131 A'  132 A'  133 A'  134 A'  135 A'  136 A'  137 A'  138 A'                 
  4.417   4.661
139 A'  140 A'                                                                 

 Beta MOs, Restricted
 -- Occupied --                  
-14.068  -9.944  -9.942  -9.919  -9.912  -9.909  -9.909  -9.906
  1 A'    2 A'    3 A'    4 A'    5 A'    6 A'    7 A'    8 A'                 
 -9.899  -0.903  -0.758  -0.697  -0.670  -0.636  -0.568  -0.533
  9 A'   10 A'   11 A'   12 A'   13 A'   14 A'   15 A'   16 A'                 
 -0.518  -0.486  -0.433  -0.423  -0.388  -0.384  -0.376  -0.352
 17 A'   18 A'   19 A'   20 A'   21 A'   22 A'    1 A"   23 A'                 
 -0.347  -0.312  -0.298  -0.297  -0.240  -0.210  -0.171
 24 A'   25 A'   26 A'    2 A"    3 A"    4 A"    5 A"                         
 -- Virtual --                   
 -0.056  -0.024  -0.013   0.002   0.011   0.012   0.023   0.026
  6 A"   27 A'    7 A"   28 A'   29 A'    8 A"   30 A'   31 A'                 
  0.045   0.048   0.049   0.054   0.071   0.075   0.092   0.094
 32 A'    9 A"   33 A'   34 A'   10 A"   11 A"   35 A'   36 A'                 
  0.095   0.110   0.118   0.119   0.132   0.134   0.145   0.145
 37 A'   12 A"   13 A"   38 A'   14 A"   39 A'   15 A"   40 A'                 
  0.150   0.152   0.162   0.164   0.173   0.178   0.184   0.184
 41 A'   42 A'   43 A'   16 A"   44 A'   45 A'   17 A"   46 A'                 
  0.195   0.197   0.209   0.216   0.217   0.218   0.230   0.238
 47 A'   48 A'   49 A'   50 A'   18 A"   51 A'   52 A'   53 A'                 
  0.249   0.251   0.257   0.261   0.266   0.274   0.291   0.303
 54 A'   55 A'   56 A'   57 A'   58 A'   59 A'   60 A'   61 A'                 
  0.314   0.319   0.323   0.351   0.365   0.402   0.454   0.512
 62 A'   63 A'   64 A'   65 A'   66 A'   67 A'   68 A'   69 A'                 
  0.539   0.630   0.632   0.653   0.669   0.676   0.680   0.680
 70 A'   19 A"   71 A'   20 A"   72 A'   73 A'   21 A"   74 A'                 
  0.690   0.703   0.709   0.727   0.735   0.743   0.758   0.802
 22 A"   75 A'   23 A"   24 A"   76 A'   25 A"   77 A'   26 A"                 
  0.829   0.838   0.841   0.881   0.894   0.901   0.903   0.927
 78 A'   79 A'   80 A'   81 A'   82 A'   83 A'   27 A"   84 A'                 
  0.941   0.971   0.984   0.993   1.045   1.058   1.068   1.115
 85 A'   86 A'   87 A'   88 A'   89 A'   90 A'   91 A'   92 A'                 
  1.121   1.154   1.174   1.179   1.189   1.255   1.262   1.288
 93 A'   94 A'   95 A'   28 A"   96 A'   29 A"   97 A'   30 A"                 
  1.300   1.338   1.340   1.375   1.404   1.410   1.418   1.432
 98 A'   99 A'   31 A"  100 A'   32 A"   33 A"   34 A"   35 A"                 
  1.477   1.508   1.557   1.700   1.735   1.769   1.811   1.816
101 A'  102 A'  103 A'  104 A'  105 A'  106 A'  107 A'   36 A"                 
  1.837   1.888   1.891   1.915   1.925   1.967   2.015   2.068
108 A'  109 A'  110 A'   37 A"  111 A'  112 A'  113 A'  114 A'                 
  2.071   2.092   2.126   2.150   2.186   2.191   2.208   2.268
 38 A"  115 A'   39 A"   40 A"  116 A'   41 A"  117 A'   42 A"                 
  2.298   2.360   2.411   2.441   2.529   2.531   2.557   2.569
 43 A"  118 A'  119 A'   44 A"   45 A"  120 A'  121 A'  122 A'                 
  2.627   2.685   2.716   2.745   2.839   2.871   2.929   3.114
123 A'  124 A'  125 A'  126 A'  127 A'  128 A'  129 A'  130 A'                 
  3.258   4.040   4.131   4.183   4.216   4.248   4.299   4.372
131 A'  132 A'  133 A'  134 A'  135 A'  136 A'  137 A'  138 A'                 
  4.417   4.661
139 A'  140 A'                                                                 
 --------------------------------------------------------------

          Ground-State Mulliken Net Atomic Charges

     Atom                 Charge (a.u.)
  ----------------------------------------
      1 C                     0.000969
      2 C                    -0.423881
      3 C                    -0.332811
      4 C                    -1.273300
      5 N                    -0.350972
      6 H                     0.407770
      7 C                    -0.189738
      8 C                    -0.184554
      9 C                     1.770121
     10 C                    -0.577564
     11 H                     0.187667
     12 H                     0.185699
     13 H                     0.189022
     14 H                     0.204192
     15 H                     0.191253
     16 H                     0.196129
  ----------------------------------------
  Sum of atomic charges =    -0.000000

 -----------------------------------------------------------------
                    Cartesian Multipole Moments
 -----------------------------------------------------------------
    Charge (ESU x 10^10)
                -0.0000
    Dipole Moment (Debye)
         X      -1.5239      Y       1.8862      Z       0.0000
       Tot       2.4249
    Quadrupole Moments (Debye-Ang)
        XX     -44.8463     XY      -4.4491     YY     -44.6840
        XZ      -0.0000     YZ       0.0000     ZZ     -59.5499
    Octopole Moments (Debye-Ang^2)
       XXX     -16.7581    XXY      10.8619    XYY      -7.8965
       YYY      12.4135    XXZ       0.0000    XYZ      -0.0000
       YYZ      -0.0000    XZZ      -2.0284    YZZ       2.7373
       ZZZ      -0.0000
    Hexadecapole Moments (Debye-Ang^3)
      XXXX    -846.7152   XXXY     -25.8070   XXYY    -206.3458
      XYYY     -17.7246   YYYY    -382.1355   XXXZ       0.0000
      XXYZ       0.0000   XYYZ      -0.0000   YYYZ       0.0000
      XXZZ    -200.0244   XYZZ      -2.6296   YYZZ     -97.9727
      XZZZ       0.0000   YZZZ       0.0000   ZZZZ     -75.9979
 -----------------------------------------------------------------
 Calculating analytic gradient of the CIS energy
 CIS relaxed dipole moment
            1
    1   2.3485547
    2  -2.6821451
    3  -0.0000000
	Magnitude:	 3.565 au	 9.061 Debye
 CIS 2 State Energy is -363.2078815780
 Gradient of the state energy (including CIS Excitation Energy)
            1           2           3           4           5           6
    1   0.0192385   0.0146873   0.0047290  -0.0043768  -0.0152787   0.0064429
    2   0.0152258  -0.0133011   0.0256342  -0.0295558   0.0120473  -0.0192751
    3  -0.0000000   0.0000000  -0.0000000  -0.0000000  -0.0000000  -0.0000000
            7           8           9          10          11          12
    1  -0.0349625  -0.0001901   0.0131424  -0.0076227   0.0039894   0.0041601
    2   0.0118679   0.0046906   0.0178396  -0.0216543  -0.0007742   0.0013895
    3   0.0000000  -0.0000000  -0.0000000   0.0000000   0.0000000  -0.0000000
           13          14          15          16
    1  -0.0002597  -0.0013850  -0.0017247  -0.0005892
    2   0.0052177  -0.0011822  -0.0032691  -0.0049007
    3   0.0000000  -0.0000000  -0.0000000  -0.0000000
 Gradient time:  CPU 31.20 s  wall 10.33 s
 Geometry Optimization Parameters
   NAtoms,    NIC,     NZ,  NCons,   NDum,   NFix, NCnnct, MaxDiis
       16     116       0       0       0       0       0       0

 Cartesian Hessian Update
 Hessian Updated using BFGS Update


** GEOMETRY OPTIMIZATION IN DELOCALIZED INTERNAL COORDINATES **
   Searching for a Minimum

   Optimization Cycle:   3

                       Coordinates (Angstroms)
     ATOM                X               Y               Z
      1  C         2.2244874782   -0.7010064965    0.0000000000
      2  C         2.1755188905    0.7011349211    0.0000000000
      3  C         0.9257143366    1.4423362908    0.0000000000
      4  C        -0.2545773095    0.6500226153    0.0000000000
      5  N        -1.6213035006    1.0581031425    0.0000000000
      6  H        -1.9585386703    2.0656096723    0.0000000000
      7  C        -2.4542882628    0.0262034962    0.0000000000
      8  C        -1.6181466971   -1.1678190489    0.0000000000
      9  C        -0.2277687179   -0.7645134011    0.0000000000
     10  C         1.0140109270   -1.4859725095    0.0000000000
     11  H         3.2026009560   -1.2046017115    0.0000000000
     12  H         3.1200437567    1.2668353198    0.0000000000
     13  H         0.8887814639    2.5414733931    0.0000000000
     14  H        -3.5447394580    0.1695209328    0.0000000000
     15  H        -2.0048806989   -2.1957286506    0.0000000000
     16  H         1.0349749988   -2.5861875041    0.0000000000
   Point Group: cs    Number of degrees of freedom:    29


   Energy is   -363.207881578

 Hessian Updated using BFGS Update

 25 Hessian modes will be used to form the next step
  Hessian Eigenvalues:
     0.159062    0.160121    0.162403    0.213057    0.220423    0.240357
     0.246298    0.249140    0.351840    0.352020    0.352591    0.354012
     0.358537    0.360630    0.369456    0.382872    0.412274    0.422452
     0.437325    0.455571    0.466758    0.473775    0.478290    0.492666
     1.193309

 Minimum Search - Taking Simple RFO Step
 Searching for Lamda that Minimizes Along All modes
 Value Taken    Lamda =  -0.00721864
 Step Taken.  Stepsize is  0.116624

                             Maximum     Tolerance    Cnvgd?
         Gradient           0.042587      0.000300      NO
         Displacement       0.059122      0.001200      NO
         Energy change      0.001683      0.000001      NO


 New Cartesian Coordinates Obtained by Inverse Iteration

 Displacement from previous Coordinates is:  0.195229
 ----------------------------------------------------------------
             Standard Nuclear Orientation (Angstroms)
    I     Atom           X                Y                Z
 ----------------------------------------------------------------
    1      C       2.1928888988    -0.6972911218     0.0000000000
    2      C       2.1530668915     0.7051106162     0.0000000000
    3      C       0.9237151999     1.4362261601     0.0000000000
    4      C      -0.2475177942     0.6567166704     0.0000000000
    5      N      -1.5972879182     1.0658708569     0.0000000000
    6      H      -1.9355185544     2.0686079136     0.0000000000
    7      C      -2.4159992499     0.0113761884     0.0000000000
    8      C      -1.6107711162    -1.1779327274     0.0000000000
    9      C      -0.2346164116    -0.7613559811     0.0000000000
   10      C       0.9987997109    -1.4694488097     0.0000000000
   11      H       3.1625788732    -1.2056378486     0.0000000000
   12      H       3.0933342388     1.2673356088     0.0000000000
   13      H       0.8946854195     2.5298227938     0.0000000000
   14      H      -3.5021204209     0.1496689553     0.0000000000
   15      H      -1.9966996884    -2.1999952420     0.0000000000
   16      H       1.0233514138    -2.5636635714     0.0000000000
 ----------------------------------------------------------------
 Molecular Point Group                 Cs    NOp =  2
 Largest Abelian Subgroup              Cs    NOp =  2
 Nuclear Repulsion Energy =   396.2270699326 hartrees
 There are       31 alpha and       31 beta electrons
 Applying Cartesian multipole field
    Component          Value
    ---------          -----
     (2,0,0)        1.00000E-11
     (0,2,0)        2.00000E-11
     (0,0,2)       -3.00000E-11
 Nucleus-field energy     =     0.0000000120 hartrees
 Requested basis set is 6-31+G(d)
 There are 59 shells and 185 basis functions
 Smallest overlap matrix eigenvalue = 1.40E-06
 Guess MOs from SCF MO coefficient file

 -----------------------------------------------------------------------
  General SCF calculation program by
  Eric Jon Sundstrom, Paul Horn, Yuezhi Mao, Dmitri Zuev, Alec White,
  David Stuck, Shaama M.S., Shane Yost, Joonho Lee, David Small,
  Daniel Levine, Susi Lehtola, Hugh Burton, Evgeny Epifanovsky
 -----------------------------------------------------------------------
 Exchange:  PBE      Correlation:  PBE
 Using SG-1 standard quadrature grid
 using 4 threads for integral computing
 -------------------------------------------------------
 OpenMP Integral computing Module                
 Release: version 1.0, May 2013, Q-Chem Inc. Pittsburgh 
 -------------------------------------------------------
 -------------------------------------------------------
 OpenMP BLAS3 based DFT computing Module                
 Release: version 1.0, May 2013, Q-Chem Inc. Pittsburgh 
 -------------------------------------------------------
 A restricted SCF calculation will be
 performed using DIIS
 SCF converges when DIIS error is below 1.0e-08
 ---------------------------------------
  Cycle       Energy         DIIS error
 ---------------------------------------
    1    -363.3633494118      4.84e-04  
    2    -363.3644779803      1.81e-04  
    3    -363.3644056918      2.17e-04  
    4    -363.3645878785      8.27e-05  
    5    -363.3646217423      1.89e-05  
    6    -363.3646231848      9.50e-06  
    7    -363.3646235967      1.86e-06  
    8    -363.3646236109      6.59e-07  
    9    -363.3646236127      1.70e-07  
   10    -363.3646236128      4.64e-08  
   11    -363.3646236128      1.99e-08  
   12    -363.3646236128      4.40e-09  Convergence criterion met
 ---------------------------------------
 SCF time:   CPU 30.69s  wall 8.00s 
 SCF   energy in the final basis set =     -363.3646236128
 Total energy in the final basis set =     -363.3646236128
 A cutoff of  1.0D-12 yielded   1656 shell pairs
 There are     17099 function pairs

 Exchange:  PBE      Correlation:  PBE
 Using SG-1 standard quadrature grid
 Direct TDDFT/TDA calculation will be performed
 Singlet excitation energies requested
 CIS energy converged when residual is below 10e- 6
 ---------------------------------------------------
 Iter    Rts Conv    Rts Left    Ttl Dev     Max Dev
 ---------------------------------------------------
   1         0           3      0.003948    0.001952
   2         0           3      0.003096    0.001553
   3         0           3      0.001820    0.001202
   4         1           2      0.001533    0.001083
   5         1           2      0.000655    0.000517
   6         1           2      0.000190    0.000151
   7         1           2      0.000046    0.000038
   8         1           2      0.000010    0.000009
   9         2           1      0.000002    0.000001
  10         3           0      0.000001    0.000000    Roots Converged
 ---------------------------------------------------

 ---------------------------------------------------
         TDDFT/TDA Excitation Energies              
 ---------------------------------------------------

 Excited state   1: excitation energy (eV) =    4.0889
 Total energy for state  1:                  -363.21435917 au
    Multiplicity: Singlet
    Trans. Mom.: -0.6153 X   0.5633 Y  -0.0000 Z
    Strength   :     0.0697111500
    D( 29) --> V(  1) amplitude = -0.2652
    D( 31) --> V(  1) amplitude =  0.8933

 Excited state   2: excitation energy (eV) =    4.1322
 Total energy for state  2:                  -363.21276860 au
    Multiplicity: Singlet
    Trans. Mom.: -0.0000 X   0.0000 Y   0.0972 Z
    Strength   :     0.0009561471
    D( 31) --> V(  2) amplitude =  0.9996

 Excited state   3: excitation energy (eV) =    4.5783
 Total energy for state  3:                  -363.19637458 au
    Multiplicity: Singlet
    Trans. Mom.:  0.0745 X  -0.1740 Y   0.0000 Z
    Strength   :     0.0040187621
    D( 30) --> V(  1) amplitude =  0.7013
    D( 31) --> V(  3) amplitude =  0.6772

 ---------------------------------------------------
 Calculating Relaxed Density
 ---------------------------------------------------
 Iter    Rts Conv    Rts Left    Ttl Dev     Max Dev
 ---------------------------------------------------
   1         0           3      0.002668    0.001326
   2         0           3      0.000925    0.000509
   3         0           3      0.000236    0.000112
   4         0           3      0.000079    0.000042
   5         0           3      0.000010    0.000005
   6         3           0      0.000000    0.000000    Roots Converged
 ---------------------------------------------------
  SETman timing summary (seconds)
  CPU time               142.53s
  System time             31.12s
  Wall time               38.55s

 --------------------------------------------------------------
             Orbital Energies (a.u.) and Symmetries
 --------------------------------------------------------------

 Alpha MOs, Restricted
 -- Occupied --                  
-14.066  -9.941  -9.938  -9.913  -9.906  -9.905  -9.904  -9.901
  1 A'    2 A'    3 A'    4 A'    5 A'    6 A'    7 A'    8 A'                 
 -9.896  -0.905  -0.761  -0.702  -0.670  -0.640  -0.567  -0.535
  9 A'   10 A'   11 A'   12 A'   13 A'   14 A'   15 A'   16 A'                 
 -0.521  -0.487  -0.432  -0.422  -0.390  -0.384  -0.378  -0.357
 17 A'   18 A'   19 A'   20 A'   21 A'   22 A'    1 A"   23 A'                 
 -0.346  -0.310  -0.299  -0.298  -0.243  -0.207  -0.174
 24 A'   25 A'   26 A'    2 A"    3 A"    4 A"    5 A"                         
 -- Virtual --                   
 -0.051  -0.023  -0.011   0.003   0.011   0.014   0.024   0.027
  6 A"   27 A'    7 A"   28 A'   29 A'    8 A"   30 A'   31 A'                 
  0.045   0.048   0.050   0.055   0.071   0.075   0.093   0.095
 32 A'    9 A"   33 A'   34 A'   10 A"   11 A"   35 A'   36 A'                 
  0.096   0.111   0.119   0.119   0.136   0.136   0.145   0.148
 37 A'   12 A"   13 A"   38 A'   14 A"   39 A'   15 A"   40 A'                 
  0.153   0.156   0.165   0.166   0.177   0.179   0.184   0.184
 41 A'   42 A'   43 A'   16 A"   44 A'   45 A'   17 A"   46 A'                 
  0.197   0.200   0.211   0.218   0.218   0.222   0.232   0.239
 47 A'   48 A'   49 A'   18 A"   50 A'   51 A'   52 A'   53 A'                 
  0.252   0.254   0.259   0.264   0.269   0.276   0.293   0.306
 54 A'   55 A'   56 A'   57 A'   58 A'   59 A'   60 A'   61 A'                 
  0.320   0.322   0.331   0.355   0.374   0.406   0.461   0.522
 62 A'   63 A'   64 A'   65 A'   66 A'   67 A'   68 A'   69 A'                 
  0.552   0.631   0.634   0.654   0.672   0.679   0.679   0.683
 70 A'   19 A"   71 A'   20 A"   72 A'   21 A"   73 A'   74 A'                 
  0.691   0.706   0.709   0.729   0.739   0.744   0.763   0.804
 22 A"   75 A'   23 A"   24 A"   76 A'   25 A"   77 A'   26 A"                 
  0.832   0.842   0.847   0.883   0.892   0.902   0.904   0.929
 78 A'   79 A'   80 A'   81 A'   82 A'   83 A'   27 A"   84 A'                 
  0.945   0.971   0.986   0.996   1.046   1.062   1.069   1.121
 85 A'   86 A'   87 A'   88 A'   89 A'   90 A'   91 A'   92 A'                 
  1.126   1.154   1.176   1.178   1.192   1.255   1.265   1.285
 93 A'   94 A'   95 A'   28 A"   96 A'   29 A"   97 A'   30 A"                 
  1.307   1.345   1.347   1.380   1.401   1.405   1.423   1.432
 98 A'   31 A"   99 A'  100 A'   32 A"   33 A"   34 A"   35 A"                 
  1.484   1.515   1.572   1.701   1.751   1.789   1.820   1.826
101 A'  102 A'  103 A'  104 A'  105 A'  106 A'   36 A"  107 A'                 
  1.846   1.896   1.902   1.927   1.956   1.984   2.043   2.078
108 A'  109 A'  110 A'   37 A"  111 A'  112 A'  113 A'  114 A'                 
  2.084   2.084   2.148   2.159   2.187   2.199   2.223   2.283
 38 A"  115 A'   39 A"   40 A"   41 A"  116 A'  117 A'   42 A"                 
  2.311   2.367   2.430   2.455   2.542   2.551   2.564   2.586
 43 A"  118 A'  119 A'   44 A"  120 A'   45 A"  121 A'  122 A'                 
  2.638   2.700   2.737   2.751   2.849   2.888   2.961   3.125
123 A'  124 A'  125 A'  126 A'  127 A'  128 A'  129 A'  130 A'                 
  3.296   4.044   4.148   4.192   4.220   4.255   4.300   4.379
131 A'  132 A'  133 A'  134 A'  135 A'  136 A'  137 A'  138 A'                 
  4.423   4.673
139 A'  140 A'                                                                 

 Beta MOs, Restricted
 -- Occupied --                  
-14.066  -9.941  -9.938  -9.913  -9.906  -9.905  -9.904  -9.901
  1 A'    2 A'    3 A'    4 A'    5 A'    6 A'    7 A'    8 A'                 
 -9.896  -0.905  -0.761  -0.702  -0.670  -0.640  -0.567  -0.535
  9 A'   10 A'   11 A'   12 A'   13 A'   14 A'   15 A'   16 A'                 
 -0.521  -0.487  -0.432  -0.422  -0.390  -0.384  -0.378  -0.357
 17 A'   18 A'   19 A'   20 A'   21 A'   22 A'    1 A"   23 A'                 
 -0.346  -0.310  -0.299  -0.298  -0.243  -0.207  -0.174
 24 A'   25 A'   26 A'    2 A"    3 A"    4 A"    5 A"                         
 -- Virtual --                   
 -0.051  -0.023  -0.011   0.003   0.011   0.014   0.024   0.027
  6 A"   27 A'    7 A"   28 A'   29 A'    8 A"   30 A'   31 A'                 
  0.045   0.048   0.050   0.055   0.071   0.075   0.093   0.095
 32 A'    9 A"   33 A'   34 A'   10 A"   11 A"   35 A'   36 A'                 
  0.096   0.111   0.119   0.119   0.136   0.136   0.145   0.148
 37 A'   12 A"   13 A"   38 A'   14 A"   39 A'   15 A"   40 A'                 
  0.153   0.156   0.165   0.166   0.177   0.179   0.184   0.184
 41 A'   42 A'   43 A'   16 A"   44 A'   45 A'   17 A"   46 A'                 
  0.197   0.200   0.211   0.218   0.218   0.222   0.232   0.239
 47 A'   48 A'   49 A'   18 A"   50 A'   51 A'   52 A'   53 A'                 
  0.252   0.254   0.259   0.264   0.269   0.276   0.293   0.306
 54 A'   55 A'   56 A'   57 A'   58 A'   59 A'   60 A'   61 A'                 
  0.320   0.322   0.331   0.355   0.374   0.406   0.461   0.522
 62 A'   63 A'   64 A'   65 A'   66 A'   67 A'   68 A'   69 A'                 
  0.552   0.631   0.634   0.654   0.672   0.679   0.679   0.683
 70 A'   19 A"   71 A'   20 A"   72 A'   21 A"   73 A'   74 A'                 
  0.691   0.706   0.709   0.729   0.739   0.744   0.763   0.804
 22 A"   75 A'   23 A"   24 A"   76 A'   25 A"   77 A'   26 A"                 
  0.832   0.842   0.847   0.883   0.892   0.902   0.904   0.929
 78 A'   79 A'   80 A'   81 A'   82 A'   83 A'   27 A"   84 A'                 
  0.945   0.971   0.986   0.996   1.046   1.062   1.069   1.121
 85 A'   86 A'   87 A'   88 A'   89 A'   90 A'   91 A'   92 A'                 
  1.126   1.154   1.176   1.178   1.192   1.255   1.265   1.285
 93 A'   94 A'   95 A'   28 A"   96 A'   29 A"   97 A'   30 A"                 
  1.307   1.345   1.347   1.380   1.401   1.405   1.423   1.432
 98 A'   31 A"   99 A'  100 A'   32 A"   33 A"   34 A"   35 A"                 
[...]
    8    -363.3647289598      7.75e-07  
    9    -363.3647289625      1.94e-07  
   10    -363.3647289626      9.07e-08  
   11    -363.3647289627      2.09e-08  
   12    -363.3647289627      7.63e-09  Convergence criterion met
 ---------------------------------------
 SCF time:   CPU 29.86s  wall 8.00s 
 SCF   energy in the final basis set =     -363.3647289627
 Total energy in the final basis set =     -363.3647289627
 A cutoff of  1.0D-12 yielded   1656 shell pairs
 There are     17099 function pairs

 Exchange:  PBE      Correlation:  PBE
 Using SG-1 standard quadrature grid
 Direct TDDFT/TDA calculation will be performed
 Singlet excitation energies requested
 CIS energy converged when residual is below 10e- 6
 ---------------------------------------------------
 Iter    Rts Conv    Rts Left    Ttl Dev     Max Dev
 ---------------------------------------------------
   1         0           3      0.003907    0.001918
   2         0           3      0.003062    0.001572
   3         0           3      0.001694    0.001108
   4         1           2      0.001447    0.001042
   5         1           2      0.000904    0.000788
   6         1           2      0.000221    0.000192
   7         1           2      0.000051    0.000044
   8         2           1      0.000009    0.000007
   9         2           1      0.000002    0.000001
  10         3           0      0.000001    0.000001    Roots Converged
 ---------------------------------------------------

 ---------------------------------------------------
         TDDFT/TDA Excitation Energies              
 ---------------------------------------------------

 Excited state   1: excitation energy (eV) =    4.0275
 Total energy for state  1:                  -363.21672231 au
    Multiplicity: Singlet
    Trans. Mom.: -0.5722 X   0.5451 Y  -0.0000 Z
    Strength   :     0.0616272803
    D( 29) --> V(  1) amplitude = -0.2733
    D( 31) --> V(  1) amplitude =  0.8982

 Excited state   2: excitation energy (eV) =    4.2023
 Total energy for state  2:                  -363.21029837 au
    Multiplicity: Singlet
    Trans. Mom.: -0.0000 X   0.0000 Y   0.1007 Z
    Strength   :     0.0010446374
    D( 31) --> V(  2) amplitude =  0.9996

 Excited state   3: excitation energy (eV) =    4.5829
 Total energy for state  3:                  -363.19631055 au
    Multiplicity: Singlet
    Trans. Mom.: -0.0556 X   0.1763 Y  -0.0000 Z
    Strength   :     0.0038383309
    D( 30) --> V(  1) amplitude =  0.7024
    D( 31) --> V(  3) amplitude =  0.6736

 ---------------------------------------------------
 Calculating Relaxed Density
 ---------------------------------------------------
 Iter    Rts Conv    Rts Left    Ttl Dev     Max Dev
 ---------------------------------------------------
   1         0           3      0.002683    0.001328
   2         0           3      0.000931    0.000509
   3         0           3      0.000238    0.000112
   4         0           3      0.000077    0.000040
   5         0           3      0.000010    0.000005
   6         3           0      0.000000    0.000000    Roots Converged
 ---------------------------------------------------
  SETman timing summary (seconds)
  CPU time               144.92s
  System time             30.91s
  Wall time               39.55s

 --------------------------------------------------------------
             Orbital Energies (a.u.) and Symmetries
 --------------------------------------------------------------

 Alpha MOs, Restricted
 -- Occupied --                  
-14.063  -9.940  -9.939  -9.914  -9.907  -9.905  -9.905  -9.902
  1 A'    2 A'    3 A'    4 A'    5 A'    6 A'    7 A'    8 A'                 
 -9.896  -0.903  -0.762  -0.701  -0.670  -0.641  -0.567  -0.535
  9 A'   10 A'   11 A'   12 A'   13 A'   14 A'   15 A'   16 A'                 
 -0.520  -0.488  -0.431  -0.422  -0.390  -0.385  -0.376  -0.357
 17 A'   18 A'   19 A'   20 A'   21 A'   22 A'    1 A"   23 A'                 
 -0.346  -0.310  -0.300  -0.298  -0.242  -0.208  -0.174
 24 A'   25 A'   26 A'    2 A"    3 A"    4 A"    5 A"                         
 -- Virtual --                   
 -0.051  -0.020  -0.011   0.003   0.011   0.014   0.025   0.027
  6 A"   27 A'    7 A"   28 A'   29 A'    8 A"   30 A'   31 A'                 
  0.045   0.048   0.051   0.055   0.071   0.075   0.093   0.095
 32 A'    9 A"   33 A'   34 A'   10 A"   11 A"   35 A'   36 A'                 
  0.096   0.111   0.119   0.120   0.135   0.137   0.145   0.147
 37 A'   12 A"   13 A"   38 A'   14 A"   39 A'   15 A"   40 A'                 
  0.154   0.156   0.165   0.166   0.177   0.179   0.184   0.184
 41 A'   42 A'   43 A'   16 A"   44 A'   45 A'   17 A"   46 A'                 
  0.198   0.199   0.211   0.218   0.218   0.221   0.232   0.239
 47 A'   48 A'   49 A'   50 A'   18 A"   51 A'   52 A'   53 A'                 
  0.252   0.254   0.259   0.264   0.269   0.277   0.292   0.306
 54 A'   55 A'   56 A'   57 A'   58 A'   59 A'   60 A'   61 A'                 
  0.319   0.321   0.329   0.356   0.374   0.406   0.459   0.524
 62 A'   63 A'   64 A'   65 A'   66 A'   67 A'   68 A'   69 A'                 
  0.551   0.630   0.633   0.655   0.671   0.679   0.679   0.684
 70 A'   19 A"   71 A'   20 A"   72 A'   73 A'   21 A"   74 A'                 
  0.690   0.704   0.709   0.728   0.737   0.744   0.762   0.804
 22 A"   75 A'   23 A"   24 A"   76 A'   25 A"   77 A'   26 A"                 
  0.833   0.841   0.847   0.882   0.893   0.901   0.904   0.928
 78 A'   79 A'   80 A'   81 A'   82 A'   83 A'   27 A"   84 A'                 
  0.946   0.976   0.991   0.995   1.046   1.064   1.071   1.121
 85 A'   86 A'   87 A'   88 A'   89 A'   90 A'   91 A'   92 A'                 
  1.126   1.156   1.175   1.178   1.193   1.256   1.262   1.285
 93 A'   94 A'   95 A'   28 A"   96 A'   29 A"   97 A'   30 A"                 
  1.306   1.341   1.344   1.377   1.403   1.404   1.422   1.431
 98 A'   99 A'   31 A"  100 A'   32 A"   33 A"   34 A"   35 A"                 
  1.483   1.514   1.567   1.708   1.749   1.786   1.819   1.825
101 A'  102 A'  103 A'  104 A'  105 A'  106 A'   36 A"  107 A'                 
  1.843   1.901   1.902   1.926   1.956   1.984   2.045   2.078
108 A'  109 A'  110 A'   37 A"  111 A'  112 A'  113 A'  114 A'                 
  2.087   2.093   2.146   2.158   2.187   2.195   2.220   2.281
 38 A"  115 A'   39 A"   40 A"   41 A"  116 A'  117 A'   42 A"                 
  2.307   2.367   2.427   2.450   2.537   2.550   2.564   2.586
 43 A"  118 A'  119 A'   44 A"  120 A'   45 A"  121 A'  122 A'                 
  2.643   2.699   2.736   2.749   2.846   2.889   2.961   3.120
123 A'  124 A'  125 A'  126 A'  127 A'  128 A'  129 A'  130 A'                 
  3.294   4.044   4.147   4.193   4.221   4.254   4.299   4.377
131 A'  132 A'  133 A'  134 A'  135 A'  136 A'  137 A'  138 A'                 
  4.423   4.672
139 A'  140 A'                                                                 

 Beta MOs, Restricted
 -- Occupied --                  
-14.063  -9.940  -9.939  -9.914  -9.907  -9.905  -9.905  -9.902
  1 A'    2 A'    3 A'    4 A'    5 A'    6 A'    7 A'    8 A'                 
 -9.896  -0.903  -0.762  -0.701  -0.670  -0.641  -0.567  -0.535
  9 A'   10 A'   11 A'   12 A'   13 A'   14 A'   15 A'   16 A'                 
 -0.520  -0.488  -0.431  -0.422  -0.390  -0.385  -0.376  -0.357
 17 A'   18 A'   19 A'   20 A'   21 A'   22 A'    1 A"   23 A'                 
 -0.346  -0.310  -0.300  -0.298  -0.242  -0.208  -0.174
 24 A'   25 A'   26 A'    2 A"    3 A"    4 A"    5 A"                         
 -- Virtual --                   
 -0.051  -0.020  -0.011   0.003   0.011   0.014   0.025   0.027
  6 A"   27 A'    7 A"   28 A'   29 A'    8 A"   30 A'   31 A'                 
  0.045   0.048   0.051   0.055   0.071   0.075   0.093   0.095
 32 A'    9 A"   33 A'   34 A'   10 A"   11 A"   35 A'   36 A'                 
  0.096   0.111   0.119   0.120   0.135   0.137   0.145   0.147
 37 A'   12 A"   13 A"   38 A'   14 A"   39 A'   15 A"   40 A'                 
  0.154   0.156   0.165   0.166   0.177   0.179   0.184   0.184
 41 A'   42 A'   43 A'   16 A"   44 A'   45 A'   17 A"   46 A'                 
  0.198   0.199   0.211   0.218   0.218   0.221   0.232   0.239
 47 A'   48 A'   49 A'   50 A'   18 A"   51 A'   52 A'   53 A'                 
  0.252   0.254   0.259   0.264   0.269   0.277   0.292   0.306
 54 A'   55 A'   56 A'   57 A'   58 A'   59 A'   60 A'   61 A'                 
  0.319   0.321   0.329   0.356   0.374   0.406   0.459   0.524
 62 A'   63 A'   64 A'   65 A'   66 A'   67 A'   68 A'   69 A'                 
  0.551   0.630   0.633   0.655   0.671   0.679   0.679   0.684
 70 A'   19 A"   71 A'   20 A"   72 A'   73 A'   21 A"   74 A'                 
  0.690   0.704   0.709   0.728   0.737   0.744   0.762   0.804
 22 A"   75 A'   23 A"   24 A"   76 A'   25 A"   77 A'   26 A"                 
  0.833   0.841   0.847   0.882   0.893   0.901   0.904   0.928
 78 A'   79 A'   80 A'   81 A'   82 A'   83 A'   27 A"   84 A'                 
  0.946   0.976   0.991   0.995   1.046   1.064   1.071   1.121
 85 A'   86 A'   87 A'   88 A'   89 A'   90 A'   91 A'   92 A'                 
  1.126   1.156   1.175   1.178   1.193   1.256   1.262   1.285
 93 A'   94 A'   95 A'   28 A"   96 A'   29 A"   97 A'   30 A"                 
  1.306   1.341   1.344   1.377   1.403   1.404   1.422   1.431
 98 A'   99 A'   31 A"  100 A'   32 A"   33 A"   34 A"   35 A"                 
  1.483   1.514   1.567   1.708   1.749   1.786   1.819   1.825
101 A'  102 A'  103 A'  104 A'  105 A'  106 A'   36 A"  107 A'                 
  1.843   1.901   1.902   1.926   1.956   1.984   2.045   2.078
108 A'  109 A'  110 A'   37 A"  111 A'  112 A'  113 A'  114 A'                 
  2.087   2.093   2.146   2.158   2.187   2.195   2.220   2.281
 38 A"  115 A'   39 A"   40 A"   41 A"  116 A'  117 A'   42 A"                 
  2.307   2.367   2.427   2.450   2.537   2.550   2.564   2.586
 43 A"  118 A'  119 A'   44 A"  120 A'   45 A"  121 A'  122 A'                 
  2.643   2.699   2.736   2.749   2.846   2.889   2.961   3.120
123 A'  124 A'  125 A'  126 A'  127 A'  128 A'  129 A'  130 A'                 
  3.294   4.044   4.147   4.193   4.221   4.254   4.299   4.377
131 A'  132 A'  133 A'  134 A'  135 A'  136 A'  137 A'  138 A'                 
  4.423   4.672
139 A'  140 A'                                                                 
 --------------------------------------------------------------

          Ground-State Mulliken Net Atomic Charges

     Atom                 Charge (a.u.)
  ----------------------------------------
      1 C                     0.006592
      2 C                    -0.423732
      3 C                    -0.328429
      4 C                    -1.275481
      5 N                    -0.375148
      6 H                     0.410759
      7 C                    -0.211757
      8 C                    -0.090401
      9 C                     1.779981
     10 C                    -0.639307
     11 H                     0.185021
     12 H                     0.184166
     13 H                     0.189310
     14 H                     0.200816
     15 H                     0.192807
     16 H                     0.194802
  ----------------------------------------
  Sum of atomic charges =    -0.000000

 -----------------------------------------------------------------
                    Cartesian Multipole Moments
 -----------------------------------------------------------------
    Charge (ESU x 10^10)
                -0.0000
    Dipole Moment (Debye)
         X      -1.4757      Y       1.7938      Z       0.0000
       Tot       2.3228
    Quadrupole Moments (Debye-Ang)
        XX     -45.3534     XY      -3.9703     YY     -44.4557
        XZ       0.0000     YZ       0.0000     ZZ     -59.2260
    Octopole Moments (Debye-Ang^2)
       XXX     -15.8985    XXY       9.7211    XYY      -7.7884
       YYY      11.8581    XXZ      -0.0000    XYZ      -0.0000
       YYZ      -0.0000    XZZ      -1.9102    YZZ       2.5031
       ZZZ       0.0000
    Hexadecapole Moments (Debye-Ang^3)
      XXXX    -837.1954   XXXY     -24.0510   XXYY    -203.0437
      XYYY     -18.6500   YYYY    -378.8809   XXXZ       0.0000
      XXYZ      -0.0000   XYYZ      -0.0000   YYYZ       0.0000
      XXZZ    -195.3371   XYZZ      -3.4017   YYZZ     -96.8852
      XZZZ       0.0000   YZZZ       0.0000   ZZZZ     -75.0127
 -----------------------------------------------------------------
 Calculating analytic gradient of the CIS energy
 CIS relaxed dipole moment
            1
    1   2.2488843
    2  -2.7544474
    3   0.0000000
	Magnitude:	 3.556 au	 9.038 Debye
 CIS 2 State Energy is -363.2102983660
 Gradient of the state energy (including CIS Excitation Energy)
            1           2           3           4           5           6
    1   0.0075650   0.0033618   0.0105689   0.0034389  -0.0107626   0.0099364
    2   0.0114494  -0.0066274   0.0224779  -0.0320374   0.0296134  -0.0256380
    3   0.0000000   0.0000000   0.0000000   0.0000000   0.0000000   0.0000000
            7           8           9          10          11          12
    1  -0.0240369  -0.0113999   0.0127756  -0.0052938   0.0004067   0.0005266
    2  -0.0060337   0.0016721   0.0235223  -0.0170655   0.0001481   0.0003050
    3  -0.0000000   0.0000000   0.0000000  -0.0000000  -0.0000000  -0.0000000
           13          14          15          16
    1   0.0012995   0.0026740  -0.0005435  -0.0005167
    2   0.0005578  -0.0029768   0.0006753  -0.0000427
    3   0.0000000   0.0000000   0.0000000   0.0000000
 Gradient time:  CPU 32.17 s  wall 10.59 s
 Geometry Optimization Parameters
   NAtoms,    NIC,     NZ,  NCons,   NDum,   NFix, NCnnct, MaxDiis
       16     116       0       0       0       0       0       0

 Cartesian Hessian Update
 Hessian Updated using BFGS Update


** GEOMETRY OPTIMIZATION IN DELOCALIZED INTERNAL COORDINATES **
   Searching for a Minimum

   Optimization Cycle:  28

                       Coordinates (Angstroms)
     ATOM                X               Y               Z
      1  C         2.1894501659   -0.6948425232    0.0000000000
      2  C         2.1513302210    0.7070003015    0.0000000000
      3  C         0.9288288873    1.4457667967    0.0000000000
      4  C        -0.2411882152    0.6518322929    0.0000000000
      5  N        -1.6004271265    1.0643432374    0.0000000000
      6  H        -1.9189975981    2.0553746839    0.0000000000
      7  C        -2.4239306532    0.0105401740    0.0000000000
      8  C        -1.6166372940   -1.1723691482    0.0000000000
      9  C        -0.2311094567   -0.7546148798    0.0000000000
     10  C         0.9978132600   -1.4735160478    0.0000000000
     11  H         3.1610049646   -1.2003495103    0.0000000000
     12  H         3.0954620928    1.2630802774    0.0000000000
     13  H         0.9002986868    2.5382104728    0.0000000000
     14  H        -3.5089793948    0.1345872095    0.0000000000
     15  H        -2.0024452316   -2.1932419228    0.0000000000
     16  H         1.0214161840   -2.5663909527    0.0000000000
   Point Group: cs    Number of degrees of freedom:    29


   Energy is   -363.210298366

 Hessian Updated using BFGS Update

 29 Hessian modes will be used to form the next step
  Hessian Eigenvalues:
     0.153611    0.159585    0.159989    0.160000    0.160082    0.160332
     0.161311    0.191176    0.220462    0.240084    0.247493    0.254832
     0.314470    0.352028    0.352589    0.352805    0.354966    0.358729
     0.361876    0.380806    0.400064    0.423080    0.437696    0.456369
     0.466274    0.469446    0.486663    0.582730    0.711429

 Minimum Search - Taking Simple RFO Step
 Searching for Lamda that Minimizes Along All modes
 Value Taken    Lamda =  -0.01010003
 Step Taken.  Stepsize is  0.202148

                             Maximum     Tolerance    Cnvgd?
         Gradient           0.024361      0.000300      NO
         Displacement       0.103525      0.001200      NO
         Energy change     -0.007453      0.000001      NO


 New Cartesian Coordinates Obtained by Inverse Iteration

 Displacement from previous Coordinates is:  0.231896
 ----------------------------------------------------------------
             Standard Nuclear Orientation (Angstroms)
    I     Atom           X                Y                Z
 ----------------------------------------------------------------
    1      C       2.1845802413    -0.7051895017     0.0000000000
    2      C       2.1387417946     0.6995602289     0.0000000000
    3      C       0.9082729654     1.4126390559     0.0000000000
    4      C      -0.2568883309     0.6673755930     0.0000000000
    5      N      -1.5867174505     1.0733573236     0.0000000000
    6      H      -1.9553961567     2.1014333499     0.0000000000
    7      C      -2.3800578847     0.0151690495     0.0000000000
    8      C      -1.5898460913    -1.1856705502     0.0000000000
    9      C      -0.2415321816    -0.7699240727     0.0000000000
   10      C       0.9983723726    -1.4562231268     0.0000000000
   11      H       3.1518025234    -1.2157832429     0.0000000000
   12      H       3.0734813706     1.2682698720     0.0000000000
   13      H       0.8790037325     2.5049428302     0.0000000000
   14      H      -3.4686465805     0.1601076010     0.0000000000
   15      H      -1.9824662490    -2.2042456596     0.0000000000
   16      H       1.0291854176    -2.5504082883     0.0000000000
 ----------------------------------------------------------------
 Molecular Point Group                 Cs    NOp =  2
 Largest Abelian Subgroup              Cs    NOp =  2
 Nuclear Repulsion Energy =   398.3164371186 hartrees
 There are       31 alpha and       31 beta electrons
 Applying Cartesian multipole field
    Component          Value
    ---------          -----
     (2,0,0)        1.00000E-11
     (0,2,0)        2.00000E-11
     (0,0,2)       -3.00000E-11
 Nucleus-field energy     =     0.0000000119 hartrees
 Requested basis set is 6-31+G(d)
 There are 59 shells and 185 basis functions
 Smallest overlap matrix eigenvalue = 1.26E-06
 Guess MOs from SCF MO coefficient file

 -----------------------------------------------------------------------
  General SCF calculation program by
  Eric Jon Sundstrom, Paul Horn, Yuezhi Mao, Dmitri Zuev, Alec White,
  David Stuck, Shaama M.S., Shane Yost, Joonho Lee, David Small,
  Daniel Levine, Susi Lehtola, Hugh Burton, Evgeny Epifanovsky
 -----------------------------------------------------------------------
 Exchange:  PBE      Correlation:  PBE
 Using SG-1 standard quadrature grid
 using 4 threads for integral computing
 -------------------------------------------------------
 OpenMP Integral computing Module                
 Release: version 1.0, May 2013, Q-Chem Inc. Pittsburgh 
 -------------------------------------------------------
 -------------------------------------------------------
 OpenMP BLAS3 based DFT computing Module                
 Release: version 1.0, May 2013, Q-Chem Inc. Pittsburgh 
 -------------------------------------------------------
 A restricted SCF calculation will be
 performed using DIIS
 SCF converges when DIIS error is below 1.0e-08
 ---------------------------------------
  Cycle       Energy         DIIS error
 ---------------------------------------
    1    -363.3566120462      9.69e-04  
    2    -363.3612556716      2.65e-04  
    3    -363.3605833440      4.72e-04  
    4    -363.3615016945      1.08e-04  
    5    -363.3615398369      5.65e-05  
    6    -363.3615550427      1.22e-05  
    7    -363.3615557755      3.15e-06  
    8    -363.3615558172      1.28e-06  
    9    -363.3615558249      3.70e-07  
   10    -363.3615558255      1.50e-07  
   11    -363.3615558256      4.29e-08  
 A cutoff of  1.0D-12 yielded   1655 shell pairs
 There are     17095 function pairs
