Running Q-Chem job 1 of 1 
Check license passed

                  Welcome to Q-Chem
     A Quantum Leap Into The Future Of Chemistry


 Q-Chem 5.1, Q-Chem, Inc., Pleasanton, CA (2018)

 Yihan Shao,  Zhengting Gan,  E. Epifanovsky,  A. T. B. Gilbert,  M. Wormit,  
 J. Kussmann,  A. W. Lange,  A. Behn,  Jia Deng,  Xintian Feng,  D. Ghosh,  
 M. Goldey,  P. R. Horn,  L. D. Jacobson,  I. Kaliman,  T. Kus,  A. Landau,  
 Jie Liu,  E. I. Proynov,  R. M. Richard,  R. P. Steele,  E. J. Sundstrom,  
 H. L. Woodcock III,  P. M. Zimmerman,  D. Zuev,  B. Albrecht,  E. Alguire,  
 S. A. Baeppler,  D. Barton,  Z. Benda,  Y. A. Bernard,  E. J. Berquist,  
 K. B. Bravaya,  H. Burton,  D. Casanova,  Chun-Min Chang,  Yunqing Chen,  
 A. Chien,  K. D. Closser,  M. P. Coons,  S. Coriani,  S. Dasgupta,  
 A. L. Dempwolff,  M. Diedenhofen,  Hainam Do,  R. G. Edgar,  Po-Tung Fang,  
 S. Faraji,  S. Fatehi,  Qingguo Feng,  K. D. Fenk,  J. Fosso-Tande,  
 J. Gayvert,  Qinghui Ge,  A. Ghysels,  G. Gidofalvi,  J. Gomes,  
 J. Gonthier,  A. Gunina,  D. Hait,  M. W. D. Hanson-Heine,  
 P. H. P. Harbach,  A. W. Hauser,  J. E. Herr,  E. G. Hohenstein,  
 Z. C. Holden,  Kerwin Hui,  B. C. Huynh,  T.-C. Jagau,  Hyunjun Ji,  
 B. Kaduk,  K. Khistyaev,  Jaehoon Kim,  P. Klunzinger,  K. Koh,  
 D. Kosenkov,  L. Koulias,  T. Kowalczyk,  C. M. Krauter,  A. Kunitsa,  
 Ka Un Lao,  A. Laurent,  K. V. Lawler,  Joonho Lee,  D. Lefrancois,  
 S. Lehtola,  D. S. Levine,  Yi-Pei Li,  You-Sheng Lin,  Fenglai Liu,  
 E. Livshits,  A. Luenser,  P. Manohar,  E. Mansoor,  S. F. Manzer,  
 Shan-Ping Mao,  Yuezhi Mao,  N. Mardirossian,  A. V. Marenich,  
 T. Markovich,  L. A. Martinez-Martinez,  S. A. Maurer,  N. J. Mayhall,  
 S. C. McKenzie,  J.-M. Mewes,  A. F. Morrison,  J. W. Mullinax,  K. Nanda,  
 T. S. Nguyen-Beck,  R. Olivares-Amaya,  J. A. Parkhill,  T. M. Perrine,  
 F. Plasser,  P. Pokhilko,  S. Prager,  A. Prociuk,  E. Ramos,  D. R. Rehn,  
 F. Rob,  M. Schneider,  N. Sergueev,  S. M. Sharada,  S. Sharma,  
 D. W. Small,  T. Stauch,  T. Stein,  Yu-Chuan Su,  A. J. W. Thom,  
 A. Tkatchenko,  T. Tsuchimochi,  N. M. Tubman,  L. Vogt,  M. L. Vidal,  
 O. Vydrov,  M. A. Watson,  J. Wenzel,  M. de Wergifosse,  T. A. Wesolowski,  
 A. White,  J. Witte,  A. Yamada,  Jun Yang,  K. Yao,  S. Yeganeh,  
 S. R. Yost,  Zhi-Qiang You,  A. Zech,  Igor Ying Zhang,  Xing Zhang,  
 Yan Zhao,  Ying Zhu,  B. R. Brooks,  G. K. L. Chan,  C. J. Cramer,  
 M. S. Gordon,  W. J. Hehre,  A. Klamt,  M. W. Schmidt,  C. D. Sherrill,  
 D. G. Truhlar,  A. Aspuru-Guzik,  R. Baer,  A. T. Bell,  N. A. Besley,  
 Jeng-Da Chai,  A. E. DePrince, III,  R. A. DiStasio Jr.,  A. Dreuw,  
 B. D. Dunietz,  T. R. Furlani,  Chao-Ping Hsu,  Yousung Jung,  Jing Kong,  
 D. S. Lambrecht,  WanZhen Liang,  C. Ochsenfeld,  V. A. Rassolov,  
 L. V. Slipchenko,  J. E. Subotnik,  T. Van Voorhis,  J. M. Herbert,  
 A. I. Krylov,  P. M. W. Gill,  M. Head-Gordon

 Contributors to earlier versions of Q-Chem not listed above: 
 R. D. Adamson,  B. Austin,  J. Baker,  G. J. O. Beran,  K. Brandhorst,  
 S. T. Brown,  E. F. C. Byrd,  A. K. Chakraborty,  C.-L. Cheng,  
 Siu Hung Chien,  D. M. Chipman,  D. L. Crittenden,  H. Dachsel,  
 R. J. Doerksen,  A. D. Dutoi,  L. Fusti-Molnar,  W. A. Goddard III,  
 A. Golubeva-Zadorozhnaya,  S. R. Gwaltney,  G. Hawkins,  A. Heyden,  
 S. Hirata,  G. Kedziora,  F. J. Keil,  C. Kelley,  Jihan Kim,  R. A. King,  
 R. Z. Khaliullin,  P. P. Korambath,  W. Kurlancheek,  A. M. Lee,  M. S. Lee,  
 S. V. Levchenko,  Ching Yeh Lin,  D. Liotard,  R. C. Lochan,  I. Lotan,  
 P. E. Maslen,  N. Nair,  D. P. O'Neill,  D. Neuhauser,  E. Neuscamman,  
 C. M. Oana,  R. Olson,  B. Peters,  R. Peverati,  P. A. Pieniazek,  
 Y. M. Rhee,  J. Ritchie,  M. A. Rohrdanz,  E. Rosta,  N. J. Russ,  
 H. F. Schaefer III,  N. E. Schultz,  N. Shenvi,  A. C. Simmonett,  A. Sodt,  
 D. Stuck,  K. S. Thanthiriwatte,  V. Vanovschi,  Tao Wang,  A. Warshel,  
 C. F. Williams,  Q. Wu,  X. Xu,  W. Zhang

 Please cite Q-Chem as follows:
 Y. Shao et al., Mol. Phys. 113, 184-215 (2015)
 DOI: 10.1080/00268976.2014.952696

 Q-Chem 5.1.2 for Intel X86 EM64T Linux

 Parts of Q-Chem use Armadillo 8.300.2 (Tropical Shenanigans).
 http://arma.sourceforge.net/

 Q-Chem begins on Mon Jun  7 14:53:34 2021  

Host: 127

     Scratch files written to C:/Users/scaparas/AppData/Local/Temp/qchem3579//
 Dec318 |cygdrive|d|Jenkins|workspace|build_RNUM -1
Input Ideriv = 1
Curr. Ideriv = -1
Max.  Ideriv = 1

Checking the input file for inconsistencies... 	...done.

--------------------------------------------------------------
User input:
--------------------------------------------------------------

$molecule
0 1
C         2.1665374654   -0.6554056232    0.0000000000
C         2.1169746126    0.7536230414    0.0000000000
C         0.9078293763    1.4297941068    0.0000000000
C        -0.2602955279    0.6603427264    0.0000000000
N        -1.5823227859    1.0465645945    0.0000000000
H        -1.9138448994    1.9970952131    0.0000000000
C        -2.3831006726   -0.0753467300    0.0000000000
C        -1.6031102305   -1.1965127142    0.0000000000
C        -0.2354025284   -0.7544080528    0.0000000000
C         1.0061117308   -1.4110304737    0.0000000000
H         3.1323502333   -1.1522732729    0.0000000000
H         3.0445811710    1.3187694778    0.0000000000
H         0.8711978004    2.5159935936    0.0000000000
H        -3.4599415153    0.0224367365    0.0000000000
H        -1.9589772753   -2.2174458375    0.0000000000
H         1.0526344532   -2.4968312448    0.0000000000
$end

$rem
BASIS  =  6-31+G*
GUI  =  2
JOB_TYPE  =  Optimization
METHOD  = PBE
SCF_CONVERGENCE  =  8
THRESH = 12
CIS_N_ROOTS  = 3
CIS_SINGLETS = true
CIS_TRIPLETS = false
CIS_STATE_DERIV = 1
$end
--------------------------------------------------------------
 ----------------------------------------------------------------
             Standard Nuclear Orientation (Angstroms)
    I     Atom           X                Y                Z
 ----------------------------------------------------------------
    1      C       2.1545809193    -0.6917179572    -0.0000000000
    2      C       2.1305971189     0.7179781205     0.0000000000
    3      C       0.9339220871     1.4159812583     0.0000000000
    4      C      -0.2479743579     0.6678555924     0.0000000000
    5      N      -1.5627747859     1.0780058536     0.0000000000
    6      H      -1.8769921819     2.0343963579     0.0000000000
    7      C      -2.3837811130    -0.0291882824    -0.0000000000
    8      C      -1.6242659160    -1.1643248026    -0.0000000000
    9      C      -0.2487601923    -0.7471139518    -0.0000000000
   10      C       0.9806332983    -1.4261590938    -0.0000000000
   11      H       3.1112175340    -1.2060312385    -0.0000000000
   12      H       3.0683071256     1.2661973878     0.0000000000
   13      H       0.9170087673     2.5026666484     0.0000000000
   14      H      -3.4586700515     0.0881214642    -0.0000000000
   15      H      -1.9986021312    -2.1786315579    -0.0000000000
   16      H       1.0074433715    -2.5126253373    -0.0000000000
 ----------------------------------------------------------------
 Molecular Point Group                 Cs    NOp =  2
 Largest Abelian Subgroup              Cs    NOp =  2
 Nuclear Repulsion Energy =   400.7281381655 hartrees
 There are       31 alpha and       31 beta electrons
 Requested basis set is 6-31+G(d)
 There are 59 shells and 185 basis functions

 Total QAlloc Memory Limit   2000 MB
 Mega-Array Size       188 MB
 MEM_STATIC part       192 MB
 Smallest overlap matrix eigenvalue = 1.29E-06

 Scale SEOQF with 1.000000e-01/1.000000e-01/1.000000e-01

 Standard Electronic Orientation quadrupole field applied
 Nucleus-field energy     =     0.0000000117 hartrees
 Guess from superposition of atomic densities
 Warning:  Energy on first SCF cycle will be non-variational
 SAD guess density has 62.000000 electrons

 -----------------------------------------------------------------------
  General SCF calculation program by
  Eric Jon Sundstrom, Paul Horn, Yuezhi Mao, Dmitri Zuev, Alec White,
  David Stuck, Shaama M.S., Shane Yost, Joonho Lee, David Small,
  Daniel Levine, Susi Lehtola, Hugh Burton, Evgeny Epifanovsky
 -----------------------------------------------------------------------
 Exchange:  PBE      Correlation:  PBE
 Using SG-1 standard quadrature grid
 using 4 threads for integral computing
 -------------------------------------------------------
 OpenMP Integral computing Module                
 Release: version 1.0, May 2013, Q-Chem Inc. Pittsburgh 
 -------------------------------------------------------
 -------------------------------------------------------
 OpenMP BLAS3 based DFT computing Module                
 Release: version 1.0, May 2013, Q-Chem Inc. Pittsburgh 
 -------------------------------------------------------
 A restricted SCF calculation will be
 performed using DIIS
 SCF converges when DIIS error is below 1.0e-08
 ---------------------------------------
  Cycle       Energy         DIIS error
 ---------------------------------------
    1    -365.2684550148      5.42e-02  
    2    -363.1715116520      6.25e-03  
    3    -362.9213414574      9.40e-03  
    4    -363.3394498629      2.55e-03  
    5    -363.3679702801      8.17e-04  
    6    -363.3707248398      2.94e-04  
    7    -363.3710598690      1.23e-04  
    8    -363.3711245226      3.62e-05  
    9    -363.3711302883      6.06e-06  
   10    -363.3711304130      3.45e-06  
   11    -363.3711304660      7.28e-07  
   12    -363.3711304679      4.29e-07  
   13    -363.3711304687      7.49e-08  
   14    -363.3711304688      3.39e-08  
   15    -363.3711304688      3.61e-09  Convergence criterion met
 ---------------------------------------
 SCF time:   CPU 38.39s  wall 11.00s 
 SCF   energy in the final basis set =     -363.3711304688
 Total energy in the final basis set =     -363.3711304688
 A cutoff of  1.0D-12 yielded   1657 shell pairs
 There are     17105 function pairs

 -------------------------------------------------------
 OpenMP Integral Computing Module                       
 Release: version 1.0, May 2013, Q-Chem Inc. Pittsburgh 
 -------------------------------------------------------
 Integral Job Info:
 Integral job number is                      11
 Integral operator is                         1
 short-range coefficients                     0
 long-range coefficients              100000000
 Omega coefficients                           0
 if combine SR and LR in K                    0
 Integral screening is                        0
 Integral computing path is                   2
 max size of driver memory is            800000
 size of driver memory is                593474
 size of scratch memory is              2361544
 max col of scratch BK array               1296
 max len of scratch array in speh3          155
 max len of scratch index in speh4           18
 max int batch size is                      520
 min int batch size is                       52
 fixed nKL is                                52
 max L of basis functions is                  2
 order of int derivative is                   0
 number of shells is                         59
 number of basis is                         185
 number of cartesian basis is               185
 number of contracted shell pairs          1657
 number of primitive shell pairs           5905
 maxK2 (contraction) of shell pair           36
 max number of K2 of shell pair               1
 max number of CS2 of shell pair            193
 max number of PS2 of shell pair           1158
 mem total for path MDJ                  542796
 -------------------------------------------------------

 Exchange:  PBE      Correlation:  PBE
 Using SG-1 standard quadrature grid
 Direct TDDFT/TDA calculation will be performed
 Singlet excitation energies requested
 CIS energy converged when residual is below 10e- 6
 ---------------------------------------------------
 Iter    Rts Conv    Rts Left    Ttl Dev     Max Dev
 ---------------------------------------------------
   1         0           3      0.003907    0.001937
   2         0           3      0.003019    0.001520
   3         0           3      0.002659    0.001514
   4         1           2      0.001680    0.000851
   5         1           2      0.001839    0.001494
   6         1           2      0.001158    0.001023
   7         1           2      0.000733    0.000698
   8         1           2      0.000359    0.000346
   9         1           2      0.000083    0.000080
  10         2           1      0.000012    0.000011
  11         2           1      0.000003    0.000002
  12         3           0      0.000001    0.000000    Roots Converged
 ---------------------------------------------------

 ---------------------------------------------------
         TDDFT/TDA Excitation Energies              
 ---------------------------------------------------

 Excited state   1: excitation energy (eV) =    4.5578
 Total energy for state  1:                  -363.20363298 au
    Multiplicity: Singlet
    Trans. Mom.:  0.4580 X  -0.5574 Y  -0.0000 Z
    Strength   :     0.0581126475
    D( 29) --> V(  1) amplitude =  0.2590
    D( 31) --> V(  1) amplitude =  0.8933

 Excited state   2: excitation energy (eV) =    4.5673
 Total energy for state  2:                  -363.20328705 au
    Multiplicity: Singlet
    Trans. Mom.: -0.0000 X   0.0000 Y  -0.1069 Z
    Strength   :     0.0012778404
    D( 31) --> V(  2) amplitude =  0.9996

 Excited state   3: excitation energy (eV) =    4.7436
 Total energy for state  3:                  -363.19680801 au
    Multiplicity: Singlet
    Trans. Mom.: -0.3381 X  -0.1267 Y   0.0000 Z
    Strength   :     0.0151475253
    D( 30) --> V(  1) amplitude =  0.7463
    D( 31) --> V(  3) amplitude = -0.6505

 ---------------------------------------------------
 Calculating Relaxed Density
 ---------------------------------------------------
 Iter    Rts Conv    Rts Left    Ttl Dev     Max Dev
 ---------------------------------------------------
   1         0           3      0.002399    0.001233
   2         0           3      0.000841    0.000415
   3         0           3      0.000236    0.000117
   4         0           3      0.000083    0.000040
   5         0           3      0.000011    0.000005
   6         3           0      0.000000    0.000000    Roots Converged
 ---------------------------------------------------
  SETman timing summary (seconds)
  CPU time               151.92s
  System time             34.12s
  Wall time               39.91s

 --------------------------------------------------------------
             Orbital Energies (a.u.) and Symmetries
 --------------------------------------------------------------

 Alpha MOs, Restricted
 -- Occupied --                  
-14.058  -9.934  -9.932  -9.904  -9.900  -9.898  -9.898  -9.894
  1 A'    2 A'    3 A'    4 A'    5 A'    6 A'    7 A'    8 A'                 
 -9.892  -0.905  -0.766  -0.713  -0.668  -0.651  -0.567  -0.539
  9 A'   10 A'   11 A'   12 A'   13 A'   14 A'   15 A'   16 A'                 
 -0.526  -0.489  -0.434  -0.422  -0.392  -0.383  -0.379  -0.365
 17 A'   18 A'   19 A'   20 A'   21 A'   22 A'    1 A"   23 A'                 
 -0.347  -0.312  -0.298  -0.294  -0.249  -0.201  -0.184
 24 A'   25 A'    2 A"   26 A'    3 A"    4 A"    5 A"                         
 -- Virtual --                   
 -0.042  -0.016  -0.009   0.004   0.011   0.020   0.026   0.028
  6 A"   27 A'    7 A"   28 A'   29 A'    8 A"   30 A'   31 A'                 
  0.046   0.048   0.054   0.057   0.072   0.075   0.095   0.098
 32 A'    9 A"   33 A'   34 A'   10 A"   11 A"   35 A'   36 A'                 
  0.099   0.112   0.120   0.124   0.140   0.141   0.148   0.149
 37 A'   12 A"   13 A"   38 A'   39 A'   14 A"   15 A"   40 A'                 
  0.157   0.161   0.168   0.170   0.180   0.181   0.184   0.185
 41 A'   42 A'   16 A"   43 A'   44 A'   45 A'   17 A"   46 A'                 
  0.201   0.205   0.214   0.220   0.220   0.227   0.237   0.242
 47 A'   48 A'   49 A'   18 A"   50 A'   51 A'   52 A'   53 A'                 
  0.254   0.258   0.261   0.271   0.274   0.282   0.294   0.307
 54 A'   55 A'   56 A'   57 A'   58 A'   59 A'   60 A'   61 A'                 
  0.324   0.336   0.344   0.367   0.390   0.413   0.473   0.535
 62 A'   63 A'   64 A'   65 A'   66 A'   67 A'   68 A'   69 A'                 
  0.575   0.631   0.638   0.656   0.672   0.678   0.683   0.693
 70 A'   19 A"   71 A'   20 A"   72 A'   21 A"   73 A'   22 A"                 
  0.694   0.708   0.709   0.732   0.746   0.751   0.769   0.807
 74 A'   75 A'   23 A"   24 A"   25 A"   76 A'   77 A'   26 A"                 
  0.843   0.849   0.860   0.884   0.890   0.902   0.907   0.933
 78 A'   79 A'   80 A'   81 A'   82 A'   83 A'   27 A"   84 A'                 
  0.951   0.982   1.000   1.009   1.052   1.067   1.069   1.124
 85 A'   86 A'   87 A'   88 A'   89 A'   90 A'   91 A'   92 A'                 
  1.132   1.157   1.176   1.179   1.202   1.259   1.264   1.280
 93 A'   94 A'   28 A"   95 A'   96 A'   29 A"   97 A'   30 A"                 
  1.317   1.351   1.364   1.395   1.395   1.404   1.432   1.438
 98 A'   31 A"   99 A'  100 A'   32 A"   33 A"   34 A"   35 A"                 
  1.484   1.530   1.590   1.722   1.775   1.811   1.822   1.848
101 A'  102 A'  103 A'  104 A'  105 A'  106 A'   36 A"  107 A'                 
  1.875   1.917   1.921   1.934   1.990   2.024   2.067   2.096
108 A'  109 A'  110 A'   37 A"  111 A'  112 A'  113 A'  114 A'                 
  2.103   2.120   2.172   2.185   2.191   2.214   2.240   2.305
 38 A"  115 A'   39 A"   40 A"   41 A"  116 A'  117 A'   42 A"                 
  2.329   2.371   2.470   2.478   2.561   2.582   2.587   2.618
 43 A"  118 A'  119 A'   44 A"  120 A'  121 A'   45 A"  122 A'                 
  2.657   2.728   2.767   2.775   2.872   2.902   3.022   3.155
123 A'  124 A'  125 A'  126 A'  127 A'  128 A'  129 A'  130 A'                 
  3.355   4.057   4.169   4.201   4.236   4.270   4.306   4.390
131 A'  132 A'  133 A'  134 A'  135 A'  136 A'  137 A'  138 A'                 
  4.429   4.696
139 A'  140 A'                                                                 

 Beta MOs, Restricted
 -- Occupied --                  
-14.058  -9.934  -9.932  -9.904  -9.900  -9.898  -9.898  -9.894
  1 A'    2 A'    3 A'    4 A'    5 A'    6 A'    7 A'    8 A'                 
 -9.892  -0.905  -0.766  -0.713  -0.668  -0.651  -0.567  -0.539
  9 A'   10 A'   11 A'   12 A'   13 A'   14 A'   15 A'   16 A'                 
 -0.526  -0.489  -0.434  -0.422  -0.392  -0.383  -0.379  -0.365
 17 A'   18 A'   19 A'   20 A'   21 A'   22 A'    1 A"   23 A'                 
 -0.347  -0.312  -0.298  -0.294  -0.249  -0.201  -0.184
 24 A'   25 A'    2 A"   26 A'    3 A"    4 A"    5 A"                         
 -- Virtual --                   
 -0.042  -0.016  -0.009   0.004   0.011   0.020   0.026   0.028
  6 A"   27 A'    7 A"   28 A'   29 A'    8 A"   30 A'   31 A'                 
  0.046   0.048   0.054   0.057   0.072   0.075   0.095   0.098
 32 A'    9 A"   33 A'   34 A'   10 A"   11 A"   35 A'   36 A'                 
  0.099   0.112   0.120   0.124   0.140   0.141   0.148   0.149
 37 A'   12 A"   13 A"   38 A'   39 A'   14 A"   15 A"   40 A'                 
  0.157   0.161   0.168   0.170   0.180   0.181   0.184   0.185
 41 A'   42 A'   16 A"   43 A'   44 A'   45 A'   17 A"   46 A'                 
  0.201   0.205   0.214   0.220   0.220   0.227   0.237   0.242
 47 A'   48 A'   49 A'   18 A"   50 A'   51 A'   52 A'   53 A'                 
  0.254   0.258   0.261   0.271   0.274   0.282   0.294   0.307
 54 A'   55 A'   56 A'   57 A'   58 A'   59 A'   60 A'   61 A'                 
  0.324   0.336   0.344   0.367   0.390   0.413   0.473   0.535
 62 A'   63 A'   64 A'   65 A'   66 A'   67 A'   68 A'   69 A'                 
  0.575   0.631   0.638   0.656   0.672   0.678   0.683   0.693
 70 A'   19 A"   71 A'   20 A"   72 A'   21 A"   73 A'   22 A"                 
  0.694   0.708   0.709   0.732   0.746   0.751   0.769   0.807
 74 A'   75 A'   23 A"   24 A"   25 A"   76 A'   77 A'   26 A"                 
  0.843   0.849   0.860   0.884   0.890   0.902   0.907   0.933
 78 A'   79 A'   80 A'   81 A'   82 A'   83 A'   27 A"   84 A'                 
  0.951   0.982   1.000   1.009   1.052   1.067   1.069   1.124
 85 A'   86 A'   87 A'   88 A'   89 A'   90 A'   91 A'   92 A'                 
  1.132   1.157   1.176   1.179   1.202   1.259   1.264   1.280
 93 A'   94 A'   28 A"   95 A'   96 A'   29 A"   97 A'   30 A"                 
  1.317   1.351   1.364   1.395   1.395   1.404   1.432   1.438
 98 A'   31 A"   99 A'  100 A'   32 A"   33 A"   34 A"   35 A"                 
  1.484   1.530   1.590   1.722   1.775   1.811   1.822   1.848
101 A'  102 A'  103 A'  104 A'  105 A'  106 A'   36 A"  107 A'                 
  1.875   1.917   1.921   1.934   1.990   2.024   2.067   2.096
108 A'  109 A'  110 A'   37 A"  111 A'  112 A'  113 A'  114 A'                 
  2.103   2.120   2.172   2.185   2.191   2.214   2.240   2.305
 38 A"  115 A'   39 A"   40 A"   41 A"  116 A'  117 A'   42 A"                 
  2.329   2.371   2.470   2.478   2.561   2.582   2.587   2.618
 43 A"  118 A'  119 A'   44 A"  120 A'  121 A'   45 A"  122 A'                 
  2.657   2.728   2.767   2.775   2.872   2.902   3.022   3.155
123 A'  124 A'  125 A'  126 A'  127 A'  128 A'  129 A'  130 A'                 
  3.355   4.057   4.169   4.201   4.236   4.270   4.306   4.390
131 A'  132 A'  133 A'  134 A'  135 A'  136 A'  137 A'  138 A'                 
  4.429   4.696
139 A'  140 A'                                                                 
 --------------------------------------------------------------

          Ground-State Mulliken Net Atomic Charges

     Atom                 Charge (a.u.)
  ----------------------------------------
      1 C                     0.075173
      2 C                    -0.529537
      3 C                    -0.140072
      4 C                    -1.241222
      5 N                    -0.424530
      6 H                     0.412476
      7 C                    -0.259248
      8 C                     0.107138
      9 C                     1.691701
     10 C                    -0.821069
     11 H                     0.182119
     12 H                     0.183239
     13 H                     0.183358
     14 H                     0.196421
     15 H                     0.195217
     16 H                     0.188837
  ----------------------------------------
  Sum of atomic charges =     0.000000

 -----------------------------------------------------------------
                    Cartesian Multipole Moments
 -----------------------------------------------------------------
    Charge (ESU x 10^10)
                 0.0000
    Dipole Moment (Debye)
         X      -1.5385      Y       1.5949      Z      -0.0000
       Tot       2.2160
    Quadrupole Moments (Debye-Ang)
        XX     -45.5968     XY      -3.2418     YY     -44.5845
        XZ       0.0000     YZ      -0.0000     ZZ     -58.6051
    Octopole Moments (Debye-Ang^2)
       XXX     -14.4039    XXY       8.1974    XYY      -8.2631
       YYY      10.5537    XXZ       0.0000    XYZ       0.0000
       YYZ      -0.0000    XZZ      -2.0120    YZZ       2.0246
       ZZZ      -0.0000
    Hexadecapole Moments (Debye-Ang^3)
      XXXX    -823.5721   XXXY     -21.7889   XXYY    -197.6087
      XYYY     -19.7832   YYYY    -374.1974   XXXZ       0.0000
      XXYZ      -0.0000   XYYZ       0.0000   YYYZ      -0.0000
      XXZZ    -189.2388   XYZZ      -4.0020   YYZZ     -93.9233
      XZZZ       0.0000   YZZZ      -0.0000   ZZZZ     -73.0411
 -----------------------------------------------------------------
 Calculating analytic gradient of the CIS energy
 CIS relaxed dipole moment
            1
    1  -1.9703716
    2   0.4167299
    3  -0.0000000
	Magnitude:	 2.014 au	 5.119 Debye
 CIS 1 State Energy is -363.2036329834
 Gradient of the state energy (including CIS Excitation Energy)
            1           2           3           4           5           6
    1  -0.0239735  -0.0323703   0.0222477  -0.0192938   0.0265641   0.0048963
    2  -0.0308421   0.0335921  -0.0402233   0.0330818   0.0255473  -0.0109876
    3  -0.0000000   0.0000000   0.0000000   0.0000000   0.0000000  -0.0000000
            7           8           9          10          11          12
    1   0.0401416  -0.0220362  -0.0063250   0.0115984  -0.0055774  -0.0054682
    2  -0.0518196   0.0250526  -0.0257675   0.0374689   0.0026248  -0.0027201
    3  -0.0000000   0.0000000  -0.0000000  -0.0000000   0.0000000  -0.0000000
           13          14          15          16
    1   0.0006469   0.0057723   0.0029819   0.0001951
    2  -0.0058111  -0.0010173   0.0058852   0.0059359
    3   0.0000000   0.0000000   0.0000000   0.0000000
 Gradient time:  CPU 30.98 s  wall 9.96 s
 Geometry Optimization Parameters
   NAtoms,    NIC,     NZ,  NCons,   NDum,   NFix, NCnnct, MaxDiis
       16     116       0       0       0       0       0       0


** GEOMETRY OPTIMIZATION IN DELOCALIZED INTERNAL COORDINATES **
   Searching for a Minimum

   Optimization Cycle:   1

                       Coordinates (Angstroms)
     ATOM                X               Y               Z
      1  C         2.1545809193   -0.6917179572    0.0000000000
      2  C         2.1305971189    0.7179781205    0.0000000000
      3  C         0.9339220871    1.4159812583    0.0000000000
      4  C        -0.2479743579    0.6678555924    0.0000000000
      5  N        -1.5627747859    1.0780058536    0.0000000000
      6  H        -1.8769921819    2.0343963579    0.0000000000
      7  C        -2.3837811130   -0.0291882824    0.0000000000
      8  C        -1.6242659160   -1.1643248026    0.0000000000
      9  C        -0.2487601923   -0.7471139518    0.0000000000
     10  C         0.9806332983   -1.4261590938    0.0000000000
     11  H         3.1112175340   -1.2060312385    0.0000000000
     12  H         3.0683071256    1.2661973878    0.0000000000
     13  H         0.9170087673    2.5026666484    0.0000000000
     14  H        -3.4586700515    0.0881214642    0.0000000000
     15  H        -1.9986021312   -2.1786315579    0.0000000000
     16  H         1.0074433715   -2.5126253373    0.0000000000
   Point Group: cs    Number of degrees of freedom:    29


   Energy is   -363.203632983


 Attempting to Generate Delocalized Internal Coordinates

 29 Hessian modes will be used to form the next step
  Hessian Eigenvalues:
     0.160000    0.160000    0.160000    0.160000    0.160000    0.160000
     0.160000    0.220000    0.221874    0.226615    0.240154    0.246535
     0.351831    0.351854    0.352547    0.352641    0.358411    0.358524
     0.370243    0.381736    0.421745    0.429383    0.450758    0.465320
     0.465358    0.471677    0.475377    0.478120    0.507735

 Minimum Search - Taking Simple RFO Step
 Searching for Lamda that Minimizes Along All modes
 Value Taken    Lamda =  -0.02345791
 Step Taken.  Stepsize is  0.236621

                             Maximum     Tolerance    Cnvgd?
         Gradient           0.049853      0.000300      NO
         Displacement       0.105177      0.001200      NO
         Energy change     *********      0.000001      NO


 New Cartesian Coordinates Obtained by Inverse Iteration

 Displacement from previous Coordinates is:  0.358311
 ----------------------------------------------------------------
             Standard Nuclear Orientation (Angstroms)
    I     Atom           X                Y                Z
 ----------------------------------------------------------------
    1      C       2.2032526742    -0.6923562248     0.0000000000
    2      C       2.1730144361     0.7141511485     0.0000000000
    3      C       0.9372168162     1.4422006715     0.0000000000
    4      C      -0.2456540664     0.6512952810     0.0000000000
    5      N      -1.6005625891     1.0598422048     0.0000000000
    6      H      -1.9097949386     2.0314601239     0.0000000000
    7      C      -2.4575682847    -0.0023605871     0.0000000000
    8      C      -1.6409572035    -1.1565468204     0.0000000000
    9      C      -0.2352791273    -0.7530286782     0.0000000000
   10      C       1.0062597164    -1.4661629960     0.0000000000
   11      H       3.1734255933    -1.1996267525     0.0000000000
   12      H       3.1193519236     1.2646006153     0.0000000000
   13      H       0.9054275358     2.5367646131     0.0000000000
   14      H      -3.5393414197     0.1261159023     0.0000000000
   15      H      -2.0170595451    -2.1798800460     0.0000000000
   16      H       1.0301579715    -2.5610579939     0.0000000000
 ----------------------------------------------------------------
 Molecular Point Group                 Cs    NOp =  2
 Largest Abelian Subgroup              Cs    NOp =  2
 Nuclear Repulsion Energy =   394.7970491170 hartrees
 There are       31 alpha and       31 beta electrons
 Applying Cartesian multipole field
    Component          Value
    ---------          -----
     (2,0,0)        1.00000E-11
     (0,2,0)        2.00000E-11
     (0,0,2)       -3.00000E-11
 Nucleus-field energy     =     0.0000000121 hartrees
 Requested basis set is 6-31+G(d)
 There are 59 shells and 185 basis functions
 Smallest overlap matrix eigenvalue = 1.46E-06
 Guess MOs from SCF MO coefficient file

 -----------------------------------------------------------------------
  General SCF calculation program by
  Eric Jon Sundstrom, Paul Horn, Yuezhi Mao, Dmitri Zuev, Alec White,
  David Stuck, Shaama M.S., Shane Yost, Joonho Lee, David Small,
  Daniel Levine, Susi Lehtola, Hugh Burton, Evgeny Epifanovsky
 -----------------------------------------------------------------------
 Exchange:  PBE      Correlation:  PBE
 Using SG-1 standard quadrature grid
 using 4 threads for integral computing
 -------------------------------------------------------
 OpenMP Integral computing Module                
 Release: version 1.0, May 2013, Q-Chem Inc. Pittsburgh 
 -------------------------------------------------------
 -------------------------------------------------------
 OpenMP BLAS3 based DFT computing Module                
 Release: version 1.0, May 2013, Q-Chem Inc. Pittsburgh 
 -------------------------------------------------------
 A restricted SCF calculation will be
 performed using DIIS
 SCF converges when DIIS error is below 1.0e-08
 ---------------------------------------
  Cycle       Energy         DIIS error
 ---------------------------------------
    1    -363.3597388832      1.05e-03  
    2    -363.3650356368      4.01e-04  
    3    -363.3647176127      4.82e-04  
    4    -363.3655379748      1.85e-04  
    5    -363.3657030091      4.34e-05  
    6    -363.3657114141      1.54e-05  
    7    -363.3657124511      1.62e-06  
    8    -363.3657124545      1.33e-06  
    9    -363.3657124629      1.47e-07  
   10    -363.3657124630      1.22e-07  
   11    -363.3657124630      1.27e-08  
   12    -363.3657124630      5.52e-09  Convergence criterion met
 ---------------------------------------
 SCF time:   CPU 29.62s  wall 8.00s 
 SCF   energy in the final basis set =     -363.3657124630
 Total energy in the final basis set =     -363.3657124630
 A cutoff of  1.0D-12 yielded   1656 shell pairs
 There are     17099 function pairs

 Exchange:  PBE      Correlation:  PBE
 Using SG-1 standard quadrature grid
 Direct TDDFT/TDA calculation will be performed
 Singlet excitation energies requested
 CIS energy converged when residual is below 10e- 6
 ---------------------------------------------------
 Iter    Rts Conv    Rts Left    Ttl Dev     Max Dev
 ---------------------------------------------------
   1         0           3      0.003889    0.001927
   2         0           3      0.003063    0.001537
   3         0           3      0.001793    0.001111
   4         1           2      0.001587    0.001226
   5         1           2      0.001270    0.001160
   6         1           2      0.000358    0.000329
   7         1           2      0.000127    0.000122
   8         2           1      0.000046    0.000045
   9         2           1      0.000007    0.000006
  10         2           1      0.000002    0.000001
  11         3           0      0.000001    0.000001    Roots Converged
 ---------------------------------------------------

 ---------------------------------------------------
         TDDFT/TDA Excitation Energies              
 ---------------------------------------------------

 Excited state   1: excitation energy (eV) =    4.0536
 Total energy for state  1:                  -363.21674458 au
    Multiplicity: Singlet
    Trans. Mom.: -0.5067 X   0.5618 Y  -0.0000 Z
    Strength   :     0.0568462372
    D( 29) --> V(  1) amplitude = -0.2905
    D( 31) --> V(  1) amplitude =  0.8997

 Excited state   2: excitation energy (eV) =    4.3617
 Total energy for state  2:                  -363.20542144 au
    Multiplicity: Singlet
    Trans. Mom.:  0.0000 X   0.0000 Y  -0.1033 Z
    Strength   :     0.0011392391
    D( 31) --> V(  2) amplitude =  0.9996

 Excited state   3: excitation energy (eV) =    4.5586
 Total energy for state  3:                  -363.19818817 au
    Multiplicity: Singlet
    Trans. Mom.:  0.1050 X   0.1711 Y  -0.0000 Z
    Strength   :     0.0045016451
    D( 30) --> V(  1) amplitude =  0.7210
    D( 31) --> V(  3) amplitude =  0.6677

 ---------------------------------------------------
 Calculating Relaxed Density
 ---------------------------------------------------
 Iter    Rts Conv    Rts Left    Ttl Dev     Max Dev
 ---------------------------------------------------
   1         0           3      0.002732    0.001412
   2         0           3      0.000919    0.000496
   3         0           3      0.000256    0.000111
   4         0           3      0.000072    0.000038
   5         1           2      0.000009    0.000005
   6         2           1      0.000001    0.000001
   7         3           0      0.000000    0.000000    Roots Converged
 ---------------------------------------------------
  SETman timing summary (seconds)
  CPU time               146.88s
  System time             33.94s
  Wall time               39.73s

 --------------------------------------------------------------
             Orbital Energies (a.u.) and Symmetries
 --------------------------------------------------------------

 Alpha MOs, Restricted
 -- Occupied --                  
-14.060  -9.941  -9.940  -9.916  -9.910  -9.907  -9.907  -9.903
  1 A'    2 A'    3 A'    4 A'    5 A'    6 A'    7 A'    8 A'                 
 -9.897  -0.898  -0.760  -0.701  -0.669  -0.644  -0.567  -0.534
  9 A'   10 A'   11 A'   12 A'   13 A'   14 A'   15 A'   16 A'                 
 -0.521  -0.486  -0.434  -0.423  -0.388  -0.383  -0.373  -0.358
 17 A'   18 A'   19 A'   20 A'   21 A'   22 A'    1 A"   23 A'                 
 -0.350  -0.311  -0.299  -0.296  -0.241  -0.207  -0.177
 24 A'   25 A'   26 A'    2 A"    3 A"    4 A"    5 A"                         
 -- Virtual --                   
 -0.053  -0.017  -0.012   0.003   0.011   0.013   0.024   0.027
  6 A"   27 A'    7 A"   28 A'   29 A'    8 A"   30 A'   31 A'                 
  0.045   0.048   0.052   0.054   0.072   0.075   0.093   0.095
 32 A'    9 A"   33 A'   34 A'   10 A"   11 A"   35 A'   36 A'                 
  0.096   0.110   0.118   0.123   0.134   0.137   0.145   0.147
 37 A'   12 A"   13 A"   38 A'   14 A"   39 A'   15 A"   40 A'                 
  0.152   0.154   0.164   0.165   0.175   0.180   0.184   0.184
 41 A'   42 A'   43 A'   16 A"   44 A'   45 A'   46 A'   17 A"                 
  0.196   0.198   0.210   0.216   0.219   0.220   0.232   0.239
 47 A'   48 A'   49 A'   50 A'   18 A"   51 A'   52 A'   53 A'                 
  0.252   0.253   0.258   0.262   0.269   0.275   0.290   0.303
 54 A'   55 A'   56 A'   57 A'   58 A'   59 A'   60 A'   61 A'                 
  0.317   0.319   0.327   0.359   0.371   0.405   0.456   0.519
 62 A'   63 A'   64 A'   65 A'   66 A'   67 A'   68 A'   69 A'                 
  0.548   0.630   0.633   0.655   0.669   0.674   0.680   0.682
 70 A'   19 A"   71 A'   20 A"   72 A'   73 A'   21 A"   74 A'                 
  0.691   0.701   0.708   0.728   0.736   0.743   0.756   0.802
 22 A"   75 A'   23 A"   24 A"   76 A'   25 A"   77 A'   26 A"                 
  0.835   0.842   0.844   0.882   0.893   0.899   0.905   0.928
 78 A'   79 A'   80 A'   81 A'   82 A'   83 A'   27 A"   84 A'                 
  0.942   0.978   0.995   1.004   1.048   1.063   1.068   1.117
 85 A'   86 A'   87 A'   88 A'   89 A'   90 A'   91 A'   92 A'                 
  1.122   1.156   1.174   1.178   1.196   1.255   1.258   1.285
 93 A'   94 A'   95 A'   28 A"   96 A'   97 A'   29 A"   30 A"                 
  1.303   1.338   1.342   1.376   1.403   1.409   1.419   1.430
 98 A'   31 A"   99 A'  100 A'   32 A"   33 A"   34 A"   35 A"                 
  1.480   1.512   1.555   1.719   1.744   1.778   1.817   1.823
101 A'  102 A'  103 A'  104 A'  105 A'  106 A'   36 A"  107 A'                 
  1.846   1.896   1.906   1.915   1.944   1.975   2.039   2.058
108 A'  109 A'  110 A'   37 A"  111 A'  112 A'  113 A'  114 A'                 
  2.086   2.115   2.141   2.167   2.175   2.180   2.206   2.271
 38 A"  115 A'   39 A"   40 A"  116 A'   41 A"  117 A'   42 A"                 
  2.291   2.359   2.426   2.444   2.538   2.542   2.567   2.579
 43 A"  118 A'  119 A'   44 A"  120 A'   45 A"  121 A'  122 A'                 
  2.637   2.690   2.723   2.752   2.850   2.874   2.950   3.123
123 A'  124 A'  125 A'  126 A'  127 A'  128 A'  129 A'  130 A'                 
  3.280   4.041   4.140   4.188   4.226   4.252   4.300   4.375
131 A'  132 A'  133 A'  134 A'  135 A'  136 A'  137 A'  138 A'                 
  4.419   4.669
139 A'  140 A'                                                                 

 Beta MOs, Restricted
 -- Occupied --                  
-14.060  -9.941  -9.940  -9.916  -9.910  -9.907  -9.907  -9.903
  1 A'    2 A'    3 A'    4 A'    5 A'    6 A'    7 A'    8 A'                 
 -9.897  -0.898  -0.760  -0.701  -0.669  -0.644  -0.567  -0.534
  9 A'   10 A'   11 A'   12 A'   13 A'   14 A'   15 A'   16 A'                 
 -0.521  -0.486  -0.434  -0.423  -0.388  -0.383  -0.373  -0.358
 17 A'   18 A'   19 A'   20 A'   21 A'   22 A'    1 A"   23 A'                 
 -0.350  -0.311  -0.299  -0.296  -0.241  -0.207  -0.177
 24 A'   25 A'   26 A'    2 A"    3 A"    4 A"    5 A"                         
 -- Virtual --                   
 -0.053  -0.017  -0.012   0.003   0.011   0.013   0.024   0.027
  6 A"   27 A'    7 A"   28 A'   29 A'    8 A"   30 A'   31 A'                 
  0.045   0.048   0.052   0.054   0.072   0.075   0.093   0.095
 32 A'    9 A"   33 A'   34 A'   10 A"   11 A"   35 A'   36 A'                 
  0.096   0.110   0.118   0.123   0.134   0.137   0.145   0.147
 37 A'   12 A"   13 A"   38 A'   14 A"   39 A'   15 A"   40 A'                 
  0.152   0.154   0.164   0.165   0.175   0.180   0.184   0.184
 41 A'   42 A'   43 A'   16 A"   44 A'   45 A'   46 A'   17 A"                 
  0.196   0.198   0.210   0.216   0.219   0.220   0.232   0.239
 47 A'   48 A'   49 A'   50 A'   18 A"   51 A'   52 A'   53 A'                 
  0.252   0.253   0.258   0.262   0.269   0.275   0.290   0.303
 54 A'   55 A'   56 A'   57 A'   58 A'   59 A'   60 A'   61 A'                 
  0.317   0.319   0.327   0.359   0.371   0.405   0.456   0.519
 62 A'   63 A'   64 A'   65 A'   66 A'   67 A'   68 A'   69 A'                 
  0.548   0.630   0.633   0.655   0.669   0.674   0.680   0.682
 70 A'   19 A"   71 A'   20 A"   72 A'   73 A'   21 A"   74 A'                 
  0.691   0.701   0.708   0.728   0.736   0.743   0.756   0.802
 22 A"   75 A'   23 A"   24 A"   76 A'   25 A"   77 A'   26 A"                 
  0.835   0.842   0.844   0.882   0.893   0.899   0.905   0.928
 78 A'   79 A'   80 A'   81 A'   82 A'   83 A'   27 A"   84 A'                 
  0.942   0.978   0.995   1.004   1.048   1.063   1.068   1.117
 85 A'   86 A'   87 A'   88 A'   89 A'   90 A'   91 A'   92 A'                 
  1.122   1.156   1.174   1.178   1.196   1.255   1.258   1.285
 93 A'   94 A'   95 A'   28 A"   96 A'   97 A'   29 A"   30 A"                 
  1.303   1.338   1.342   1.376   1.403   1.409   1.419   1.430
 98 A'   31 A"   99 A'  100 A'   32 A"   33 A"   34 A"   35 A"                 
  1.480   1.512   1.555   1.719   1.744   1.778   1.817   1.823
101 A'  102 A'  103 A'  104 A'  105 A'  106 A'   36 A"  107 A'                 
  1.846   1.896   1.906   1.915   1.944   1.975   2.039   2.058
108 A'  109 A'  110 A'   37 A"  111 A'  112 A'  113 A'  114 A'                 
  2.086   2.115   2.141   2.167   2.175   2.180   2.206   2.271
 38 A"  115 A'   39 A"   40 A"  116 A'   41 A"  117 A'   42 A"                 
  2.291   2.359   2.426   2.444   2.538   2.542   2.567   2.579
 43 A"  118 A'  119 A'   44 A"  120 A'   45 A"  121 A'  122 A'                 
  2.637   2.690   2.723   2.752   2.850   2.874   2.950   3.123
123 A'  124 A'  125 A'  126 A'  127 A'  128 A'  129 A'  130 A'                 
  3.280   4.041   4.140   4.188   4.226   4.252   4.300   4.375
131 A'  132 A'  133 A'  134 A'  135 A'  136 A'  137 A'  138 A'                 
  4.419   4.669
139 A'  140 A'                                                                 
 --------------------------------------------------------------

          Ground-State Mulliken Net Atomic Charges

     Atom                 Charge (a.u.)
  ----------------------------------------
      1 C                     0.027865
      2 C                    -0.441704
      3 C                    -0.311066
      4 C                    -1.286313
      5 N                    -0.402898
      6 H                     0.410558
      7 C                    -0.190778
      8 C                    -0.104984
      9 C                     1.802808
     10 C                    -0.655698
     11 H                     0.185661
     12 H                     0.186512
     13 H                     0.188474
     14 H                     0.204787
     15 H                     0.191834
     16 H                     0.194943
  ----------------------------------------
  Sum of atomic charges =    -0.000000

 -----------------------------------------------------------------
                    Cartesian Multipole Moments
 -----------------------------------------------------------------
    Charge (ESU x 10^10)
                 0.0000
    Dipole Moment (Debye)
         X      -1.4303      Y       1.6866      Z      -0.0000
       Tot       2.2114
    Quadrupole Moments (Debye-Ang)
        XX     -44.8692     XY      -3.7122     YY     -44.8103
        XZ       0.0000     YZ      -0.0000     ZZ     -59.2798
    Octopole Moments (Debye-Ang^2)
       XXX     -16.2368    XXY       9.3859    XYY      -7.1664
       YYY      11.1361    XXZ       0.0000    XYZ       0.0000
       YYZ       0.0000    XZZ      -1.8993    YZZ       2.3337
       ZZZ       0.0000
    Hexadecapole Moments (Debye-Ang^3)
      XXXX    -841.5221   XXXY     -23.6394   XXYY    -206.1233
      XYYY     -19.0711   YYYY    -378.9681   XXXZ       0.0000
      XXYZ      -0.0000   XYYZ      -0.0000   YYYZ       0.0000
      XXZZ    -198.1569   XYZZ      -3.6761   YYZZ     -96.4019
      XZZZ       0.0000   YZZZ      -0.0000   ZZZZ     -75.0864
 -----------------------------------------------------------------
 Calculating analytic gradient of the CIS energy
 CIS relaxed dipole moment
            1
    1  -2.1973218
    2   0.4307164
    3  -0.0000000
	Magnitude:	 2.239 au	 5.691 Debye
 CIS 1 State Energy is -363.2167445833
 Gradient of the state energy (including CIS Excitation Energy)
            1           2           3           4           5           6
    1  -0.0013560   0.0021271  -0.0011133  -0.0105890   0.0188435  -0.0007225
    2  -0.0117622   0.0111085  -0.0152858   0.0216365   0.0043766  -0.0014604
    3   0.0000000  -0.0000000   0.0000000   0.0000000   0.0000000  -0.0000000
            7           8           9          10          11          12
    1  -0.0045507  -0.0040940  -0.0029010   0.0049544   0.0000600   0.0002649
    2  -0.0181565   0.0125524  -0.0167855   0.0125919   0.0006980  -0.0011204
    3  -0.0000000   0.0000000   0.0000000  -0.0000000   0.0000000  -0.0000000
           13          14          15          16
    1  -0.0007443  -0.0009666   0.0007583   0.0000291
    2   0.0012174   0.0008563   0.0008036  -0.0012703
    3  -0.0000000  -0.0000000   0.0000000   0.0000000
 Gradient time:  CPU 31.77 s  wall 9.93 s
 Geometry Optimization Parameters
   NAtoms,    NIC,     NZ,  NCons,   NDum,   NFix, NCnnct, MaxDiis
       16     116       0       0       0       0       0       0

 Cartesian Hessian Update
 Hessian Updated using BFGS Update


** GEOMETRY OPTIMIZATION IN DELOCALIZED INTERNAL COORDINATES **
   Searching for a Minimum

   Optimization Cycle:   2

                       Coordinates (Angstroms)
     ATOM                X               Y               Z
      1  C         2.2032526742   -0.6923562248    0.0000000000
      2  C         2.1730144361    0.7141511485    0.0000000000
      3  C         0.9372168162    1.4422006715    0.0000000000
      4  C        -0.2456540664    0.6512952810    0.0000000000
      5  N        -1.6005625891    1.0598422048    0.0000000000
      6  H        -1.9097949386    2.0314601239    0.0000000000
      7  C        -2.4575682847   -0.0023605871    0.0000000000
      8  C        -1.6409572035   -1.1565468204    0.0000000000
      9  C        -0.2352791273   -0.7530286782    0.0000000000
     10  C         1.0062597164   -1.4661629960    0.0000000000
     11  H         3.1734255933   -1.1996267525    0.0000000000
     12  H         3.1193519236    1.2646006153    0.0000000000
     13  H         0.9054275358    2.5367646131    0.0000000000
     14  H        -3.5393414197    0.1261159023    0.0000000000
     15  H        -2.0170595451   -2.1798800460    0.0000000000
     16  H         1.0301579715   -2.5610579939    0.0000000000
   Point Group: cs    Number of degrees of freedom:    29


   Energy is   -363.216744583

 Hessian Updated using BFGS Update

 24 Hessian modes will be used to form the next step
  Hessian Eigenvalues:
     0.159734    0.160225    0.200621    0.220037    0.238643    0.243928
     0.246657    0.351524    0.351842    0.352594    0.353914    0.357612
     0.359531    0.366973    0.376754    0.411027    0.421991    0.441160
     0.453469    0.465334    0.466503    0.472467    0.491437    0.532281

 Minimum Search - Taking Simple RFO Step
 Searching for Lamda that Minimizes Along All modes
 Value Taken    Lamda =  -0.00262478
 Step Taken.  Stepsize is  0.103693

                             Maximum     Tolerance    Cnvgd?
         Gradient           0.014444      0.000300      NO
         Displacement       0.062993      0.001200      NO
         Energy change     -0.013112      0.000001      NO


 New Cartesian Coordinates Obtained by Inverse Iteration

 Displacement from previous Coordinates is:  0.091840
 ----------------------------------------------------------------
             Standard Nuclear Orientation (Angstroms)
    I     Atom           X                Y                Z
 ----------------------------------------------------------------
    1      C       2.1963253828    -0.6888026667     0.0000000000
    2      C       2.1641725459     0.7110043239     0.0000000000
    3      C       0.9359474058     1.4617061702     0.0000000000
    4      C      -0.2366309350     0.6414437419     0.0000000000
    5      N      -1.6059144488     1.0574087932     0.0000000000
    6      H      -1.9077940772     2.0340787017     0.0000000000
    7      C      -2.4533105967     0.0074858096     0.0000000000
    8      C      -1.6337231607    -1.1631875696     0.0000000000
    9      C      -0.2266393806    -0.7510521324     0.0000000000
   10      C       1.0036402173    -1.4855387674     0.0000000000
   11      H       3.1694172429    -1.1930061010     0.0000000000
   12      H       3.1112950593     1.2626484048     0.0000000000
   13      H       0.9069540854     2.5548963221     0.0000000000
   14      H      -3.5343110964     0.1329028330     0.0000000000
   15      H      -2.0139618225    -2.1876210286     0.0000000000
   16      H       1.0264230712    -2.5789563732     0.0000000000
 ----------------------------------------------------------------
 Molecular Point Group                 Cs    NOp =  2
 Largest Abelian Subgroup              Cs    NOp =  2
 Nuclear Repulsion Energy =   394.4824488259 hartrees
 There are       31 alpha and       31 beta electrons
 Applying Cartesian multipole field
    Component          Value
    ---------          -----
     (2,0,0)        1.00000E-11
     (0,2,0)        2.00000E-11
     (0,0,2)       -3.00000E-11
 Nucleus-field energy     =     0.0000000121 hartrees
 Requested basis set is 6-31+G(d)
 There are 59 shells and 185 basis functions
 Smallest overlap matrix eigenvalue = 1.50E-06
 Guess MOs from SCF MO coefficient file

 -----------------------------------------------------------------------
  General SCF calculation program by
  Eric Jon Sundstrom, Paul Horn, Yuezhi Mao, Dmitri Zuev, Alec White,
  David Stuck, Shaama M.S., Shane Yost, Joonho Lee, David Small,
  Daniel Levine, Susi Lehtola, Hugh Burton, Evgeny Epifanovsky
 -----------------------------------------------------------------------
 Exchange:  PBE      Correlation:  PBE
 Using SG-1 standard quadrature grid
 using 4 threads for integral computing
 -------------------------------------------------------
 OpenMP Integral computing Module                
 Release: version 1.0, May 2013, Q-Chem Inc. Pittsburgh 
 -------------------------------------------------------
 -------------------------------------------------------
 OpenMP BLAS3 based DFT computing Module                
 Release: version 1.0, May 2013, Q-Chem Inc. Pittsburgh 
 -------------------------------------------------------
 A restricted SCF calculation will be
 performed using DIIS
 SCF converges when DIIS error is below 1.0e-08
 ---------------------------------------
  Cycle       Energy         DIIS error
 ---------------------------------------
    1    -363.3599647042      4.81e-04  
    2    -363.3610835659      1.11e-04  
    3    -363.3609598470      1.96e-04  
    4    -363.3611217496      5.28e-05  
    5    -363.3611342230      1.77e-05  
    6    -363.3611357486      3.54e-06  
    7    -363.3611358043      9.67e-07  
    8    -363.3611358077      4.71e-07  
    9    -363.3611358088      1.31e-07  
   10    -363.3611358089      3.60e-08  
   11    -363.3611358089      1.32e-08  
   12    -363.3611358089      2.06e-09  Convergence criterion met
 ---------------------------------------
 SCF time:   CPU 29.67s  wall 8.00s 
 SCF   energy in the final basis set =     -363.3611358089
 Total energy in the final basis set =     -363.3611358089
 A cutoff of  1.0D-12 yielded   1656 shell pairs
 There are     17099 function pairs

 Exchange:  PBE      Correlation:  PBE
 Using SG-1 standard quadrature grid
 Direct TDDFT/TDA calculation will be performed
 Singlet excitation energies requested
 CIS energy converged when residual is below 10e- 6
 ---------------------------------------------------
 Iter    Rts Conv    Rts Left    Ttl Dev     Max Dev
 ---------------------------------------------------
   1         0           3      0.003866    0.001880
   2         0           3      0.002905    0.001578
   3         0           3      0.001826    0.001086
   4         1           2      0.001551    0.001174
   5         1           2      0.001152    0.001065
   6         1           2      0.000302    0.000274
   7         1           2      0.000076    0.000070
   8         2           1      0.000013    0.000012
   9         2           1      0.000003    0.000002
  10         3           0      0.000002    0.000001    Roots Converged
 ---------------------------------------------------

 ---------------------------------------------------
         TDDFT/TDA Excitation Energies              
 ---------------------------------------------------

 Excited state   1: excitation energy (eV) =    3.8841
 Total energy for state  1:                  -363.21839888 au
    Multiplicity: Singlet
    Trans. Mom.:  0.5057 X  -0.5368 Y   0.0000 Z
    Strength   :     0.0517570645
    D( 29) --> V(  1) amplitude = -0.2907
    D( 31) --> V(  1) amplitude =  0.9048

 Excited state   2: excitation energy (eV) =    4.2781
 Total energy for state  2:                  -363.20391979 au
    Multiplicity: Singlet
    Trans. Mom.:  0.0000 X   0.0000 Y  -0.1027 Z
    Strength   :     0.0011064116
    D( 31) --> V(  2) amplitude =  0.9996

 Excited state   3: excitation energy (eV) =    4.5447
 Total energy for state  3:                  -363.19412024 au
    Multiplicity: Singlet
    Trans. Mom.: -0.0224 X  -0.1848 Y   0.0000 Z
    Strength   :     0.0038604976
    D( 30) --> V(  1) amplitude =  0.7102
    D( 31) --> V(  3) amplitude = -0.6645

 ---------------------------------------------------
 Calculating Relaxed Density
 ---------------------------------------------------
 Iter    Rts Conv    Rts Left    Ttl Dev     Max Dev
 ---------------------------------------------------
   1         0           3      0.002780    0.001412
   2         0           3      0.000944    0.000510
   3         0           3      0.000250    0.000111
   4         0           3      0.000072    0.000034
   5         0           3      0.000011    0.000006
   6         1           2      0.000002    0.000001
   7         3           0      0.000000    0.000000    Roots Converged
 ---------------------------------------------------
  SETman timing summary (seconds)
  CPU time               148.17s
  System time             32.56s
  Wall time               39.25s

 --------------------------------------------------------------
             Orbital Energies (a.u.) and Symmetries
 --------------------------------------------------------------

 Alpha MOs, Restricted
 -- Occupied --                  
-14.060  -9.941  -9.941  -9.918  -9.911  -9.908  -9.907  -9.904
  1 A'    2 A'    3 A'    4 A'    5 A'    6 A'    7 A'    8 A'                 
 -9.897  -0.898  -0.761  -0.699  -0.669  -0.642  -0.567  -0.534
  9 A'   10 A'   11 A'   12 A'   13 A'   14 A'   15 A'   16 A'                 
 -0.519  -0.488  -0.432  -0.423  -0.389  -0.386  -0.373  -0.356
 17 A'   18 A'   19 A'   20 A'   21 A'   22 A'    1 A"   23 A'                 
 -0.348  -0.311  -0.301  -0.297  -0.240  -0.209  -0.175
 24 A'   25 A'   26 A'    2 A"    3 A"    4 A"    5 A"                         
 -- Virtual --                   
 -0.055  -0.018  -0.012   0.002   0.011   0.012   0.024   0.027
  6 A"   27 A'    7 A"   28 A'   29 A'    8 A"   30 A'   31 A'                 
  0.045   0.048   0.052   0.054   0.071   0.075   0.093   0.094
 32 A'    9 A"   33 A'   34 A'   10 A"   11 A"   35 A'   36 A'                 
  0.096   0.110   0.118   0.122   0.133   0.137   0.144   0.146
 37 A'   12 A"   13 A"   38 A'   14 A"   39 A'   15 A"   40 A'                 
  0.154   0.155   0.164   0.165   0.175   0.179   0.184   0.185
 41 A'   42 A'   43 A'   16 A"   44 A'   45 A'   46 A'   17 A"                 
  0.195   0.198   0.210   0.216   0.218   0.219   0.231   0.237
 47 A'   48 A'   49 A'   50 A'   18 A"   51 A'   52 A'   53 A'                 
  0.251   0.253   0.258   0.262   0.268   0.276   0.291   0.304
 54 A'   55 A'   56 A'   57 A'   58 A'   59 A'   60 A'   61 A'                 
  0.313   0.317   0.324   0.357   0.370   0.406   0.453   0.521
 62 A'   63 A'   64 A'   65 A'   66 A'   67 A'   68 A'   69 A'                 
  0.543   0.630   0.630   0.655   0.669   0.677   0.680   0.682
 70 A'   19 A"   71 A'   20 A"   72 A'   73 A'   21 A"   74 A'                 
  0.690   0.701   0.708   0.726   0.734   0.743   0.757   0.802
 22 A"   75 A'   23 A"   24 A"   76 A'   25 A"   77 A'   26 A"                 
  0.834   0.840   0.844   0.881   0.894   0.899   0.904   0.926
 78 A'   79 A'   80 A'   81 A'   82 A'   83 A'   27 A"   84 A'                 
  0.943   0.978   0.993   1.001   1.045   1.065   1.073   1.117
 85 A'   86 A'   87 A'   88 A'   89 A'   90 A'   91 A'   92 A'                 
  1.124   1.158   1.174   1.179   1.194   1.257   1.258   1.285
 93 A'   94 A'   95 A'   28 A"   96 A'   97 A'   29 A"   30 A"                 
  1.302   1.330   1.338   1.370   1.400   1.411   1.419   1.430
 98 A'   99 A'   31 A"  100 A'   32 A"   33 A"   34 A"   35 A"                 
  1.480   1.510   1.552   1.717   1.736   1.778   1.816   1.818
101 A'  102 A'  103 A'  104 A'  105 A'  106 A'   36 A"  107 A'                 
  1.836   1.898   1.903   1.919   1.943   1.972   2.035   2.068
108 A'  109 A'  110 A'   37 A"  111 A'  112 A'  113 A'  114 A'                 
  2.087   2.109   2.132   2.156   2.180   2.182   2.207   2.267
 38 A"  115 A'   39 A"   40 A"  116 A'   41 A"  117 A'   42 A"                 
  2.298   2.362   2.418   2.438   2.525   2.538   2.564   2.577
 43 A"  118 A'  119 A'   44 A"  120 A'   45 A"  121 A'  122 A'                 
  2.643   2.691   2.725   2.744   2.838   2.882   2.944   3.111
123 A'  124 A'  125 A'  126 A'  127 A'  128 A'  129 A'  130 A'                 
  3.273   4.039   4.139   4.189   4.223   4.250   4.298   4.374
131 A'  132 A'  133 A'  134 A'  135 A'  136 A'  137 A'  138 A'                 
  4.420   4.664
139 A'  140 A'                                                                 

 Beta MOs, Restricted
 -- Occupied --                  
-14.060  -9.941  -9.941  -9.918  -9.911  -9.908  -9.907  -9.904
  1 A'    2 A'    3 A'    4 A'    5 A'    6 A'    7 A'    8 A'                 
 -9.897  -0.898  -0.761  -0.699  -0.669  -0.642  -0.567  -0.534
  9 A'   10 A'   11 A'   12 A'   13 A'   14 A'   15 A'   16 A'                 
 -0.519  -0.488  -0.432  -0.423  -0.389  -0.386  -0.373  -0.356
 17 A'   18 A'   19 A'   20 A'   21 A'   22 A'    1 A"   23 A'                 
 -0.348  -0.311  -0.301  -0.297  -0.240  -0.209  -0.175
 24 A'   25 A'   26 A'    2 A"    3 A"    4 A"    5 A"                         
 -- Virtual --                   
 -0.055  -0.018  -0.012   0.002   0.011   0.012   0.024   0.027
  6 A"   27 A'    7 A"   28 A'   29 A'    8 A"   30 A'   31 A'                 
  0.045   0.048   0.052   0.054   0.071   0.075   0.093   0.094
 32 A'    9 A"   33 A'   34 A'   10 A"   11 A"   35 A'   36 A'                 
  0.096   0.110   0.118   0.122   0.133   0.137   0.144   0.146
 37 A'   12 A"   13 A"   38 A'   14 A"   39 A'   15 A"   40 A'                 
  0.154   0.155   0.164   0.165   0.175   0.179   0.184   0.185
 41 A'   42 A'   43 A'   16 A"   44 A'   45 A'   46 A'   17 A"                 
  0.195   0.198   0.210   0.216   0.218   0.219   0.231   0.237
 47 A'   48 A'   49 A'   50 A'   18 A"   51 A'   52 A'   53 A'                 
  0.251   0.253   0.258   0.262   0.268   0.276   0.291   0.304
 54 A'   55 A'   56 A'   57 A'   58 A'   59 A'   60 A'   61 A'                 
  0.313   0.317   0.324   0.357   0.370   0.406   0.453   0.521
 62 A'   63 A'   64 A'   65 A'   66 A'   67 A'   68 A'   69 A'                 
  0.543   0.630   0.630   0.655   0.669   0.677   0.680   0.682
 70 A'   19 A"   71 A'   20 A"   72 A'   73 A'   21 A"   74 A'                 
  0.690   0.701   0.708   0.726   0.734   0.743   0.757   0.802
 22 A"   75 A'   23 A"   24 A"   76 A'   25 A"   77 A'   26 A"                 
  0.834   0.840   0.844   0.881   0.894   0.899   0.904   0.926
 78 A'   79 A'   80 A'   81 A'   82 A'   83 A'   27 A"   84 A'                 
  0.943   0.978   0.993   1.001   1.045   1.065   1.073   1.117
 85 A'   86 A'   87 A'   88 A'   89 A'   90 A'   91 A'   92 A'                 
  1.124   1.158   1.174   1.179   1.194   1.257   1.258   1.285
 93 A'   94 A'   95 A'   28 A"   96 A'   97 A'   29 A"   30 A"                 
  1.302   1.330   1.338   1.370   1.400   1.411   1.419   1.430
 98 A'   99 A'   31 A"  100 A'   32 A"   33 A"   34 A"   35 A"                 
  1.480   1.510   1.552   1.717   1.736   1.778   1.816   1.818
101 A'  102 A'  103 A'  104 A'  105 A'  106 A'   36 A"  107 A'                 
  1.836   1.898   1.903   1.919   1.943   1.972   2.035   2.068
108 A'  109 A'  110 A'   37 A"  111 A'  112 A'  113 A'  114 A'                 
  2.087   2.109   2.132   2.156   2.180   2.182   2.207   2.267
 38 A"  115 A'   39 A"   40 A"  116 A'   41 A"  117 A'   42 A"                 
  2.298   2.362   2.418   2.438   2.525   2.538   2.564   2.577
 43 A"  118 A'  119 A'   44 A"  120 A'   45 A"  121 A'  122 A'                 
  2.643   2.691   2.725   2.744   2.838   2.882   2.944   3.111
123 A'  124 A'  125 A'  126 A'  127 A'  128 A'  129 A'  130 A'                 
  3.273   4.039   4.139   4.189   4.223   4.250   4.298   4.374
131 A'  132 A'  133 A'  134 A'  135 A'  136 A'  137 A'  138 A'                 
  4.420   4.664
139 A'  140 A'                                                                 
 --------------------------------------------------------------

          Ground-State Mulliken Net Atomic Charges

     Atom                 Charge (a.u.)
  ----------------------------------------
      1 C                    -0.009172
      2 C                    -0.386976
      3 C                    -0.400150
      4 C                    -1.329921
      5 N                    -0.389631
      6 H                     0.410549
      7 C                    -0.183027
      8 C                    -0.151149
      9 C                     1.878050
     10 C                    -0.593654
     11 H                     0.185180
     12 H                     0.185492
     13 H                     0.191817
     14 H                     0.203669
     15 H                     0.191650
     16 H                     0.197274
  ----------------------------------------
  Sum of atomic charges =     0.000000

 -----------------------------------------------------------------
                    Cartesian Multipole Moments
 -----------------------------------------------------------------
    Charge (ESU x 10^10)
                 0.0000
    Dipole Moment (Debye)
         X      -1.3723      Y       1.7399      Z      -0.0000
       Tot       2.2159
    Quadrupole Moments (Debye-Ang)
        XX     -45.1563     XY      -3.8167     YY     -44.5353
        XZ       0.0000     YZ      -0.0000     ZZ     -59.3599
    Octopole Moments (Debye-Ang^2)
       XXX     -16.3958    XXY       9.6476    XYY      -6.8503
       YYY      11.4727    XXZ      -0.0000    XYZ       0.0000
       YYZ      -0.0000    XZZ      -1.8048    YZZ       2.4620
       ZZZ       0.0000
    Hexadecapole Moments (Debye-Ang^3)
      XXXX    -842.0150   XXXY     -24.1473   XXYY    -206.2933
      XYYY     -18.9286   YYYY    -379.2519   XXXZ       0.0000
      XXYZ      -0.0000   XYYZ      -0.0000   YYYZ      -0.0000
      XXZZ    -197.7160   XYZZ      -3.8107   YYZZ     -97.3177
      XZZZ       0.0000   YZZZ      -0.0000   ZZZZ     -75.4094
 -----------------------------------------------------------------
 Calculating analytic gradient of the CIS energy
 CIS relaxed dipole moment
            1
    1  -2.2746228
    2   0.4274559
    3  -0.0000000
	Magnitude:	 2.314 au	 5.883 Debye
 CIS 1 State Energy is -363.2183988824
 Gradient of the state energy (including CIS Excitation Energy)
            1           2           3           4           5           6
    1  -0.0000860   0.0043493  -0.0036351  -0.0046340   0.0083365  -0.0011954
    2  -0.0009338   0.0002765  -0.0032465   0.0069404  -0.0008521   0.0009996
    3   0.0000000  -0.0000000   0.0000000   0.0000000  -0.0000000   0.0000000
            7           8           9          10          11          12
    1  -0.0048788   0.0018881  -0.0018074   0.0017172   0.0001588   0.0000152
    2  -0.0036296   0.0039378  -0.0060303   0.0024578  -0.0001098  -0.0000351
    3  -0.0000000   0.0000000  -0.0000000  -0.0000000  -0.0000000  -0.0000000
           13          14          15          16
    1  -0.0002577   0.0001590  -0.0000642  -0.0000656
    2   0.0013170   0.0010411  -0.0009943  -0.0011389
    3  -0.0000000  -0.0000000   0.0000000   0.0000000
 Gradient time:  CPU 29.98 s  wall 9.81 s
 Geometry Optimization Parameters
   NAtoms,    NIC,     NZ,  NCons,   NDum,   NFix, NCnnct, MaxDiis
       16     116       0       0       0       0       0       0

 Cartesian Hessian Update
 Hessian Updated using BFGS Update


** GEOMETRY OPTIMIZATION IN DELOCALIZED INTERNAL COORDINATES **
   Searching for a Minimum

   Optimization Cycle:   3

                       Coordinates (Angstroms)
     ATOM                X               Y               Z
      1  C         2.1963253828   -0.6888026667    0.0000000000
      2  C         2.1641725459    0.7110043239    0.0000000000
      3  C         0.9359474058    1.4617061702    0.0000000000
      4  C        -0.2366309350    0.6414437419    0.0000000000
      5  N        -1.6059144488    1.0574087932    0.0000000000
      6  H        -1.9077940772    2.0340787017    0.0000000000
      7  C        -2.4533105967    0.0074858096    0.0000000000
      8  C        -1.6337231607   -1.1631875696    0.0000000000
      9  C        -0.2266393806   -0.7510521324    0.0000000000
     10  C         1.0036402173   -1.4855387674    0.0000000000
     11  H         3.1694172429   -1.1930061010    0.0000000000
     12  H         3.1112950593    1.2626484048    0.0000000000
     13  H         0.9069540854    2.5548963221    0.0000000000
     14  H        -3.5343110964    0.1329028330    0.0000000000
     15  H        -2.0139618225   -2.1876210286    0.0000000000
     16  H         1.0264230712   -2.5789563732    0.0000000000
   Point Group: cs    Number of degrees of freedom:    29


   Energy is   -363.218398882

 Hessian Updated using BFGS Update

 25 Hessian modes will be used to form the next step
  Hessian Eigenvalues:
     0.143471    0.160037    0.161036    0.178200    0.220856    0.233601
     0.240257    0.247486    0.346378    0.351854    0.352598    0.353307
     0.358834    0.359892    0.363647    0.376058    0.402541    0.422289
     0.437670    0.453635    0.465875    0.471101    0.478173    0.491417
     0.533818

 Minimum Search - Taking Simple RFO Step
 Searching for Lamda that Minimizes Along All modes
 Value Taken    Lamda =  -0.00039829
 Step Taken.  Stepsize is  0.046480

                             Maximum     Tolerance    Cnvgd?
         Gradient           0.004396      0.000300      NO
         Displacement       0.026237      0.001200      NO
         Energy change     -0.001654      0.000001      NO


 New Cartesian Coordinates Obtained by Inverse Iteration

 Displacement from previous Coordinates is:  0.043115
 ----------------------------------------------------------------
             Standard Nuclear Orientation (Angstroms)
    I     Atom           X                Y                Z
 ----------------------------------------------------------------
    1      C       2.1915716554    -0.6883007593     0.0000000000
    2      C       2.1582190589     0.7100892570     0.0000000000
    3      C       0.9386943323     1.4697254559     0.0000000000
    4      C      -0.2315818193     0.6399970732     0.0000000000
    5      N      -1.6094043820     1.0577381927     0.0000000000
    6      H      -1.9063396144     2.0345494850     0.0000000000
    7      C      -2.4487800568     0.0092996293     0.0000000000
    8      C      -1.6308456469    -1.1654819884     0.0000000000
    9      C      -0.2232216899    -0.7463289842     0.0000000000
   10      C       1.0000423760    -1.4898721973     0.0000000000
   11      H       3.1657622350    -1.1904350727     0.0000000000
   12      H       3.1073763804     1.2590712942     0.0000000000
   13      H       0.9131448265     2.5605903018     0.0000000000
   14      H      -3.5312913260     0.1239976788     0.0000000000
   15      H      -2.0124720550    -2.1879464836     0.0000000000
   16      H       1.0210152184    -2.5812824209     0.0000000000
 ----------------------------------------------------------------
 Molecular Point Group                 Cs    NOp =  2
 Largest Abelian Subgroup              Cs    NOp =  2
 Nuclear Repulsion Energy =   394.5906177028 hartrees
 There are       31 alpha and       31 beta electrons
 Applying Cartesian multipole field
    Component          Value
    ---------          -----
     (2,0,0)        1.00000E-11
     (0,2,0)        2.00000E-11
     (0,0,2)       -3.00000E-11
 Nucleus-field energy     =     0.0000000121 hartrees
 Requested basis set is 6-31+G(d)
 There are 59 shells and 185 basis functions
 Smallest overlap matrix eigenvalue = 1.51E-06
 Guess MOs from SCF MO coefficient file

 -----------------------------------------------------------------------
  General SCF calculation program by
  Eric Jon Sundstrom, Paul Horn, Yuezhi Mao, Dmitri Zuev, Alec White,
  David Stuck, Shaama M.S., Shane Yost, Joonho Lee, David Small,
  Daniel Levine, Susi Lehtola, Hugh Burton, Evgeny Epifanovsky
 -----------------------------------------------------------------------
 Exchange:  PBE      Correlation:  PBE
 Using SG-1 standard quadrature grid
 using 4 threads for integral computing
 -------------------------------------------------------
 OpenMP Integral computing Module                
 Release: version 1.0, May 2013, Q-Chem Inc. Pittsburgh 
 -------------------------------------------------------
 -------------------------------------------------------
 OpenMP BLAS3 based DFT computing Module                
 Release: version 1.0, May 2013, Q-Chem Inc. Pittsburgh 
 -------------------------------------------------------
 A restricted SCF calculation will be
 performed using DIIS
 SCF converges when DIIS error is below 1.0e-08
 ---------------------------------------
  Cycle       Energy         DIIS error
 ---------------------------------------
    1    -363.3591511121      1.99e-04  
    2    -363.3593574688      4.60e-05  
    3    -363.3593439525      7.17e-05  
    4    -363.3593655118      1.25e-05  
    5    -363.3593660423      6.61e-06  
    6    -363.3593662447      1.77e-06  
    7    -363.3593662585      6.04e-07  
    8    -363.3593662600      2.75e-07  
    9    -363.3593662603      6.42e-08  
   10    -363.3593662603      1.50e-08  
   11    -363.3593662603      8.89e-09  Convergence criterion met
 ---------------------------------------
 SCF time:   CPU 27.64s  wall 8.00s 
 SCF   energy in the final basis set =     -363.3593662603
 Total energy in the final basis set =     -363.3593662603
 A cutoff of  1.0D-12 yielded   1656 shell pairs
 There are     17099 function pairs

 Exchange:  PBE      Correlation:  PBE
 Using SG-1 standard quadrature grid
 Direct TDDFT/TDA calculation will be performed
 Singlet excitation energies requested
 CIS energy converged when residual is below 10e- 6
 ---------------------------------------------------
 Iter    Rts Conv    Rts Left    Ttl Dev     Max Dev
 ---------------------------------------------------
   1         0           3      0.003844    0.001847
   2         0           3      0.002468    0.001429
   3         0           3      0.001889    0.001253
   4         1           2      0.001418    0.001143
   5         1           2      0.000338    0.000266
   6         1           2      0.000109    0.000088
   7         1           2      0.000017    0.000013
   8         2           1      0.000004    0.000004
   9         3           0      0.000001    0.000000    Roots Converged
 ---------------------------------------------------

 ---------------------------------------------------
         TDDFT/TDA Excitation Energies              
 ---------------------------------------------------

 Excited state   1: excitation energy (eV) =    3.8299
 Total energy for state  1:                  -363.21861937 au
    Multiplicity: Singlet
    Trans. Mom.:  0.4917 X  -0.5201 Y  -0.0000 Z
    Strength   :     0.0480622432
    D( 29) --> V(  1) amplitude = -0.2880
    D( 31) --> V(  1) amplitude =  0.9086

 Excited state   2: excitation energy (eV) =    4.2619
 Total energy for state  2:                  -363.20274424 au
    Multiplicity: Singlet
    Trans. Mom.: -0.0000 X   0.0000 Y  -0.1019 Z
    Strength   :     0.0010850485
    D( 31) --> V(  2) amplitude =  0.9996

 Excited state   3: excitation energy (eV) =    4.5509
 Total energy for state  3:                  -363.19212539 au
    Multiplicity: Singlet
    Trans. Mom.:  0.0097 X  -0.1859 Y  -0.0000 Z
    Strength   :     0.0038637832
    D( 30) --> V(  1) amplitude =  0.7045
    D( 31) --> V(  3) amplitude = -0.6636

 ---------------------------------------------------
 Calculating Relaxed Density
 ---------------------------------------------------
 Iter    Rts Conv    Rts Left    Ttl Dev     Max Dev
 ---------------------------------------------------
   1         0           3      0.002783    0.001402
   2         0           3      0.000951    0.000510
   3         0           3      0.000249    0.000111
   4         0           3      0.000072    0.000033
   5         0           3      0.000011    0.000006
   6         2           1      0.000001    0.000001
   7         3           0      0.000000    0.000000    Roots Converged
 ---------------------------------------------------
  SETman timing summary (seconds)
  CPU time               142.39s
  System time             30.73s
  Wall time               37.53s

 --------------------------------------------------------------
             Orbital Energies (a.u.) and Symmetries
 --------------------------------------------------------------

 Alpha MOs, Restricted
 -- Occupied --                  
-14.059  -9.941  -9.940  -9.919  -9.911  -9.907  -9.907  -9.904
  1 A'    2 A'    3 A'    4 A'    5 A'    6 A'    7 A'    8 A'                 
 -9.896  -0.897  -0.762  -0.699  -0.669  -0.642  -0.567  -0.534
  9 A'   10 A'   11 A'   12 A'   13 A'   14 A'   15 A'   16 A'                 
 -0.519  -0.489  -0.431  -0.423  -0.390  -0.387  -0.373  -0.356
 17 A'   18 A'   19 A'   20 A'   21 A'   22 A'    1 A"   23 A'                 
 -0.346  -0.312  -0.300  -0.298  -0.240  -0.209  -0.174
 24 A'   25 A'   26 A'    2 A"    3 A"    4 A"    5 A"                         
 -- Virtual --                   
 -0.055  -0.017  -0.012   0.002   0.011   0.012   0.024   0.027
  6 A"   27 A'    7 A"   28 A'   29 A'    8 A"   30 A'   31 A'                 
  0.045   0.048   0.052   0.054   0.071   0.075   0.093   0.094
 32 A'    9 A"   33 A'   34 A'   10 A"   11 A"   35 A'   36 A'                 
  0.096   0.111   0.118   0.122   0.133   0.137   0.144   0.144
 37 A'   12 A"   13 A"   38 A'   14 A"   39 A'   15 A"   40 A'                 
  0.154   0.156   0.164   0.165   0.175   0.179   0.183   0.185
 41 A'   42 A'   43 A'   16 A"   44 A'   45 A'   46 A'   17 A"                 
  0.194   0.199   0.209   0.216   0.218   0.219   0.231   0.237
 47 A'   48 A'   49 A'   50 A'   18 A"   51 A'   52 A'   53 A'                 
  0.250   0.254   0.258   0.263   0.268   0.277   0.291   0.305
 54 A'   55 A'   56 A'   57 A'   58 A'   59 A'   60 A'   61 A'                 
  0.313   0.316   0.324   0.356   0.371   0.406   0.453   0.524
 62 A'   63 A'   64 A'   65 A'   66 A'   67 A'   68 A'   69 A'                 
  0.543   0.629   0.630   0.655   0.667   0.679   0.680   0.683
 70 A'   71 A'   19 A"   20 A"   72 A'   73 A'   21 A"   74 A'                 
  0.689   0.701   0.708   0.726   0.733   0.743   0.758   0.802
 22 A"   75 A'   23 A"   24 A"   76 A'   25 A"   77 A'   26 A"                 
  0.834   0.840   0.845   0.880   0.894   0.899   0.904   0.925
 78 A'   79 A'   80 A'   81 A'   82 A'   83 A'   27 A"   84 A'                 
  0.945   0.979   0.992   1.002   1.044   1.067   1.075   1.117
 85 A'   86 A'   87 A'   88 A'   89 A'   90 A'   91 A'   92 A'                 
  1.124   1.159   1.174   1.180   1.195   1.257   1.258   1.285
 93 A'   94 A'   95 A'   28 A"   96 A'   97 A'   29 A"   30 A"                 
  1.301   1.326   1.340   1.368   1.399   1.410   1.420   1.430
 98 A'   99 A'   31 A"  100 A'   32 A"   33 A"   34 A"   35 A"                 
  1.480   1.508   1.552   1.716   1.733   1.781   1.815   1.816
101 A'  102 A'  103 A'  104 A'  105 A'  106 A'   36 A"  107 A'                 
  1.834   1.900   1.903   1.921   1.947   1.973   2.036   2.073
108 A'  109 A'  110 A'   37 A"  111 A'  112 A'  113 A'  114 A'                 
  2.088   2.108   2.131   2.152   2.183   2.183   2.209   2.266
 38 A"  115 A'   39 A"   40 A"  116 A'   41 A"  117 A'   42 A"                 
  2.302   2.364   2.416   2.436   2.521   2.539   2.562   2.578
 43 A"  118 A'  119 A'   44 A"  120 A'   45 A"  121 A'  122 A'                 
  2.649   2.692   2.728   2.741   2.834   2.887   2.946   3.106
123 A'  124 A'  125 A'  126 A'  127 A'  128 A'  129 A'  130 A'                 
  3.275   4.039   4.139   4.190   4.222   4.251   4.297   4.374
131 A'  132 A'  133 A'  134 A'  135 A'  136 A'  137 A'  138 A'                 
  4.422   4.662
139 A'  140 A'                                                                 

 Beta MOs, Restricted
 -- Occupied --                  
-14.059  -9.941  -9.940  -9.919  -9.911  -9.907  -9.907  -9.904
  1 A'    2 A'    3 A'    4 A'    5 A'    6 A'    7 A'    8 A'                 
 -9.896  -0.897  -0.762  -0.699  -0.669  -0.642  -0.567  -0.534
  9 A'   10 A'   11 A'   12 A'   13 A'   14 A'   15 A'   16 A'                 
 -0.519  -0.489  -0.431  -0.423  -0.390  -0.387  -0.373  -0.356
 17 A'   18 A'   19 A'   20 A'   21 A'   22 A'    1 A"   23 A'                 
 -0.346  -0.312  -0.300  -0.298  -0.240  -0.209  -0.174
 24 A'   25 A'   26 A'    2 A"    3 A"    4 A"    5 A"                         
 -- Virtual --                   
 -0.055  -0.017  -0.012   0.002   0.011   0.012   0.024   0.027
  6 A"   27 A'    7 A"   28 A'   29 A'    8 A"   30 A'   31 A'                 
  0.045   0.048   0.052   0.054   0.071   0.075   0.093   0.094
 32 A'    9 A"   33 A'   34 A'   10 A"   11 A"   35 A'   36 A'                 
  0.096   0.111   0.118   0.122   0.133   0.137   0.144   0.144
 37 A'   12 A"   13 A"   38 A'   14 A"   39 A'   15 A"   40 A'                 
  0.154   0.156   0.164   0.165   0.175   0.179   0.183   0.185
 41 A'   42 A'   43 A'   16 A"   44 A'   45 A'   46 A'   17 A"                 
  0.194   0.199   0.209   0.216   0.218   0.219   0.231   0.237
 47 A'   48 A'   49 A'   50 A'   18 A"   51 A'   52 A'   53 A'                 
  0.250   0.254   0.258   0.263   0.268   0.277   0.291   0.305
 54 A'   55 A'   56 A'   57 A'   58 A'   59 A'   60 A'   61 A'                 
  0.313   0.316   0.324   0.356   0.371   0.406   0.453   0.524
 62 A'   63 A'   64 A'   65 A'   66 A'   67 A'   68 A'   69 A'                 
  0.543   0.629   0.630   0.655   0.667   0.679   0.680   0.683
 70 A'   71 A'   19 A"   20 A"   72 A'   73 A'   21 A"   74 A'                 
  0.689   0.701   0.708   0.726   0.733   0.743   0.758   0.802
 22 A"   75 A'   23 A"   24 A"   76 A'   25 A"   77 A'   26 A"                 
  0.834   0.840   0.845   0.880   0.894   0.899   0.904   0.925
 78 A'   79 A'   80 A'   81 A'   82 A'   83 A'   27 A"   84 A'                 
  0.945   0.979   0.992   1.002   1.044   1.067   1.075   1.117
 85 A'   86 A'   87 A'   88 A'   89 A'   90 A'   91 A'   92 A'                 
  1.124   1.159   1.174   1.180   1.195   1.257   1.258   1.285
 93 A'   94 A'   95 A'   28 A"   96 A'   97 A'   29 A"   30 A"                 
  1.301   1.326   1.340   1.368   1.399   1.410   1.420   1.430
[...]
  0.250   0.254   0.258   0.263   0.268   0.277   0.291   0.305
 54 A'   55 A'   56 A'   57 A'   58 A'   59 A'   60 A'   61 A'                 
  0.313   0.316   0.324   0.356   0.371   0.406   0.453   0.524
 62 A'   63 A'   64 A'   65 A'   66 A'   67 A'   68 A'   69 A'                 
  0.544   0.630   0.630   0.655   0.667   0.679   0.680   0.683
 70 A'   71 A'   19 A"   20 A"   72 A'   73 A'   21 A"   74 A'                 
  0.689   0.700   0.708   0.726   0.734   0.743   0.758   0.802
 22 A"   75 A'   23 A"   24 A"   76 A'   25 A"   77 A'   26 A"                 
  0.834   0.840   0.845   0.880   0.894   0.900   0.904   0.925
 78 A'   79 A'   80 A'   81 A'   82 A'   83 A'   27 A"   84 A'                 
  0.945   0.979   0.992   1.002   1.045   1.067   1.074   1.117
 85 A'   86 A'   87 A'   88 A'   89 A'   90 A'   91 A'   92 A'                 
  1.124   1.158   1.174   1.180   1.196   1.256   1.258   1.285
 93 A'   94 A'   95 A'   28 A"   96 A'   97 A'   29 A"   30 A"                 
  1.301   1.326   1.340   1.369   1.399   1.410   1.420   1.430
 98 A'   99 A'   31 A"  100 A'   32 A"   33 A"   34 A"   35 A"                 
  1.479   1.508   1.553   1.715   1.732   1.781   1.815   1.816
101 A'  102 A'  103 A'  104 A'  105 A'  106 A'   36 A"  107 A'                 
  1.834   1.900   1.904   1.921   1.948   1.975   2.038   2.074
108 A'  109 A'  110 A'   37 A"  111 A'  112 A'  113 A'  114 A'                 
  2.089   2.108   2.132   2.153   2.183   2.184   2.209   2.267
 38 A"  115 A'   39 A"   40 A"   41 A"  116 A'  117 A'   42 A"                 
  2.302   2.364   2.416   2.436   2.522   2.540   2.562   2.579
 43 A"  118 A'  119 A'   44 A"  120 A'   45 A"  121 A'  122 A'                 
  2.650   2.693   2.728   2.740   2.834   2.887   2.947   3.105
123 A'  124 A'  125 A'  126 A'  127 A'  128 A'  129 A'  130 A'                 
  3.276   4.039   4.140   4.191   4.221   4.251   4.297   4.374
131 A'  132 A'  133 A'  134 A'  135 A'  136 A'  137 A'  138 A'                 
  4.422   4.663
139 A'  140 A'                                                                 
 --------------------------------------------------------------

          Ground-State Mulliken Net Atomic Charges

     Atom                 Charge (a.u.)
  ----------------------------------------
      1 C                    -0.023346
      2 C                    -0.367695
      3 C                    -0.417768
      4 C                    -1.334789
      5 N                    -0.389616
      6 H                     0.410751
      7 C                    -0.189226
      8 C                    -0.147189
      9 C                     1.881302
     10 C                    -0.577453
     11 H                     0.185066
     12 H                     0.184690
     13 H                     0.193019
     14 H                     0.202976
     15 H                     0.191521
     16 H                     0.197758
  ----------------------------------------
  Sum of atomic charges =     0.000000

 -----------------------------------------------------------------
                    Cartesian Multipole Moments
 -----------------------------------------------------------------
    Charge (ESU x 10^10)
                -0.0000
    Dipole Moment (Debye)
         X      -1.3315      Y       1.7393      Z      -0.0000
       Tot       2.1904
    Quadrupole Moments (Debye-Ang)
        XX     -45.2723     XY      -3.7733     YY     -44.4163
        XZ       0.0000     YZ      -0.0000     ZZ     -59.3463
    Octopole Moments (Debye-Ang^2)
       XXX     -16.2763    XXY       9.3935    XYY      -6.7603
       YYY      11.4651    XXZ      -0.0000    XYZ       0.0000
       YYZ      -0.0000    XZZ      -1.7449    YZZ       2.4262
       ZZZ      -0.0000
    Hexadecapole Moments (Debye-Ang^3)
      XXXX    -841.4081   XXXY     -23.7628   XXYY    -206.1299
      XYYY     -18.9390   YYYY    -378.6082   XXXZ       0.0000
      XXYZ      -0.0000   XYYZ       0.0000   YYYZ      -0.0000
      XXZZ    -197.1924   XYZZ      -3.8719   YYZZ     -97.4375
      XZZZ       0.0000   YZZZ      -0.0000   ZZZZ     -75.3946
 -----------------------------------------------------------------
 Calculating analytic gradient of the CIS energy
 CIS relaxed dipole moment
            1
    1  -2.3191196
    2   0.4248036
    3  -0.0000000
	Magnitude:	 2.358 au	 5.993 Debye
 CIS 1 State Energy is -363.2186417633
 Gradient of the state energy (including CIS Excitation Energy)
            1           2           3           4           5           6
    1  -0.0000246  -0.0000107  -0.0000294  -0.0000586   0.0000123   0.0000200
    2   0.0000096  -0.0000273   0.0000134   0.0000028  -0.0000526  -0.0000270
    3  -0.0000000   0.0000000  -0.0000000  -0.0000000   0.0000000  -0.0000000
            7           8           9          10          11          12
    1   0.0000101   0.0000088   0.0000786  -0.0000384  -0.0000029  -0.0000057
    2   0.0000943  -0.0001011   0.0000739   0.0000015   0.0000002   0.0000126
    3   0.0000000  -0.0000000  -0.0000000   0.0000000  -0.0000000  -0.0000000
           13          14          15          16
    1   0.0000114  -0.0000009   0.0000018   0.0000284
    2  -0.0000192  -0.0000256   0.0000266   0.0000179
    3   0.0000000  -0.0000000  -0.0000000   0.0000000
 Gradient time:  CPU 31.95 s  wall 10.41 s

Z-matrix Print:
$molecule
0 1
C 
C  1 1.385692
C  2 1.431332 1 121.699533
H  3 1.091536 2 122.381857 1 -180.000000 0
C  1 1.434850 2 124.907657 3 -0.000000 0
H  5 1.091025 1 123.939480 2 -180.000000 0
C  5 1.433823 1 112.770490 2 -0.000000 0
H  7 1.096602 5 118.123589 1 -180.000000 0
C  7 1.399936 5 123.393078 1 -0.000000 0
H  9 1.095645 7 118.559297 5 -180.000000 0
N  1 1.443269 2 107.211668 3 -180.000000 0
H  11 1.020366 1 123.758591 2 -180.000000 0
C  11 1.342753 1 111.605181 2 -0.000000 0
H  13 1.088731 11 122.792109 1 -180.000000 0
C  13 1.429147 11 106.673862 1 -0.000000 0
H  15 1.090992 13 124.670372 11 -180.000000 0
$end

 Geometry Optimization Parameters
   NAtoms,    NIC,     NZ,  NCons,   NDum,   NFix, NCnnct, MaxDiis
       16     116       0       0       0       0       0       0

 Cartesian Hessian Update
 Hessian Updated using BFGS Update


** GEOMETRY OPTIMIZATION IN DELOCALIZED INTERNAL COORDINATES **
   Searching for a Minimum

   Optimization Cycle:   6

                       Coordinates (Angstroms)
     ATOM                X               Y               Z
      1  C         2.1915600285   -0.6895354086    0.0000000000
      2  C         2.1570064611    0.7099737895    0.0000000000
      3  C         0.9407739404    1.4693330215    0.0000000000
      4  C        -0.2309731786    0.6412005816    0.0000000000
      5  N        -1.6121421084    1.0600040890    0.0000000000
      6  H        -1.9085948025    2.0363555729    0.0000000000
      7  C        -2.4475440558    0.0087713635    0.0000000000
      8  C        -1.6308378571   -1.1640248281    0.0000000000
      9  C        -0.2226752135   -0.7444669519    0.0000000000
     10  C         0.9996061250   -1.4892753542    0.0000000000
     11  H         3.1665253993   -1.1894162665    0.0000000000
     12  H         3.1076696835    1.2565778450    0.0000000000
     13  H         0.9158066560    2.5600723420    0.0000000000
     14  H        -3.5309267133    0.1165565734    0.0000000000
     15  H        -2.0125053390   -2.1860788667    0.0000000000
     16  H         1.0191404669   -2.5806370409    0.0000000000
   Point Group: cs    Number of degrees of freedom:    29


   Energy is   -363.218641763

 Hessian Updated using BFGS Update

 28 Hessian modes will be used to form the next step
  Hessian Eigenvalues:
     0.131714    0.152472    0.160003    0.160031    0.160129    0.160500
     0.187587    0.212161    0.226297    0.241123    0.247848    0.320338
     0.348165    0.351881    0.353096    0.353523    0.358980    0.359947
     0.366417    0.376484    0.413721    0.423208    0.452836    0.454739
     0.467105    0.472797    0.491675    0.514396

 Minimum Search - Taking Simple RFO Step
 Searching for Lamda that Minimizes Along All modes
 Value Taken    Lamda =   0.00000000
 Step Taken.  Stepsize is  0.000557

                             Maximum     Tolerance    Cnvgd?
         Gradient           0.000066      0.000300     YES
         Displacement       0.000271      0.001200     YES
         Energy change     -0.000003      0.000001      NO

 Final energy is   -363.21864176328614     


 ******************************
 **  OPTIMIZATION CONVERGED  **
 ******************************

                       Coordinates (Angstroms)
     ATOM                X               Y               Z
      1  C         2.1915600285   -0.6895354086    0.0000000000
      2  C         2.1570064611    0.7099737895    0.0000000000
      3  C         0.9407739404    1.4693330215    0.0000000000
      4  C        -0.2309731786    0.6412005816    0.0000000000
      5  N        -1.6121421084    1.0600040890    0.0000000000
      6  H        -1.9085948025    2.0363555729    0.0000000000
      7  C        -2.4475440558    0.0087713635    0.0000000000
      8  C        -1.6308378571   -1.1640248281    0.0000000000
      9  C        -0.2226752135   -0.7444669519    0.0000000000
     10  C         0.9996061250   -1.4892753542    0.0000000000
     11  H         3.1665253993   -1.1894162665    0.0000000000
     12  H         3.1076696835    1.2565778450    0.0000000000
     13  H         0.9158066560    2.5600723420    0.0000000000
     14  H        -3.5309267133    0.1165565734    0.0000000000
     15  H        -2.0125053390   -2.1860788667    0.0000000000
     16  H         1.0191404669   -2.5806370409    0.0000000000

 --------------------------------------------------------------
             Orbital Energies (a.u.) and Symmetries
 --------------------------------------------------------------

 Alpha MOs, Restricted
 -- Occupied --                  
-14.059  -9.941  -9.940  -9.919  -9.911  -9.907  -9.907  -9.904
  1 A'    2 A'    3 A'    4 A'    5 A'    6 A'    7 A'    8 A'                 
 -9.896  -0.897  -0.762  -0.699  -0.669  -0.642  -0.567  -0.534
  9 A'   10 A'   11 A'   12 A'   13 A'   14 A'   15 A'   16 A'                 
 -0.519  -0.489  -0.431  -0.424  -0.390  -0.387  -0.372  -0.356
 17 A'   18 A'   19 A'   20 A'   21 A'   22 A'    1 A"   23 A'                 
 -0.345  -0.312  -0.300  -0.298  -0.240  -0.209  -0.174
 24 A'   25 A'   26 A'    2 A"    3 A"    4 A"    5 A"                         
 -- Virtual --                   
 -0.055  -0.017  -0.012   0.002   0.011   0.012   0.024   0.027
  6 A"   27 A'    7 A"   28 A'   29 A'    8 A"   30 A'   31 A'                 
  0.045   0.048   0.052   0.054   0.071   0.075   0.093   0.094
 32 A'    9 A"   33 A'   34 A'   10 A"   11 A"   35 A'   36 A'                 
  0.096   0.111   0.118   0.122   0.133   0.137   0.144   0.144
 37 A'   12 A"   13 A"   38 A'   14 A"   39 A'   40 A'   15 A"                 
  0.154   0.157   0.164   0.165   0.176   0.179   0.184   0.185
 41 A'   42 A'   43 A'   16 A"   44 A'   45 A'   46 A'   17 A"                 
  0.194   0.199   0.209   0.216   0.218   0.219   0.231   0.237
 47 A'   48 A'   49 A'   50 A'   18 A"   51 A'   52 A'   53 A'                 
  0.250   0.254   0.258   0.263   0.268   0.277   0.291   0.305
 54 A'   55 A'   56 A'   57 A'   58 A'   59 A'   60 A'   61 A'                 
  0.313   0.316   0.324   0.356   0.371   0.406   0.453   0.524
 62 A'   63 A'   64 A'   65 A'   66 A'   67 A'   68 A'   69 A'                 
  0.544   0.630   0.630   0.655   0.667   0.679   0.680   0.683
 70 A'   71 A'   19 A"   20 A"   72 A'   73 A'   21 A"   74 A'                 
  0.689   0.700   0.708   0.726   0.734   0.743   0.758   0.802
 22 A"   75 A'   23 A"   24 A"   76 A'   25 A"   77 A'   26 A"                 
  0.834   0.840   0.845   0.880   0.894   0.900   0.904   0.925
 78 A'   79 A'   80 A'   81 A'   82 A'   83 A'   27 A"   84 A'                 
  0.945   0.979   0.992   1.002   1.045   1.067   1.074   1.117
 85 A'   86 A'   87 A'   88 A'   89 A'   90 A'   91 A'   92 A'                 
  1.124   1.158   1.174   1.180   1.196   1.256   1.258   1.285
 93 A'   94 A'   95 A'   28 A"   96 A'   97 A'   29 A"   30 A"                 
  1.301   1.326   1.340   1.369   1.399   1.410   1.420   1.430
 98 A'   99 A'   31 A"  100 A'   32 A"   33 A"   34 A"   35 A"                 
  1.479   1.508   1.553   1.715   1.732   1.781   1.815   1.816
101 A'  102 A'  103 A'  104 A'  105 A'  106 A'   36 A"  107 A'                 
  1.834   1.900   1.904   1.921   1.948   1.975   2.038   2.074
108 A'  109 A'  110 A'   37 A"  111 A'  112 A'  113 A'  114 A'                 
  2.089   2.108   2.132   2.153   2.183   2.184   2.209   2.267
 38 A"  115 A'   39 A"   40 A"   41 A"  116 A'  117 A'   42 A"                 
  2.302   2.364   2.416   2.436   2.522   2.540   2.562   2.579
 43 A"  118 A'  119 A'   44 A"  120 A'   45 A"  121 A'  122 A'                 
  2.650   2.693   2.728   2.740   2.834   2.887   2.947   3.105
123 A'  124 A'  125 A'  126 A'  127 A'  128 A'  129 A'  130 A'                 
  3.276   4.039   4.140   4.191   4.221   4.251   4.297   4.374
131 A'  132 A'  133 A'  134 A'  135 A'  136 A'  137 A'  138 A'                 
  4.422   4.663
139 A'  140 A'                                                                 

 Beta MOs, Restricted
 -- Occupied --                  
-14.059  -9.941  -9.940  -9.919  -9.911  -9.907  -9.907  -9.904
  1 A'    2 A'    3 A'    4 A'    5 A'    6 A'    7 A'    8 A'                 
 -9.896  -0.897  -0.762  -0.699  -0.669  -0.642  -0.567  -0.534
  9 A'   10 A'   11 A'   12 A'   13 A'   14 A'   15 A'   16 A'                 
 -0.519  -0.489  -0.431  -0.424  -0.390  -0.387  -0.372  -0.356
 17 A'   18 A'   19 A'   20 A'   21 A'   22 A'    1 A"   23 A'                 
 -0.345  -0.312  -0.300  -0.298  -0.240  -0.209  -0.174
 24 A'   25 A'   26 A'    2 A"    3 A"    4 A"    5 A"                         
 -- Virtual --                   
 -0.055  -0.017  -0.012   0.002   0.011   0.012   0.024   0.027
  6 A"   27 A'    7 A"   28 A'   29 A'    8 A"   30 A'   31 A'                 
  0.045   0.048   0.052   0.054   0.071   0.075   0.093   0.094
 32 A'    9 A"   33 A'   34 A'   10 A"   11 A"   35 A'   36 A'                 
  0.096   0.111   0.118   0.122   0.133   0.137   0.144   0.144
 37 A'   12 A"   13 A"   38 A'   14 A"   39 A'   40 A'   15 A"                 
  0.154   0.157   0.164   0.165   0.176   0.179   0.184   0.185
 41 A'   42 A'   43 A'   16 A"   44 A'   45 A'   46 A'   17 A"                 
  0.194   0.199   0.209   0.216   0.218   0.219   0.231   0.237
 47 A'   48 A'   49 A'   50 A'   18 A"   51 A'   52 A'   53 A'                 
  0.250   0.254   0.258   0.263   0.268   0.277   0.291   0.305
 54 A'   55 A'   56 A'   57 A'   58 A'   59 A'   60 A'   61 A'                 
  0.313   0.316   0.324   0.356   0.371   0.406   0.453   0.524
 62 A'   63 A'   64 A'   65 A'   66 A'   67 A'   68 A'   69 A'                 
  0.544   0.630   0.630   0.655   0.667   0.679   0.680   0.683
 70 A'   71 A'   19 A"   20 A"   72 A'   73 A'   21 A"   74 A'                 
  0.689   0.700   0.708   0.726   0.734   0.743   0.758   0.802
 22 A"   75 A'   23 A"   24 A"   76 A'   25 A"   77 A'   26 A"                 
  0.834   0.840   0.845   0.880   0.894   0.900   0.904   0.925
 78 A'   79 A'   80 A'   81 A'   82 A'   83 A'   27 A"   84 A'                 
  0.945   0.979   0.992   1.002   1.045   1.067   1.074   1.117
 85 A'   86 A'   87 A'   88 A'   89 A'   90 A'   91 A'   92 A'                 
  1.124   1.158   1.174   1.180   1.196   1.256   1.258   1.285
 93 A'   94 A'   95 A'   28 A"   96 A'   97 A'   29 A"   30 A"                 
  1.301   1.326   1.340   1.369   1.399   1.410   1.420   1.430
 98 A'   99 A'   31 A"  100 A'   32 A"   33 A"   34 A"   35 A"                 
  1.479   1.508   1.553   1.715   1.732   1.781   1.815   1.816
101 A'  102 A'  103 A'  104 A'  105 A'  106 A'   36 A"  107 A'                 
  1.834   1.900   1.904   1.921   1.948   1.975   2.038   2.074
108 A'  109 A'  110 A'   37 A"  111 A'  112 A'  113 A'  114 A'                 
  2.089   2.108   2.132   2.153   2.183   2.184   2.209   2.267
 38 A"  115 A'   39 A"   40 A"   41 A"  116 A'  117 A'   42 A"                 
  2.302   2.364   2.416   2.436   2.522   2.540   2.562   2.579
 43 A"  118 A'  119 A'   44 A"  120 A'   45 A"  121 A'  122 A'                 
  2.650   2.693   2.728   2.740   2.834   2.887   2.947   3.105
123 A'  124 A'  125 A'  126 A'  127 A'  128 A'  129 A'  130 A'                 
  3.276   4.039   4.140   4.191   4.221   4.251   4.297   4.374
131 A'  132 A'  133 A'  134 A'  135 A'  136 A'  137 A'  138 A'                 
  4.422   4.663
139 A'  140 A'                                                                 
 --------------------------------------------------------------

          Ground-State Mulliken Net Atomic Charges

     Atom                 Charge (a.u.)
  ----------------------------------------
      1 C                    -0.023346
      2 C                    -0.367695
      3 C                    -0.417768
      4 C                    -1.334789
      5 N                    -0.389616
      6 H                     0.410751
      7 C                    -0.189226
      8 C                    -0.147189
      9 C                     1.881302
     10 C                    -0.577453
     11 H                     0.185066
     12 H                     0.184690
     13 H                     0.193019
     14 H                     0.202976
     15 H                     0.191521
     16 H                     0.197758
  ----------------------------------------
  Sum of atomic charges =     0.000000

 -----------------------------------------------------------------
                    Cartesian Multipole Moments
 -----------------------------------------------------------------
    Charge (ESU x 10^10)
                -0.0000
    Dipole Moment (Debye)
         X      -1.3315      Y       1.7393      Z      -0.0000
       Tot       2.1904
    Quadrupole Moments (Debye-Ang)
        XX     -45.2723     XY      -3.7733     YY     -44.4163
        XZ       0.0000     YZ      -0.0000     ZZ     -59.3463
    Octopole Moments (Debye-Ang^2)
       XXX     -16.2763    XXY       9.3935    XYY      -6.7603
       YYY      11.4651    XXZ      -0.0000    XYZ       0.0000
       YYZ      -0.0000    XZZ      -1.7449    YZZ       2.4262
       ZZZ      -0.0000
    Hexadecapole Moments (Debye-Ang^3)
      XXXX    -841.4081   XXXY     -23.7628   XXYY    -206.1299
      XYYY     -18.9390   YYYY    -378.6082   XXXZ       0.0000
      XXYZ      -0.0000   XYYZ       0.0000   YYYZ      -0.0000
      XXZZ    -197.1924   XYZZ      -3.8719   YYZZ     -97.4375
      XZZZ       0.0000   YZZZ      -0.0000   ZZZZ     -75.3946
 -----------------------------------------------------------------
Archival summary:
1\1\WKENNERL-11804\OPT\ProcedureUnspecified\6-31+G*\187\scaparas\MonJun714:59:232021MonJun714:59:232021\0\\#,OPT,ProcedureUnspecified,6-31+G*,\\0,1\C\C,1,1.38569\C,2,1.43133,1,121.7\H,3,1.09154,2,122.382,1,-180,0\C,1,1.43485,2,124.908,3,-0,0\H,5,1.09103,1,123.939,2,-180,0\C,5,1.43382,1,112.77,2,-0,0\H,7,1.0966,5,118.124,1,-180,0\C,7,1.39994,5,123.393,1,-0,0\H,9,1.09565,7,118.559,5,-180,0\N,1,1.44327,2,107.212,3,-180,0\H,11,1.02037,1,123.759,2,-180,0\C,11,1.34275,1,111.605,2,-0,0\H,13,1.08873,11,122.792,1,-180,0\C,13,1.42915,11,106.674,1,-0,0\H,15,1.09099,13,124.67,11,-180,0\\\@

 Total job time:  348.82s(wall), 1243.86s(cpu) 
 Mon Jun  7 14:59:23 2021

        *************************************************************
        *                                                           *
        *  Thank you very much for using Q-Chem.  Have a nice day.  *
        *                                                           *
        *************************************************************


