 Entering Gaussian System, Link 0=/opt/gaussian/16.B.01/g16/g16
 Initial command:
 /opt/gaussian/16.B.01/g16/l1.exe "/scratch/gfoley1/16922759/Gau-22208.inp" -scrdir="/scratch/gfoley1/16922759/"
 Entering Link 1 = /opt/gaussian/16.B.01/g16/l1.exe PID=     22209.
  
 Copyright (c) 1988-2017, Gaussian, Inc.  All Rights Reserved.
  
 This is part of the Gaussian(R) 16 program.  It is based on
 the Gaussian(R) 09 system (copyright 2009, Gaussian, Inc.),
 the Gaussian(R) 03 system (copyright 2003, Gaussian, Inc.),
 the Gaussian(R) 98 system (copyright 1998, Gaussian, Inc.),
 the Gaussian(R) 94 system (copyright 1995, Gaussian, Inc.),
 the Gaussian 92(TM) system (copyright 1992, Gaussian, Inc.),
 the Gaussian 90(TM) system (copyright 1990, Gaussian, Inc.),
 the Gaussian 88(TM) system (copyright 1988, Gaussian, Inc.),
 the Gaussian 86(TM) system (copyright 1986, Carnegie Mellon
 University), and the Gaussian 82(TM) system (copyright 1983,
 Carnegie Mellon University). Gaussian is a federally registered
 trademark of Gaussian, Inc.
  
 This software contains proprietary and confidential information,
 including trade secrets, belonging to Gaussian, Inc.
  
 This software is provided under written license and may be
 used, copied, transmitted, or stored only in accord with that
 written license.
  
 The following legend is applicable only to US Government
 contracts under FAR:
  
                    RESTRICTED RIGHTS LEGEND
  
 Use, reproduction and disclosure by the US Government is
 subject to restrictions as set forth in subparagraphs (a)
 and (c) of the Commercial Computer Software - Restricted
 Rights clause in FAR 52.227-19.
  
 Gaussian, Inc.
 340 Quinnipiac St., Bldg. 40, Wallingford CT 06492
  
  
 ---------------------------------------------------------------
 Warning -- This program may not be used in any manner that
 competes with the business of Gaussian, Inc. or will provide
 assistance to any competitor of Gaussian, Inc.  The licensee
 of this program is prohibited from giving any competitor of
 Gaussian, Inc. access to this program.  By using this program,
 the user acknowledges that Gaussian, Inc. is engaged in the
 business of creating and licensing software in the field of
 computational chemistry and represents and warrants to the
 licensee that it is not a competitor of Gaussian, Inc. and that
 it will not use this program in any manner prohibited above.
 ---------------------------------------------------------------
  

 Cite this work as:
 Gaussian 16, Revision B.01,
 M. J. Frisch, G. W. Trucks, H. B. Schlegel, G. E. Scuseria, 
 M. A. Robb, J. R. Cheeseman, G. Scalmani, V. Barone, 
 G. A. Petersson, H. Nakatsuji, X. Li, M. Caricato, A. V. Marenich, 
 J. Bloino, B. G. Janesko, R. Gomperts, B. Mennucci, H. P. Hratchian, 
 J. V. Ortiz, A. F. Izmaylov, J. L. Sonnenberg, D. Williams-Young, 
 F. Ding, F. Lipparini, F. Egidi, J. Goings, B. Peng, A. Petrone, 
 T. Henderson, D. Ranasinghe, V. G. Zakrzewski, J. Gao, N. Rega, 
 G. Zheng, W. Liang, M. Hada, M. Ehara, K. Toyota, R. Fukuda, 
 J. Hasegawa, M. Ishida, T. Nakajima, Y. Honda, O. Kitao, H. Nakai, 
 T. Vreven, K. Throssell, J. A. Montgomery, Jr., J. E. Peralta, 
 F. Ogliaro, M. J. Bearpark, J. J. Heyd, E. N. Brothers, K. N. Kudin, 
 V. N. Staroverov, T. A. Keith, R. Kobayashi, J. Normand, 
 K. Raghavachari, A. P. Rendell, J. C. Burant, S. S. Iyengar, 
 J. Tomasi, M. Cossi, J. M. Millam, M. Klene, C. Adamo, R. Cammi, 
 J. W. Ochterski, R. L. Martin, K. Morokuma, O. Farkas, 
 J. B. Foresman, and D. J. Fox, Gaussian, Inc., Wallingford CT, 2016.
 
 ******************************************
 Gaussian 16:  ES64L-G16RevB.01 20-Dec-2017
                12-Jun-2018 
 ******************************************
 -----------------------------------------------------
 # opt td=(root=1) LC-BLYP/6-31+g(d) geom=connectivity
 -----------------------------------------------------
 1/18=20,19=15,26=3,38=1,57=2/1,3;
 2/9=110,12=2,17=6,18=5,40=1/2;
 3/5=1,6=6,7=11,11=9,25=1,30=1,71=1,74=1000402/1,2,3,8;
 4//1;
 5/5=2,38=5/2;
 8/6=1,10=2,107=1/1;
 9/8=1,15=2,42=1,70=2/14;
 10/5=4,28=1/2;
 6/7=2,8=2,9=2,10=2/1;
 7/12=6,13=5,14=1/1,2,3,16;
 1/18=20,19=15,26=3/3(2);
 2/9=110/2;
 99//99;
 2/9=110/2;
 3/5=1,6=6,7=11,11=9,25=1,30=1,71=1,74=1000402/1,2,3,8;
 4/5=5,16=3,69=1/1;
 5/5=2,38=5/2;
 8/6=1,10=2,107=1/1;
 9/8=1,15=2,42=1,49=4,70=2/14;
 10/5=4,28=1/2;
 7/12=6,13=5,14=1/1,2,3,16;
 1/18=20,19=15,26=3/3(-8);
 2/9=110/2;
 6/7=2,8=2,9=2,10=2/1;
 99/9=10/99;
 -------------------
 Title Card Required
 -------------------
 Symbolic Z-matrix:
 Charge =  0 Multiplicity = 1
 C                    -1.33996   2.08881   1.39456 
 H                    -2.21558   2.00585   2.00391 
 C                    -0.01363   2.0067    1.84698 
 H                     0.31448   1.85125   2.8535 
 C                     0.78597   2.16808   0.72372 
 C                     2.17136   2.17152   0.60581 
 C                     2.71529   2.36042  -0.68201 
 C                     1.85973   2.53856  -1.80247 
 C                     0.45733   2.52849  -1.63947 
 C                    -0.044     2.33966  -0.35507 
 H                     2.8014    2.03595   1.45997 
 H                     3.77686   2.3696   -0.81571 
 H                     2.2809    2.68121  -2.7757 
 H                    -0.19771   2.66151  -2.47501 
 N                    -1.32264   2.29058   0.0577 
 H                    -2.12783   2.38732  -0.52738 
 

 GradGradGradGradGradGradGradGradGradGradGradGradGradGradGradGradGradGrad
 Berny optimization.
 Initialization pass.
                           ----------------------------
                           !    Initial Parameters    !
                           ! (Angstroms and Degrees)  !
 --------------------------                            --------------------------
 ! Name  Definition              Value          Derivative Info.                !
 --------------------------------------------------------------------------------
 ! R1    R(1,2)                  1.07           estimate D2E/DX2                !
 ! R2    R(1,3)                  1.4038         estimate D2E/DX2                !
 ! R3    R(1,15)                 1.3521         estimate D2E/DX2                !
 ! R4    R(3,4)                  1.07           estimate D2E/DX2                !
 ! R5    R(3,5)                  1.3882         estimate D2E/DX2                !
 ! R6    R(5,6)                  1.3904         estimate D2E/DX2                !
 ! R7    R(5,10)                 1.3719         estimate D2E/DX2                !
 ! R8    R(6,7)                  1.4107         estimate D2E/DX2                !
 ! R9    R(6,11)                 1.07           estimate D2E/DX2                !
 ! R10   R(7,8)                  1.421          estimate D2E/DX2                !
 ! R11   R(7,12)                 1.07           estimate D2E/DX2                !
 ! R12   R(8,9)                  1.4119         estimate D2E/DX2                !
 ! R13   R(8,13)                 1.07           estimate D2E/DX2                !
 ! R14   R(9,10)                 1.3916         estimate D2E/DX2                !
 ! R15   R(9,14)                 1.07           estimate D2E/DX2                !
 ! R16   R(10,15)                1.3445         estimate D2E/DX2                !
 ! R17   R(15,16)                1.0            estimate D2E/DX2                !
 ! A1    A(2,1,3)              125.8112         estimate D2E/DX2                !
 ! A2    A(2,1,15)             125.8112         estimate D2E/DX2                !
 ! A3    A(3,1,15)             108.3775         estimate D2E/DX2                !
 ! A4    A(1,3,4)              126.9701         estimate D2E/DX2                !
 ! A5    A(1,3,5)              106.0599         estimate D2E/DX2                !
 ! A6    A(4,3,5)              126.9701         estimate D2E/DX2                !
 ! A7    A(3,5,6)              130.0024         estimate D2E/DX2                !
 ! A8    A(3,5,10)             107.5986         estimate D2E/DX2                !
 ! A9    A(6,5,10)             122.399          estimate D2E/DX2                !
 ! A10   A(5,6,7)              117.5116         estimate D2E/DX2                !
 ! A11   A(5,6,11)             121.2442         estimate D2E/DX2                !
 ! A12   A(7,6,11)             121.2442         estimate D2E/DX2                !
 ! A13   A(6,7,8)              120.2968         estimate D2E/DX2                !
 ! A14   A(6,7,12)             119.8516         estimate D2E/DX2                !
 ! A15   A(8,7,12)             119.8516         estimate D2E/DX2                !
 ! A16   A(7,8,9)              120.4065         estimate D2E/DX2                !
 ! A17   A(7,8,13)             119.7968         estimate D2E/DX2                !
 ! A18   A(9,8,13)             119.7968         estimate D2E/DX2                !
 ! A19   A(8,9,10)             117.732          estimate D2E/DX2                !
 ! A20   A(8,9,14)             121.134          estimate D2E/DX2                !
 ! A21   A(10,9,14)            121.134          estimate D2E/DX2                !
 ! A22   A(5,10,9)             121.6541         estimate D2E/DX2                !
 ! A23   A(5,10,15)            109.2304         estimate D2E/DX2                !
 ! A24   A(9,10,15)            129.1154         estimate D2E/DX2                !
 ! A25   A(1,15,10)            108.7335         estimate D2E/DX2                !
 ! A26   A(1,15,16)            125.6332         estimate D2E/DX2                !
 ! A27   A(10,15,16)           125.6332         estimate D2E/DX2                !
 ! D1    D(2,1,3,4)              0.0002         estimate D2E/DX2                !
 ! D2    D(2,1,3,5)           -179.9998         estimate D2E/DX2                !
 ! D3    D(15,1,3,4)           180.0            estimate D2E/DX2                !
 ! D4    D(15,1,3,5)             0.0            estimate D2E/DX2                !
 ! D5    D(2,1,15,10)          179.9998         estimate D2E/DX2                !
 ! D6    D(2,1,15,16)            0.0            estimate D2E/DX2                !
 ! D7    D(3,1,15,10)            0.0            estimate D2E/DX2                !
 ! D8    D(3,1,15,16)         -179.9998         estimate D2E/DX2                !
 ! D9    D(1,3,5,6)            179.9998         estimate D2E/DX2                !
 ! D10   D(1,3,5,10)             0.0            estimate D2E/DX2                !
 ! D11   D(4,3,5,6)             -0.0002         estimate D2E/DX2                !
 ! D12   D(4,3,5,10)          -180.0            estimate D2E/DX2                !
 ! D13   D(3,5,6,7)           -179.9998         estimate D2E/DX2                !
 ! D14   D(3,5,6,11)             0.0001         estimate D2E/DX2                !
 ! D15   D(10,5,6,7)             0.0            estimate D2E/DX2                !
 ! D16   D(10,5,6,11)          179.9998         estimate D2E/DX2                !
 ! D17   D(3,5,10,9)           179.9998         estimate D2E/DX2                !
 ! D18   D(3,5,10,15)            0.0            estimate D2E/DX2                !
 ! D19   D(6,5,10,9)             0.0            estimate D2E/DX2                !
 ! D20   D(6,5,10,15)         -179.9998         estimate D2E/DX2                !
 ! D21   D(5,6,7,8)              0.0            estimate D2E/DX2                !
 ! D22   D(5,6,7,12)          -180.0            estimate D2E/DX2                !
 ! D23   D(11,6,7,8)          -179.9998         estimate D2E/DX2                !
 ! D24   D(11,6,7,12)            0.0002         estimate D2E/DX2                !
 ! D25   D(6,7,8,9)              0.0001         estimate D2E/DX2                !
 ! D26   D(6,7,8,13)          -179.9998         estimate D2E/DX2                !
 ! D27   D(12,7,8,9)          -180.0            estimate D2E/DX2                !
 ! D28   D(12,7,8,13)            0.0001         estimate D2E/DX2                !
 ! D29   D(7,8,9,10)            -0.0001         estimate D2E/DX2                !
 ! D30   D(7,8,9,14)           180.0            estimate D2E/DX2                !
 ! D31   D(13,8,9,10)          179.9998         estimate D2E/DX2                !
 ! D32   D(13,8,9,14)           -0.0001         estimate D2E/DX2                !
 ! D33   D(8,9,10,5)             0.0001         estimate D2E/DX2                !
 ! D34   D(8,9,10,15)          179.9999         estimate D2E/DX2                !
 ! D35   D(14,9,10,5)          180.0            estimate D2E/DX2                !
 ! D36   D(14,9,10,15)          -0.0003         estimate D2E/DX2                !
 ! D37   D(5,10,15,1)            0.0            estimate D2E/DX2                !
 ! D38   D(5,10,15,16)         179.9998         estimate D2E/DX2                !
 ! D39   D(9,10,15,1)         -179.9998         estimate D2E/DX2                !
 ! D40   D(9,10,15,16)           0.0            estimate D2E/DX2                !
 --------------------------------------------------------------------------------
 Trust Radius=3.00D-01 FncErr=1.00D-07 GrdErr=1.00D-06 EigMax=2.50D+02 EigMin=1.00D-04
 Number of steps in this run=     94 maximum allowed number of steps=    100.
 GradGradGradGradGradGradGradGradGradGradGradGradGradGradGradGradGradGrad

                          Input orientation:                          
 ---------------------------------------------------------------------
 Center     Atomic      Atomic             Coordinates (Angstroms)
 Number     Number       Type             X           Y           Z
 ---------------------------------------------------------------------
      1          6           0       -1.339957    2.088809    1.394563
      2          1           0       -2.215576    2.005849    2.003915
      3          6           0       -0.013633    2.006700    1.846980
      4          1           0        0.314483    1.851247    2.853496
      5          6           0        0.785968    2.168085    0.723718
      6          6           0        2.171364    2.171521    0.605815
      7          6           0        2.715289    2.360423   -0.682013
      8          6           0        1.859731    2.538563   -1.802468
      9          6           0        0.457326    2.528493   -1.639472
     10          6           0       -0.043997    2.339664   -0.355067
     11          1           0        2.801396    2.035952    1.459970
     12          1           0        3.776863    2.369605   -0.815709
     13          1           0        2.280895    2.681211   -2.775696
     14          1           0       -0.197713    2.661512   -2.475014
     15          7           0       -1.322636    2.290581    0.057696
     16          1           0       -2.127826    2.387325   -0.527376
 ---------------------------------------------------------------------
                    Distance matrix (angstroms):
                    1          2          3          4          5
     1  C    0.000000
     2  H    1.070000   0.000000
     3  C    1.403766   2.207529   0.000000
     4  H    2.218579   2.673367   1.070000   0.000000
     5  C    2.230667   3.267184   1.388209   2.204231   0.000000
     6  C    3.599770   4.607317   2.518307   2.933027   1.390409
     7  C    4.564095   5.626131   3.737370   4.303829   2.394860
     8  C    4.545469   5.601826   4.136525   4.953604   2.769808
     9  C    3.553719   4.548827   3.556602   4.545968   2.413000
    10  C    2.191722   3.223659   2.227284   3.265261   1.371881
    11  H    4.142207   5.046463   2.841658   2.856705   2.149762
    12  H    5.580860   6.632641   4.646448   5.071473   3.369852
    13  H    5.554509   6.596896   5.204705   6.020250   3.839792
    14  H    4.075087   4.956053   4.375191   5.414045   3.382748
    15  N    1.352119   2.160135   2.235087   3.269506   2.214678
    16  H    2.098500   2.561378   3.201914   4.205062   3.178600
                    6          7          8          9         10
     6  C    0.000000
     7  C    1.410687   0.000000
     8  C    2.455944   1.420962   0.000000
     9  C    2.847222   2.458327   1.411882   0.000000
    10  C    2.420618   2.778666   2.399732   1.391646   0.000000
    11  H    1.070000   2.168130   3.432616   3.917117   3.388637
    12  H    2.153508   1.070000   2.162784   3.423910   3.848644
    13  H    3.421461   2.162200   1.070000   2.154004   3.373607
    14  H    3.917158   3.433815   2.168066   1.070000   2.149742
    15  N    3.538735   4.105713   3.694477   2.470879   1.344507
    16  H    4.451261   4.845657   4.189193   2.817746   2.091484
                   11         12         13         14         15
    11  H    0.000000
    12  H    2.498315   0.000000
    13  H    4.316034   2.485270   0.000000
    14  H    4.986991   4.316916   2.496858   0.000000
    15  N    4.363352   5.174357   4.600667   2.796008   0.000000
    16  H    5.326371   5.911751   4.957633   2.755686   1.000000
                   16
    16  H    0.000000
 Stoichiometry    C8H7N
 Framework group  C1[X(C8H7N)]
 Deg. of freedom    42
 Full point group                 C1      NOp   1
 Largest Abelian subgroup         C1      NOp   1
 Largest concise Abelian subgroup C1      NOp   1
                         Standard orientation:                         
 ---------------------------------------------------------------------
 Center     Atomic      Atomic             Coordinates (Angstroms)
 Number     Number       Type             X           Y           Z
 ---------------------------------------------------------------------
      1          6           0        2.360426    0.032633    0.000001
      2          1           0        3.430401    0.025257    0.000006
      3          6           0        1.546926    1.176650    0.000000
      4          1           0        1.870704    2.196487    0.000001
      5          6           0        0.237186    0.716536   -0.000002
      6          6           0       -0.959088    1.425172   -0.000001
      7          6           0       -2.157408    0.680814    0.000001
      8          6           0       -2.118961   -0.739628    0.000001
      9          6           0       -0.882385   -1.421016    0.000000
     10          6           0        0.279268   -0.654700   -0.000002
     11          1           0       -0.970350    2.495113    0.000002
     12          1           0       -3.099508    1.188107    0.000002
     13          1           0       -3.032773   -1.296266   -0.000001
     14          1           0       -0.839855   -2.490171    0.000001
     15          7           0        1.561740   -1.058388   -0.000000
     16          1           0        1.873421   -2.008575    0.000003
 ---------------------------------------------------------------------
 Rotational constants (GHZ):           3.9201898           1.6790815           1.1755669
 Standard basis: 6-31+G(d) (6D, 7F)
 There are   185 symmetry adapted cartesian basis functions of A   symmetry.
 There are   185 symmetry adapted basis functions of A   symmetry.
   185 basis functions,   316 primitive gaussians,   185 cartesian basis functions
    31 alpha electrons       31 beta electrons
       nuclear repulsion energy       404.0653087300 Hartrees.
 NAtoms=   16 NActive=   16 NUniq=   16 SFac= 1.00D+00 NAtFMM=   60 NAOKFM=F Big=F
 Integral buffers will be    131072 words long.
 Raffenetti 1 integral format.
 Two-electron integral symmetry is turned on.
 One-electron integrals computed using PRISM.
 NBasis=   185 RedAO= T EigKep=  1.24D-06  NBF=   185
 NBsUse=   185 1.00D-06 EigRej= -1.00D+00 NBFU=   185
 ExpMin= 4.38D-02 ExpMax= 4.17D+03 ExpMxC= 6.27D+02 IAcc=3 IRadAn=         5 AccDes= 0.00D+00
 Harris functional with IExCor=10402 and IRadAn=       5 diagonalized for initial guess.
 HarFok:  IExCor=10402 AccDes= 0.00D+00 IRadAn=         5 IDoV= 1 UseB2=F ITyADJ=14
 ICtDFT=  3500011 ScaDFX=  1.000000  1.000000  1.000000  1.000000
 FoFCou: FMM=F IPFlag=           0 FMFlag=      100000 FMFlg1=           0
         NFxFlg=           0 DoJE=T BraDBF=F KetDBF=T FulRan=T
         wScrn=  0.000000 ICntrl=       500 IOpCl=  0 I1Cent=   200000004 NGrid=           0
         NMat0=    1 NMatS0=      1 NMatT0=    0 NMatD0=    1 NMtDS0=    0 NMtDT0=    0
 Petite list used in FoFCou.
 Requested convergence on RMS density matrix=1.00D-08 within 128 cycles.
 Requested convergence on MAX density matrix=1.00D-06.
 Requested convergence on             energy=1.00D-06.
 No special actions if energy rises.
 SCF Done:  E(RLC-B+HF-LYP) =  -362.725123602     A.U. after   16 cycles
            NFock= 16  Conv=0.71D-08     -V/T= 2.0082
 DoSCS=F DFT=T ScalE2(SS,OS)=  1.000000  1.000000
 ExpMin= 4.38D-02 ExpMax= 4.17D+03 ExpMxC= 6.27D+02 IAcc=3 IRadAn=         5 AccDes= 0.00D+00
 HarFok:  IExCor=  205 AccDes= 0.00D+00 IRadAn=         5 IDoV=-2 UseB2=F ITyADJ=14
 ICtDFT= 12500011 ScaDFX=  1.000000  1.000000  1.000000  1.000000
 Range of M.O.s used for correlation:    10   185
 NBasis=   185 NAE=    31 NBE=    31 NFC=     9 NFV=     0
 NROrb=    176 NOA=    22 NOB=    22 NVA=   154 NVB=   154

 **** Warning!!: The largest alpha MO coefficient is  0.18975588D+03

 Orbital symmetries:
       Occupied  (A) (A) (A) (A) (A) (A) (A) (A) (A) (A) (A) (A)
                 (A) (A) (A) (A) (A) (A) (A) (A) (A) (A) (A) (A)
                 (A) (A) (A) (A) (A) (A) (A)
       Virtual   (A) (A) (A) (A) (A) (A) (A) (A) (A) (A) (A) (A)
                 (A) (A) (A) (A) (A) (A) (A) (A) (A) (A) (A) (A)
                 (A) (A) (A) (A) (A) (A) (A) (A) (A) (A) (A) (A)
                 (A) (A) (A) (A) (A) (A) (A) (A) (A) (A) (A) (A)
                 (A) (A) (A) (A) (A) (A) (A) (A) (A) (A) (A) (A)
                 (A) (A) (A) (A) (A) (A) (A) (A) (A) (A) (A) (A)
                 (A) (A) (A) (A) (A) (A) (A) (A) (A) (A) (A) (A)
                 (A) (A) (A) (A) (A) (A) (A) (A) (A) (A) (A) (A)
                 (A) (A) (A) (A) (A) (A) (A) (A) (A) (A) (A) (A)
                 (A) (A) (A) (A) (A) (A) (A) (A) (A) (A) (A) (A)
                 (A) (A) (A) (A) (A) (A) (A) (A) (A) (A) (A) (A)
                 (A) (A) (A) (A) (A) (A) (A) (A) (A) (A) (A) (A)
                 (A) (A) (A) (A) (A) (A) (A) (A) (A) (A)
    12 initial guesses have been made.
 Convergence on wavefunction:    0.000001000000000
 Iteration     1 Dimension    12 NMult     0 NNew     12
 CISAX will form    12 AO SS matrices at one time.
 New state      1 was old state      8
 New state      2 was old state      1
 New state      3 was old state      2
 Iteration     2 Dimension    18 NMult    12 NNew      6
 New state      2 was old state      3
 New state      3 was old state      2
 Iteration     3 Dimension    24 NMult    18 NNew      6
 Iteration     4 Dimension    30 NMult    24 NNew      6
 Iteration     5 Dimension    36 NMult    30 NNew      6
 Iteration     6 Dimension    42 NMult    36 NNew      6
 Iteration     7 Dimension    48 NMult    42 NNew      6
 Iteration     8 Dimension    54 NMult    48 NNew      6
 Iteration     9 Dimension    60 NMult    54 NNew      6
 Iteration    10 Dimension    66 NMult    60 NNew      6
 Iteration    11 Dimension    72 NMult    66 NNew      6
 Iteration    12 Dimension    78 NMult    72 NNew      6
 Iteration    13 Dimension    82 NMult    78 NNew      4
 ***********************************************************************
 Excited states from <AA,BB:AA,BB> singles matrix:
 ***********************************************************************
 
 Ground to excited state transition densities written to RWF  633
 Ground to excited state transition electric dipole moments (Au):
       state          X           Y           Z        Dip. S.      Osc.
         1        -0.9133      0.6954     -0.0000      1.3178      0.1646
         2        -0.2978     -0.4180      0.0000      0.2634      0.0336
         3         0.0000     -0.0000     -0.2325      0.0541      0.0074
 Ground to excited state transition velocity dipole moments (Au):
       state          X           Y           Z        Dip. S.      Osc.
         1         0.1571     -0.1375      0.0000      0.0436      0.1551
         2         0.0544      0.0833     -0.0000      0.0099      0.0345
         3        -0.0000      0.0000      0.0382      0.0015      0.0047
 Ground to excited state transition magnetic dipole moments (Au):
       state          X           Y           Z
         1         0.0000     -0.0000      0.2156
         2        -0.0000      0.0000     -0.1266
         3         0.1351     -0.1784      0.0000
 Ground to excited state transition velocity quadrupole moments (Au):
       state          XX          YY          ZZ          XY          XZ          YZ
         1         0.2706     -0.1903      0.0279      0.0104     -0.0000      0.0000
         2        -0.0427     -0.0544      0.0123     -0.0163     -0.0000     -0.0000
         3        -0.0000      0.0000      0.0000      0.0000      0.1549      0.0480
 <0|del|b> * <b|rxdel|0> + <0|del|b> * <b|delr+rdel|0>
 Rotatory Strengths (R) in cgs (10**-40 erg-esu-cm/Gauss)
       state          XX          YY          ZZ    R(velocity)    E-M Angle
         1         0.0001      0.0007      0.0005      0.0004       90.00
         2         0.0001     -0.0000     -0.0000      0.0000       90.00
         3         0.0001     -0.0001     -0.0001     -0.0000       90.00
 1/2[<0|r|b>*<b|rxdel|0> + (<0|rxdel|b>*<b|r|0>)*]
 Rotatory Strengths (R) in cgs (10**-40 erg-esu-cm/Gauss)
       state          XX          YY          ZZ     R(length)
         1         0.0011      0.0001      0.0002      0.0005
         2        -0.0001      0.0000      0.0001      0.0000
         3        -0.0003     -0.0001      0.0004     -0.0000
  1/2[<0|del|b>*<b|r|0> + (<0|r|b>*<b|del|0>)*] (Au)
       state          X           Y           Z        Dip. S.   Osc.(frdel)
         1        -0.1435     -0.0956     -0.0000      0.2391      0.1594
         2        -0.0162     -0.0348     -0.0000      0.0510      0.0340
         3        -0.0000     -0.0000     -0.0089      0.0089      0.0059

 Excitation energies and oscillator strengths:
 
 Excited State   1:      Singlet-A      5.0985 eV  243.18 nm  f=0.1646  <S**2>=0.000
      30 -> 38         0.16717
      31 -> 33         0.65334
      31 -> 38        -0.10859
 This state for optimization and/or second-order correction.
 Total Energy, E(TD-HF/TD-DFT) =  -362.537758820    
 Copying the excited state density for this state as the 1-particle RhoCI density.
 
 Excited State   2:      Singlet-A      5.2021 eV  238.33 nm  f=0.0336  <S**2>=0.000
      30 -> 33         0.56310
      31 -> 33        -0.11844
      31 -> 38        -0.31625
      31 -> 43         0.12445
 
 Excited State   3:      Singlet-A      5.6181 eV  220.69 nm  f=0.0074  <S**2>=0.000
      31 -> 32         0.65978
      31 -> 40        -0.13146
 SavETr:  write IOETrn=   770 NScale= 10 NData=  16 NLR=1 NState=    3 LETran=      64.
          IDoAtm=1111111111111111
          Differentiating once with respect to electric field.
                with respect to dipole field.
          Differentiating once with respect to nuclear coordinates.
          There are     1 degrees of freedom in the 1st order CPHF.  IDoFFX=0 NUNeed=     1.
 LinEq1:  Iter=  0 NonCon=     1 RMS=4.18D-03 Max=7.42D-02 NDo=     1
 AX will form     1 AO Fock derivatives at one time.
 LinEq1:  Iter=  1 NonCon=     1 RMS=1.93D-03 Max=5.49D-02 NDo=     1
 LinEq1:  Iter=  2 NonCon=     1 RMS=6.26D-04 Max=1.02D-02 NDo=     1
 LinEq1:  Iter=  3 NonCon=     1 RMS=3.72D-04 Max=1.23D-02 NDo=     1
 LinEq1:  Iter=  4 NonCon=     1 RMS=1.49D-04 Max=3.65D-03 NDo=     1
 LinEq1:  Iter=  5 NonCon=     1 RMS=6.03D-05 Max=1.75D-03 NDo=     1
 LinEq1:  Iter=  6 NonCon=     1 RMS=2.73D-05 Max=7.49D-04 NDo=     1
 LinEq1:  Iter=  7 NonCon=     1 RMS=1.29D-05 Max=2.46D-04 NDo=     1
 LinEq1:  Iter=  8 NonCon=     1 RMS=5.09D-06 Max=1.17D-04 NDo=     1
 LinEq1:  Iter=  9 NonCon=     1 RMS=1.59D-06 Max=3.07D-05 NDo=     1
 LinEq1:  Iter= 10 NonCon=     1 RMS=8.63D-07 Max=2.08D-05 NDo=     1
 LinEq1:  Iter= 11 NonCon=     1 RMS=2.94D-07 Max=6.91D-06 NDo=     1
 LinEq1:  Iter= 12 NonCon=     1 RMS=1.28D-07 Max=2.28D-06 NDo=     1
 LinEq1:  Iter= 13 NonCon=     1 RMS=4.32D-08 Max=7.66D-07 NDo=     1
 LinEq1:  Iter= 14 NonCon=     1 RMS=1.08D-08 Max=1.44D-07 NDo=     1
 LinEq1:  Iter= 15 NonCon=     1 RMS=4.98D-09 Max=6.81D-08 NDo=     1
 LinEq1:  Iter= 16 NonCon=     1 RMS=1.25D-09 Max=1.61D-08 NDo=     1
 LinEq1:  Iter= 17 NonCon=     1 RMS=3.15D-10 Max=6.05D-09 NDo=     1
 LinEq1:  Iter= 18 NonCon=     1 RMS=1.44D-10 Max=2.33D-09 NDo=     1
 LinEq1:  Iter= 19 NonCon=     0 RMS=3.23D-11 Max=6.01D-10 NDo=     1
 Linear equations converged to 1.000D-10 1.000D-09 after    19 iterations.
 End of Minotr F.D. properties file   721 does not exist.
 End of Minotr F.D. properties file   722 does not exist.
 End of Minotr F.D. properties file   788 does not exist.

 **********************************************************************

            Population analysis using the SCF Density.

 **********************************************************************

 Orbital symmetries:
       Occupied  (A) (A) (A) (A) (A) (A) (A) (A) (A) (A) (A) (A)
                 (A) (A) (A) (A) (A) (A) (A) (A) (A) (A) (A) (A)
                 (A) (A) (A) (A) (A) (A) (A)
       Virtual   (A) (A) (A) (A) (A) (A) (A) (A) (A) (A) (A) (A)
                 (A) (A) (A) (A) (A) (A) (A) (A) (A) (A) (A) (A)
                 (A) (A) (A) (A) (A) (A) (A) (A) (A) (A) (A) (A)
                 (A) (A) (A) (A) (A) (A) (A) (A) (A) (A) (A) (A)
                 (A) (A) (A) (A) (A) (A) (A) (A) (A) (A) (A) (A)
                 (A) (A) (A) (A) (A) (A) (A) (A) (A) (A) (A) (A)
                 (A) (A) (A) (A) (A) (A) (A) (A) (A) (A) (A) (A)
                 (A) (A) (A) (A) (A) (A) (A) (A) (A) (A) (A) (A)
                 (A) (A) (A) (A) (A) (A) (A) (A) (A) (A) (A) (A)
                 (A) (A) (A) (A) (A) (A) (A) (A) (A) (A) (A) (A)
                 (A) (A) (A) (A) (A) (A) (A) (A) (A) (A) (A) (A)
                 (A) (A) (A) (A) (A) (A) (A) (A) (A) (A) (A) (A)
                 (A) (A) (A) (A) (A) (A) (A) (A) (A) (A)
 The electronic state is 1-A.
 Alpha  occ. eigenvalues --  -14.30978 -10.19538 -10.18543 -10.16291 -10.15987
 Alpha  occ. eigenvalues --  -10.15681 -10.15451 -10.14537 -10.14157  -1.17292
 Alpha  occ. eigenvalues --   -1.01523  -0.95661  -0.90370  -0.87699  -0.78727
 Alpha  occ. eigenvalues --   -0.75312  -0.73482  -0.69335  -0.63035  -0.61193
 Alpha  occ. eigenvalues --   -0.58417  -0.57807  -0.57003  -0.54078  -0.52494
 Alpha  occ. eigenvalues --   -0.48102  -0.46912  -0.46628  -0.40089  -0.32861
 Alpha  occ. eigenvalues --   -0.29998
 Alpha virt. eigenvalues --    0.04485   0.05638   0.06409   0.06845   0.08140
 Alpha virt. eigenvalues --    0.08474   0.10124   0.10507   0.10701   0.10956
 Alpha virt. eigenvalues --    0.11542   0.11770   0.13707   0.14756   0.14856
 Alpha virt. eigenvalues --    0.15110   0.16632   0.17950   0.19324   0.19397
 Alpha virt. eigenvalues --    0.20507   0.21252   0.21814   0.22778   0.22969
 Alpha virt. eigenvalues --    0.24143   0.24380   0.24937   0.26180   0.26546
 Alpha virt. eigenvalues --    0.27627   0.27840   0.28410   0.29218   0.29875
 Alpha virt. eigenvalues --    0.30636   0.31125   0.32091   0.32735   0.32940
 Alpha virt. eigenvalues --    0.34582   0.35686   0.37868   0.38224   0.39534
 Alpha virt. eigenvalues --    0.41008   0.41190   0.42602   0.45587   0.46729
 Alpha virt. eigenvalues --    0.47832   0.51488   0.55845   0.57897   0.63719
 Alpha virt. eigenvalues --    0.70858   0.75732   0.78619   0.79051   0.81261
 Alpha virt. eigenvalues --    0.83147   0.83429   0.84909   0.85378   0.85914
 Alpha virt. eigenvalues --    0.86770   0.88978   0.89105   0.91040   0.91449
 Alpha virt. eigenvalues --    0.93788   0.97149   1.00788   1.01094   1.03644
 Alpha virt. eigenvalues --    1.06291   1.07165   1.08053   1.08066   1.11578
 Alpha virt. eigenvalues --    1.11927   1.15223   1.17272   1.18471   1.21026
 Alpha virt. eigenvalues --    1.24172   1.25418   1.29684   1.30739   1.33664
 Alpha virt. eigenvalues --    1.35824   1.37515   1.38068   1.44671   1.46802
 Alpha virt. eigenvalues --    1.49819   1.50140   1.56425   1.56629   1.58788
 Alpha virt. eigenvalues --    1.61352   1.62219   1.64676   1.65747   1.67178
 Alpha virt. eigenvalues --    1.73294   1.79717   1.94627   2.00091   2.06278
 Alpha virt. eigenvalues --    2.06948   2.08962   2.11338   2.14911   2.16844
 Alpha virt. eigenvalues --    2.18175   2.21428   2.27058   2.28264   2.30990
 Alpha virt. eigenvalues --    2.33664   2.35187   2.39821   2.40774   2.41994
 Alpha virt. eigenvalues --    2.45907   2.47696   2.53829   2.57100   2.62969
 Alpha virt. eigenvalues --    2.72608   2.75334   2.77677   2.80570   2.83748
 Alpha virt. eigenvalues --    2.84760   2.87851   2.98607   2.99555   3.00426
 Alpha virt. eigenvalues --    3.09530   3.14051   3.29598   3.43084   3.62045
 Alpha virt. eigenvalues --    4.29964   4.37327   4.40792   4.44345   4.49307
 Alpha virt. eigenvalues --    4.53573   4.60688   4.65155   4.93040
          Condensed to atoms (all electrons):
               1          2          3          4          5          6
     1  C    6.465930   0.402847  -2.218599  -0.080852   2.207900   0.553039
     2  H    0.402847   0.487491  -0.088302  -0.000656  -0.012462  -0.024988
     3  C   -2.218599  -0.088302  12.981647   0.449581  -5.813825  -2.062927
     4  H   -0.080852  -0.000656   0.449581   0.501102  -0.127845  -0.082736
     5  C    2.207900  -0.012462  -5.813825  -0.127845  15.555898  -0.220960
     6  C    0.553039  -0.024988  -2.062927  -0.082736  -0.220960  11.535328
     7  C   -0.046862   0.000489   0.095193   0.001075  -0.316672   0.448505
     8  C    0.054252   0.000871  -0.205808   0.000845  -0.613584   0.390927
     9  C   -1.242219   0.013867   3.036421   0.007956  -3.581395  -2.146493
    10  C   -0.261188   0.071269   0.266348   0.123704  -3.097823  -2.280276
    11  H    0.005235  -0.000003  -0.066525   0.001848   0.042635   0.303305
    12  H    0.000737  -0.000000  -0.005434  -0.000002   0.033844  -0.036523
    13  H    0.002019  -0.000000  -0.003571   0.000000  -0.004725   0.036193
    14  H    0.010872   0.000002  -0.012209   0.000002   0.029430  -0.018936
    15  N    0.462375  -0.054355  -0.439317   0.008206   0.536937   0.146065
    16  H   -0.015906  -0.002525  -0.008431  -0.000085   0.249561   0.043581
               7          8          9         10         11         12
     1  C   -0.046862   0.054252  -1.242219  -0.261188   0.005235   0.000737
     2  H    0.000489   0.000871   0.013867   0.071269  -0.000003  -0.000000
     3  C    0.095193  -0.205808   3.036421   0.266348  -0.066525  -0.005434
     4  H    0.001075   0.000845   0.007956   0.123704   0.001848  -0.000002
     5  C   -0.316672  -0.613584  -3.581395  -3.097823   0.042635   0.033844
     6  C    0.448505   0.390927  -2.146493  -2.280276   0.303305  -0.036523
     7  C    5.259372   0.540318   0.041565  -0.239320  -0.016877   0.339238
     8  C    0.540318   5.352625   0.268831   0.353803   0.024692  -0.033097
     9  C    0.041565   0.268831  12.801713  -2.691056  -0.049796   0.020482
    10  C   -0.239320   0.353803  -2.691056  14.827387   0.049685  -0.011879
    11  H   -0.016877   0.024692  -0.049796   0.049685   0.516371  -0.002900
    12  H    0.339238  -0.033097   0.020482  -0.011879  -0.002900   0.515547
    13  H   -0.040481   0.331543  -0.048777   0.035900  -0.000128  -0.003509
    14  H    0.019856   0.004892   0.280499  -0.019525   0.000016  -0.000132
    15  N   -0.013751  -0.006323  -0.389390  -0.285519  -0.000457   0.000227
    16  H   -0.004181  -0.011181  -0.171873  -0.139361   0.000004  -0.000000
              13         14         15         16
     1  C    0.002019   0.010872   0.462375  -0.015906
     2  H   -0.000000   0.000002  -0.054355  -0.002525
     3  C   -0.003571  -0.012209  -0.439317  -0.008431
     4  H    0.000000   0.000002   0.008206  -0.000085
     5  C   -0.004725   0.029430   0.536937   0.249561
     6  C    0.036193  -0.018936   0.146065   0.043581
     7  C   -0.040481   0.019856  -0.013751  -0.004181
     8  C    0.331543   0.004892  -0.006323  -0.011181
     9  C   -0.048777   0.280499  -0.389390  -0.171873
    10  C    0.035900  -0.019525  -0.285519  -0.139361
    11  H   -0.000128   0.000016  -0.000457   0.000004
    12  H   -0.003509  -0.000132   0.000227  -0.000000
    13  H    0.514130  -0.003247  -0.000386  -0.000002
    14  H   -0.003247   0.525989  -0.004299   0.002040
    15  N   -0.000386  -0.004299   7.292200   0.292617
    16  H   -0.000002   0.002040   0.292617   0.343913
 Mulliken charges:
               1
     1  C   -0.299581
     2  H    0.206454
     3  C    0.095760
     4  H    0.197858
     5  C    1.133085
     6  C   -0.583104
     7  C   -0.067468
     8  C   -0.453607
     9  C   -0.150336
    10  C   -0.702149
    11  H    0.192894
    12  H    0.183402
    13  H    0.185041
    14  H    0.184750
    15  N   -0.544830
    16  H    0.421829
 Sum of Mulliken charges =  -0.00000
 Mulliken charges with hydrogens summed into heavy atoms:
               1
     1  C   -0.093127
     3  C    0.293618
     5  C    1.133085
     6  C   -0.390209
     7  C    0.115935
     8  C   -0.268565
     9  C    0.034414
    10  C   -0.702149
    15  N   -0.123001
 Electronic spatial extent (au):  <R**2>=            990.9832
 Charge=             -0.0000 electrons
 Dipole moment (field-independent basis, Debye):
    X=              1.5587    Y=             -1.6141    Z=              0.0000  Tot=              2.2438
 Quadrupole moment (field-independent basis, Debye-Ang):
   XX=            -45.6624   YY=            -44.3537   ZZ=            -58.8876
   XY=             -3.4369   XZ=              0.0000   YZ=             -0.0000
 Traceless Quadrupole moment (field-independent basis, Debye-Ang):
   XX=              3.9721   YY=              5.2809   ZZ=             -9.2530
   XY=             -3.4369   XZ=              0.0000   YZ=             -0.0000
 Octapole moment (field-independent basis, Debye-Ang**2):
  XXX=             14.3496  YYY=            -10.1230  ZZZ=              0.0000  XYY=              7.9959
  XXY=             -8.3754  XXZ=              0.0001  XZZ=              2.3889  YZZ=             -2.1383
  YYZ=              0.0001  XYZ=             -0.0000
 Hexadecapole moment (field-independent basis, Debye-Ang**3):
 XXXX=           -800.2898 YYYY=           -369.3693 ZZZZ=            -74.2812 XXXY=            -20.3359
 XXXZ=              0.0004 YYYX=            -21.3828 YYYZ=              0.0000 ZZZX=              0.0000
 ZZZY=              0.0000 XXYY=           -195.3758 XXZZ=           -187.0060 YYZZ=            -94.0628
 XXYZ=              0.0000 YYXZ=              0.0001 ZZXY=             -4.4605
 N-N= 4.040653087300D+02 E-N=-1.650178882353D+03  KE= 3.597854910663D+02
 Calling FoFJK, ICntrl=  10005127 FMM=F ISym2X=0 I1Cent= 0 IOpClX= 0 NMat=1 NMatS=1 NMatT=0.
 ***** Axes restored to original set *****
 -------------------------------------------------------------------
 Center     Atomic                   Forces (Hartrees/Bohr)
 Number     Number              X              Y              Z
 -------------------------------------------------------------------
      1        6          -0.009064752   -0.000095222    0.001254571
      2        1          -0.011699857    0.000497383   -0.002489214
      3        6           0.002618095    0.002669877   -0.017855393
      4        1           0.000046452   -0.001274281    0.008432275
      5        6          -0.003485689   -0.006167904    0.041069063
      6        6           0.029093933    0.002746778   -0.020179347
      7        6          -0.030567831    0.004030995   -0.024585054
      8        6           0.036983489   -0.006670108    0.041613279
      9        6          -0.021585579   -0.001365990    0.010523821
     10        6           0.025056739    0.007941147   -0.054288212
     11        1           0.005796430   -0.001324861    0.008371607
     12        1           0.010182092    0.000290374   -0.002621555
     13        1           0.004177953    0.001417448   -0.009669691
     14        1          -0.006252916    0.001449118   -0.009162918
     15        7          -0.023126716   -0.005069079    0.035144198
     16        1          -0.008171843    0.000924326   -0.005557432
 -------------------------------------------------------------------
 Cartesian Forces:  Max     0.054288212 RMS     0.017615519

 GradGradGradGradGradGradGradGradGradGradGradGradGradGradGradGradGradGrad
 Berny optimization.
 FormGI is forming the generalized inverse of G from B-inverse, IUseBI=4.
 Internal  Forces:  Max     0.038247509 RMS     0.009304912
 Search for a local minimum.
 Step number   1 out of a maximum of   94
 All quantities printed in internal units (Hartrees-Bohrs-Radians)
 Mixed Optimization -- RFO/linear search
 Second derivative matrix not updated -- first step.
 ITU=  0
     Eigenvalues ---    0.01860   0.01895   0.01902   0.02068   0.02080
     Eigenvalues ---    0.02086   0.02127   0.02200   0.02213   0.02278
     Eigenvalues ---    0.02323   0.02358   0.02380   0.16000   0.16000
     Eigenvalues ---    0.16000   0.16000   0.16000   0.16000   0.16000
     Eigenvalues ---    0.22000   0.22203   0.22697   0.24057   0.24673
     Eigenvalues ---    0.37230   0.37230   0.37230   0.37230   0.37230
     Eigenvalues ---    0.37230   0.38960   0.40898   0.41789   0.43284
     Eigenvalues ---    0.43732   0.46001   0.46371   0.47688   0.47929
     Eigenvalues ---    0.52579   0.54391
 RFO step:  Lambda=-1.73167386D-02 EMin= 1.86035355D-02
 Linear search not attempted -- first point.
 Iteration  1 RMS(Cart)=  0.03672698 RMS(Int)=  0.00043698
 Iteration  2 RMS(Cart)=  0.00050964 RMS(Int)=  0.00008429
 Iteration  3 RMS(Cart)=  0.00000022 RMS(Int)=  0.00008429
 Variable       Old X    -DE/DX   Delta X   Delta X   Delta X     New X
                                 (Linear)    (Quad)   (Total)
    R1        2.02201   0.00812   0.00000   0.02084   0.02084   2.04284
    R2        2.65273   0.01575   0.00000   0.02766   0.02750   2.68024
    R3        2.55513  -0.00792   0.00000  -0.01659  -0.01674   2.53840
    R4        2.02201   0.00813   0.00000   0.02087   0.02087   2.04288
    R5        2.62333   0.00706   0.00000   0.01381   0.01385   2.63719
    R6        2.62749   0.03240   0.00000   0.06931   0.06933   2.69682
    R7        2.59248   0.02745   0.00000   0.06206   0.06238   2.65486
    R8        2.66581  -0.00029   0.00000  -0.00266  -0.00277   2.66304
    R9        2.02201   0.01026   0.00000   0.02634   0.02634   2.04835
   R10        2.68523  -0.03127   0.00000  -0.07640  -0.07652   2.60871
   R11        2.02201   0.01043   0.00000   0.02677   0.02677   2.04878
   R12        2.66807   0.02340   0.00000   0.04824   0.04821   2.71628
   R13        2.02201   0.01063   0.00000   0.02728   0.02728   2.04929
   R14        2.62983  -0.00810   0.00000  -0.01459  -0.01448   2.61535
   R15        2.02201   0.01116   0.00000   0.02865   0.02865   2.05066
   R16        2.54075   0.03825   0.00000   0.06931   0.06937   2.61012
   R17        1.88973   0.00992   0.00000   0.02007   0.02007   1.90980
    A1        2.19582   0.01015   0.00000   0.06242   0.06253   2.25835
    A2        2.19582  -0.00764   0.00000  -0.03792  -0.03780   2.15802
    A3        1.89154  -0.00252   0.00000  -0.02449  -0.02473   1.86681
    A4        2.21605  -0.00857   0.00000  -0.03497  -0.03494   2.18110
    A5        1.85109   0.01194   0.00000   0.04062   0.04057   1.89166
    A6        2.21605  -0.00337   0.00000  -0.00565  -0.00562   2.21042
    A7        2.26897   0.01770   0.00000   0.05300   0.05277   2.32173
    A8        1.87795  -0.00628   0.00000  -0.02154  -0.02137   1.85658
    A9        2.13627  -0.01141   0.00000  -0.03146  -0.03140   2.10487
   A10        2.05096  -0.00152   0.00000  -0.00163  -0.00168   2.04928
   A11        2.11611   0.00045   0.00000  -0.00093  -0.00090   2.11521
   A12        2.11611   0.00107   0.00000   0.00256   0.00258   2.11869
   A13        2.09958   0.00566   0.00000   0.01198   0.01179   2.11137
   A14        2.09180  -0.00147   0.00000   0.00167   0.00177   2.09357
   A15        2.09181  -0.00419   0.00000  -0.01365  -0.01356   2.07825
   A16        2.10149   0.01087   0.00000   0.03148   0.03138   2.13287
   A17        2.09085  -0.00543   0.00000  -0.01570  -0.01565   2.07519
   A18        2.09085  -0.00544   0.00000  -0.01577  -0.01572   2.07512
   A19        2.05481  -0.00512   0.00000  -0.02173  -0.02159   2.03322
   A20        2.11419   0.00182   0.00000   0.00668   0.00661   2.12079
   A21        2.11419   0.00330   0.00000   0.01506   0.01499   2.12917
   A22        2.12327   0.00153   0.00000   0.01136   0.01150   2.13477
   A23        1.90643  -0.00958   0.00000  -0.02577  -0.02563   1.88080
   A24        2.25349   0.00806   0.00000   0.01441   0.01413   2.26762
   A25        1.89776   0.00644   0.00000   0.03119   0.03116   1.92892
   A26        2.19271  -0.00351   0.00000  -0.01724  -0.01723   2.17548
   A27        2.19271  -0.00293   0.00000  -0.01394  -0.01393   2.17879
    D1        0.00000  -0.00000   0.00000  -0.00000  -0.00000   0.00000
    D2       -3.14159  -0.00000   0.00000  -0.00000  -0.00000  -3.14159
    D3        3.14159   0.00000   0.00000   0.00000   0.00000  -3.14159
    D4       -0.00000   0.00000   0.00000   0.00000   0.00000   0.00000
    D5        3.14159   0.00000   0.00000   0.00000   0.00000   3.14159
    D6        0.00000   0.00000   0.00000   0.00000   0.00000   0.00000
    D7        0.00000  -0.00000   0.00000  -0.00000  -0.00000  -0.00000
    D8       -3.14159  -0.00000   0.00000  -0.00000  -0.00000  -3.14159
    D9        3.14159  -0.00000   0.00000  -0.00000  -0.00000   3.14159
   D10        0.00000  -0.00000   0.00000  -0.00000  -0.00000  -0.00000
   D11       -0.00000  -0.00000   0.00000   0.00000   0.00000  -0.00000
   D12       -3.14159  -0.00000   0.00000  -0.00000  -0.00000  -3.14159
   D13       -3.14159  -0.00000   0.00000  -0.00000  -0.00000  -3.14159
   D14        0.00000   0.00000   0.00000   0.00000   0.00000   0.00000
   D15       -0.00000  -0.00000   0.00000  -0.00000  -0.00000  -0.00000
   D16        3.14159   0.00000   0.00000   0.00000   0.00000   3.14159
   D17        3.14159   0.00000   0.00000   0.00000   0.00000   3.14159
   D18       -0.00000   0.00000   0.00000   0.00000   0.00000   0.00000
   D19       -0.00000   0.00000   0.00000   0.00000   0.00000   0.00000
   D20       -3.14159  -0.00000   0.00000  -0.00000  -0.00000  -3.14159
   D21       -0.00000   0.00000   0.00000   0.00000   0.00000   0.00000
   D22       -3.14159   0.00000   0.00000   0.00000   0.00000  -3.14159
   D23       -3.14159  -0.00000   0.00000  -0.00000  -0.00000  -3.14159
   D24        0.00000  -0.00000   0.00000  -0.00000  -0.00000   0.00000
   D25        0.00000  -0.00000   0.00000  -0.00000  -0.00000   0.00000
   D26       -3.14159  -0.00000   0.00000  -0.00000  -0.00000  -3.14159
   D27       -3.14159  -0.00000   0.00000  -0.00000  -0.00000  -3.14159
   D28        0.00000  -0.00000   0.00000  -0.00000  -0.00000   0.00000
   D29       -0.00000   0.00000   0.00000   0.00000   0.00000  -0.00000
   D30        3.14159  -0.00000   0.00000  -0.00000  -0.00000   3.14159
   D31        3.14159   0.00000   0.00000   0.00000   0.00000   3.14159
   D32       -0.00000   0.00000   0.00000   0.00000   0.00000  -0.00000
   D33        0.00000  -0.00000   0.00000  -0.00000  -0.00000   0.00000
   D34        3.14159   0.00000   0.00000   0.00000   0.00000   3.14159
   D35        3.14159   0.00000   0.00000   0.00000   0.00000  -3.14159
   D36       -0.00000   0.00000   0.00000   0.00000   0.00000  -0.00000
   D37        0.00000  -0.00000   0.00000   0.00000   0.00000   0.00000
   D38        3.14159   0.00000   0.00000   0.00000   0.00000   3.14159
   D39       -3.14159  -0.00000   0.00000  -0.00000  -0.00000  -3.14159
   D40        0.00000  -0.00000   0.00000  -0.00000  -0.00000   0.00000
         Item               Value     Threshold  Converged?
 Maximum Force            0.038248     0.000450     NO 
 RMS     Force            0.009305     0.000300     NO 
 Maximum Displacement     0.148666     0.001800     NO 
 RMS     Displacement     0.036511     0.001200     NO 
 Predicted change in Energy=-9.043487D-03
 GradGradGradGradGradGradGradGradGradGradGradGradGradGradGradGradGradGrad

                          Input orientation:                          
 ---------------------------------------------------------------------
 Center     Atomic      Atomic             Coordinates (Angstroms)
 Number     Number       Type             X           Y           Z
 ---------------------------------------------------------------------
      1          6           0       -1.379376    2.086332    1.413670
      2          1           0       -2.294247    2.009611    1.984408
      3          6           0       -0.033809    2.005730    1.854785
      4          1           0        0.274042    1.847817    2.878967
      5          6           0        0.802228    2.164147    0.748675
      6          6           0        2.220849    2.172849    0.593628
      7          6           0        2.730336    2.363936   -0.706301
      8          6           0        1.883679    2.535386   -1.783087
      9          6           0        0.453286    2.528845   -1.641525
     10          6           0       -0.039673    2.340679   -0.362073
     11          1           0        2.879354    2.037568    1.443920
     12          1           0        3.801810    2.377720   -0.871149
     13          1           0        2.312051    2.679846   -2.768800
     14          1           0       -0.201860    2.664705   -2.495868
     15          7           0       -1.345120    2.286561    0.085857
     16          1           0       -2.161574    2.383806   -0.501770
 ---------------------------------------------------------------------
                    Distance matrix (angstroms):
                    1          2          3          4          5
     1  C    0.000000
     2  H    1.081026   0.000000
     3  C    1.418320   2.264155   0.000000
     4  H    2.222110   2.724430   1.081044   0.000000
     5  C    2.282031   3.337525   1.395540   2.217473   0.000000
     6  C    3.693450   4.727262   2.588808   3.019682   1.427095
     7  C    4.632610   5.710683   3.785231   4.376518   2.423732
     8  C    4.590036   5.650268   4.146253   4.979802   2.777981
     9  C    3.590082   4.578858   3.568627   4.575016   2.442913
    10  C    2.238919   3.270884   2.242027   3.293276   1.404892
    11  H    4.259116   5.201832   2.942166   2.980439   2.194046
    12  H    5.670097   6.741782   4.720283   5.175840   3.415690
    13  H    5.609986   6.652833   5.228291   6.061602   3.862401
    14  H    4.123777   4.987996   4.403484   5.457347   3.433047
    15  N    1.343261   2.140570   2.219800   3.258166   2.250648
    16  H    2.090271   2.517679   3.197449   4.201058   3.224280
                    6          7          8          9         10
     6  C    0.000000
     7  C    1.409222   0.000000
     8  C    2.427733   1.380467   0.000000
     9  C    2.871745   2.467143   1.437396   0.000000
    10  C    2.459977   2.791413   2.399266   1.383985   0.000000
    11  H    1.083940   2.179948   3.413614   3.955645   3.445896
    12  H    2.164944   1.084169   2.129722   3.439321   3.875245
    13  H    3.401659   2.128065   1.084436   2.179118   3.382008
    14  H    3.956820   3.448302   2.207772   1.085162   2.164342
    15  N    3.603734   4.152451   3.738986   2.505358   1.381218
    16  H    4.522170   4.896224   4.246036   2.856146   2.126932
                   11         12         13         14         15
    11  H    0.000000
    12  H    2.515189   0.000000
    13  H    4.298995   2.431407   0.000000
    14  H    5.040745   4.330294   2.528730   0.000000
    15  N    4.444380   5.235940   4.656033   2.848744   0.000000
    16  H    5.414475   5.974816   5.023981   2.809948   1.010623
                   16
    16  H    0.000000
 Stoichiometry    C8H7N
 Framework group  C1[X(C8H7N)]
 Deg. of freedom    42
 Full point group                 C1      NOp   1
 Largest Abelian subgroup         C1      NOp   1
 Largest concise Abelian subgroup C1      NOp   1
                         Standard orientation:                         
 ---------------------------------------------------------------------
 Center     Atomic      Atomic             Coordinates (Angstroms)
 Number     Number       Type             X           Y           Z
 ---------------------------------------------------------------------
      1          6           0        2.401634    0.051697    0.000001
      2          1           0        3.481593    0.003657    0.000005
      3          6           0        1.551093    1.186691   -0.000001
      4          1           0        1.888469    2.213742   -0.000000
      5          6           0        0.227384    0.744734   -0.000002
      6          6           0       -1.026637    1.425935    0.000000
      7          6           0       -2.193926    0.636415    0.000001
      8          6           0       -2.119253   -0.742031    0.000000
      9          6           0       -0.863339   -1.441163    0.000000
     10          6           0        0.278583   -0.659225   -0.000002
     11          1           0       -1.077340    2.508689    0.000002
     12          1           0       -3.168587    1.111240    0.000001
     13          1           0       -3.038900   -1.316705   -0.000001
     14          1           0       -0.817727   -2.525366    0.000001
     15          7           0        1.608443   -1.032368   -0.000000
     16          1           0        1.940165   -1.986998    0.000002
 ---------------------------------------------------------------------
 Rotational constants (GHZ):           3.9117249           1.6303662           1.1507469
 Standard basis: 6-31+G(d) (6D, 7F)
 There are   185 symmetry adapted cartesian basis functions of A   symmetry.
 There are   185 symmetry adapted basis functions of A   symmetry.
   185 basis functions,   316 primitive gaussians,   185 cartesian basis functions
    31 alpha electrons       31 beta electrons
       nuclear repulsion energy       400.4482081099 Hartrees.
 NAtoms=   16 NActive=   16 NUniq=   16 SFac= 1.00D+00 NAtFMM=   60 NAOKFM=F Big=F
 Integral buffers will be    131072 words long.
 Raffenetti 1 integral format.
 Two-electron integral symmetry is turned on.
 One-electron integrals computed using PRISM.
 NBasis=   185 RedAO= T EigKep=  1.24D-06  NBF=   185
 NBsUse=   185 1.00D-06 EigRej= -1.00D+00 NBFU=   185
 Initial guess from the checkpoint file:  "/scratch/gfoley1/16922759/Gau-22209.chk"
 B after Tr=     0.000000   -0.000000   -0.000000
         Rot=    0.999976   -0.000000   -0.000000   -0.006881 Ang=  -0.79 deg.
 ExpMin= 4.38D-02 ExpMax= 4.17D+03 ExpMxC= 6.27D+02 IAcc=3 IRadAn=         5 AccDes= 0.00D+00
 Harris functional with IExCor=10402 and IRadAn=       5 diagonalized for initial guess.
 HarFok:  IExCor=10402 AccDes= 0.00D+00 IRadAn=         5 IDoV= 1 UseB2=F ITyADJ=14
 ICtDFT=  3500011 ScaDFX=  1.000000  1.000000  1.000000  1.000000
 FoFCou: FMM=F IPFlag=           0 FMFlag=      100000 FMFlg1=           0
         NFxFlg=           0 DoJE=T BraDBF=F KetDBF=T FulRan=T
         wScrn=  0.000000 ICntrl=       500 IOpCl=  0 I1Cent=   200000004 NGrid=           0
         NMat0=    1 NMatS0=      1 NMatT0=    0 NMatD0=    1 NMtDS0=    0 NMtDT0=    0
 Petite list used in FoFCou.
 Requested convergence on RMS density matrix=1.00D-08 within 128 cycles.
 Requested convergence on MAX density matrix=1.00D-06.
 Requested convergence on             energy=1.00D-06.
 No special actions if energy rises.
 SCF Done:  E(RLC-B+HF-LYP) =  -362.724652719     A.U. after   16 cycles
            NFock= 16  Conv=0.55D-08     -V/T= 2.0092
 DoSCS=F DFT=T ScalE2(SS,OS)=  1.000000  1.000000
 ExpMin= 4.38D-02 ExpMax= 4.17D+03 ExpMxC= 6.27D+02 IAcc=3 IRadAn=         5 AccDes= 0.00D+00
 HarFok:  IExCor=  205 AccDes= 0.00D+00 IRadAn=         5 IDoV=-2 UseB2=F ITyADJ=14
 ICtDFT= 12500011 ScaDFX=  1.000000  1.000000  1.000000  1.000000
 Range of M.O.s used for correlation:    10   185
 NBasis=   185 NAE=    31 NBE=    31 NFC=     9 NFV=     0
 NROrb=    176 NOA=    22 NOB=    22 NVA=   154 NVB=   154

 **** Warning!!: The largest alpha MO coefficient is  0.20864005D+03

 Orbital symmetries:
       Occupied  (A) (A) (A) (A) (A) (A) (A) (A) (A) (A) (A) (A)
                 (A) (A) (A) (A) (A) (A) (A) (A) (A) (A) (A) (A)
                 (A) (A) (A) (A) (A) (A) (A)
       Virtual   (A) (A) (A) (A) (A) (A) (A) (A) (A) (A) (A) (A)
                 (A) (A) (A) (A) (A) (A) (A) (A) (A) (A) (A) (A)
                 (A) (A) (A) (A) (A) (A) (A) (A) (A) (A) (A) (A)
                 (A) (A) (A) (A) (A) (A) (A) (A) (A) (A) (A) (A)
                 (A) (A) (A) (A) (A) (A) (A) (A) (A) (A) (A) (A)
                 (A) (A) (A) (A) (A) (A) (A) (A) (A) (A) (A) (A)
                 (A) (A) (A) (A) (A) (A) (A) (A) (A) (A) (A) (A)
                 (A) (A) (A) (A) (A) (A) (A) (A) (A) (A) (A) (A)
                 (A) (A) (A) (A) (A) (A) (A) (A) (A) (A) (A) (A)
                 (A) (A) (A) (A) (A) (A) (A) (A) (A) (A) (A) (A)
                 (A) (A) (A) (A) (A) (A) (A) (A) (A) (A) (A) (A)
                 (A) (A) (A) (A) (A) (A) (A) (A) (A) (A) (A) (A)
                 (A) (A) (A) (A) (A) (A) (A) (A) (A) (A)
 Generating guess from densities on rwf.
 Convergence on wavefunction:    0.000001000000000
 Iteration     1 Dimension     6 NMult     0 NNew      6
 CISAX will form     6 AO SS matrices at one time.
 Iteration     2 Dimension    12 NMult     6 NNew      6
 Iteration     3 Dimension    18 NMult    12 NNew      6
 Iteration     4 Dimension    24 NMult    18 NNew      6
 Iteration     5 Dimension    30 NMult    24 NNew      6
 Iteration     6 Dimension    36 NMult    30 NNew      6
 Iteration     7 Dimension    42 NMult    36 NNew      6
 Iteration     8 Dimension    48 NMult    42 NNew      6
 Iteration     9 Dimension    54 NMult    48 NNew      6
 Iteration    10 Dimension    60 NMult    54 NNew      6
 Iteration    11 Dimension    66 NMult    60 NNew      6
 Iteration    12 Dimension    70 NMult    66 NNew      4
 Iteration    13 Dimension    72 NMult    70 NNew      2
 Iteration    14 Dimension    74 NMult    72 NNew      2
 Iteration    15 Dimension    76 NMult    74 NNew      2
 ***********************************************************************
 Excited states from <AA,BB:AA,BB> singles matrix:
 ***********************************************************************
 
 Ground to excited state transition densities written to RWF  633
 Ground to excited state transition electric dipole moments (Au):
       state          X           Y           Z        Dip. S.      Osc.
         1        -1.0913      0.7754     -0.0000      1.7923      0.2117
         2        -0.1918     -0.3083      0.0000      0.1318      0.0166
         3         0.0000     -0.0000     -0.2084      0.0434      0.0058
 Ground to excited state transition velocity dipole moments (Au):
       state          X           Y           Z        Dip. S.      Osc.
         1         0.1792     -0.1459      0.0000      0.0534      0.2009
         2         0.0343      0.0608     -0.0000      0.0049      0.0172
         3        -0.0000      0.0000      0.0322      0.0010      0.0034
 Ground to excited state transition magnetic dipole moments (Au):
       state          X           Y           Z
         1         0.0000     -0.0000      0.1286
         2         0.0000      0.0000      0.0322
         3         0.1519     -0.1692      0.0000
 Ground to excited state transition velocity quadrupole moments (Au):
       state          XX          YY          ZZ          XY          XZ          YZ
         1         0.2458     -0.1864      0.0176      0.0385      0.0000      0.0000
         2        -0.0118     -0.0736      0.0218      0.0179     -0.0000      0.0000
         3        -0.0000      0.0000      0.0000      0.0000      0.1375      0.0613
 <0|del|b> * <b|rxdel|0> + <0|del|b> * <b|delr+rdel|0>
 Rotatory Strengths (R) in cgs (10**-40 erg-esu-cm/Gauss)
       state          XX          YY          ZZ    R(velocity)    E-M Angle
         1         0.0004      0.0005      0.0005      0.0004       90.00
         2         0.0001      0.0000     -0.0000      0.0000       90.00
         3         0.0000     -0.0002     -0.0001     -0.0001       90.00
 1/2[<0|r|b>*<b|rxdel|0> + (<0|rxdel|b>*<b|r|0>)*]
 Rotatory Strengths (R) in cgs (10**-40 erg-esu-cm/Gauss)
       state          XX          YY          ZZ     R(length)
         1         0.0009      0.0004      0.0001      0.0005
         2         0.0000      0.0001     -0.0000      0.0000
         3        -0.0004     -0.0001      0.0003     -0.0001
  1/2[<0|del|b>*<b|r|0> + (<0|r|b>*<b|del|0>)*] (Au)
       state          X           Y           Z        Dip. S.   Osc.(frdel)
         1        -0.1956     -0.1131     -0.0000      0.3087      0.2058
         2        -0.0066     -0.0188     -0.0000      0.0253      0.0169
         3        -0.0000     -0.0000     -0.0067      0.0067      0.0045

 Excitation energies and oscillator strengths:
 
 Excited State   1:      Singlet-A      4.8219 eV  257.13 nm  f=0.2117  <S**2>=0.000
      30 -> 38         0.13734
      31 -> 33         0.67420
 This state for optimization and/or second-order correction.
 Total Energy, E(TD-HF/TD-DFT) =  -362.547452920    
 Copying the excited state density for this state as the 1-particle RhoCI density.
 
 Excited State   2:      Singlet-A      5.1487 eV  240.81 nm  f=0.0166  <S**2>=0.000
      30 -> 33         0.54691
      31 -> 38        -0.36126
      31 -> 43         0.12697
 
 Excited State   3:      Singlet-A      5.4579 eV  227.17 nm  f=0.0058  <S**2>=0.000
      29 -> 32         0.10221
      31 -> 32         0.66245
      31 -> 40        -0.12371
 SavETr:  write IOETrn=   770 NScale= 10 NData=  16 NLR=1 NState=    3 LETran=      64.
          IDoAtm=1111111111111111
          Differentiating once with respect to electric field.
                with respect to dipole field.
          Differentiating once with respect to nuclear coordinates.
          There are     1 degrees of freedom in the 1st order CPHF.  IDoFFX=0 NUNeed=     1.
 LinEq1:  Iter=  0 NonCon=     1 RMS=4.26D-03 Max=7.17D-02 NDo=     1
 AX will form     1 AO Fock derivatives at one time.
 LinEq1:  Iter=  1 NonCon=     1 RMS=2.01D-03 Max=5.63D-02 NDo=     1
 LinEq1:  Iter=  2 NonCon=     1 RMS=6.28D-04 Max=1.10D-02 NDo=     1
 LinEq1:  Iter=  3 NonCon=     1 RMS=3.88D-04 Max=1.37D-02 NDo=     1
 LinEq1:  Iter=  4 NonCon=     1 RMS=1.53D-04 Max=4.13D-03 NDo=     1
 LinEq1:  Iter=  5 NonCon=     1 RMS=6.57D-05 Max=1.71D-03 NDo=     1
 LinEq1:  Iter=  6 NonCon=     1 RMS=2.99D-05 Max=7.47D-04 NDo=     1
 LinEq1:  Iter=  7 NonCon=     1 RMS=1.38D-05 Max=2.75D-04 NDo=     1
 LinEq1:  Iter=  8 NonCon=     1 RMS=5.78D-06 Max=1.46D-04 NDo=     1
 LinEq1:  Iter=  9 NonCon=     1 RMS=1.93D-06 Max=3.45D-05 NDo=     1
 LinEq1:  Iter= 10 NonCon=     1 RMS=9.56D-07 Max=1.98D-05 NDo=     1
 LinEq1:  Iter= 11 NonCon=     1 RMS=3.18D-07 Max=7.86D-06 NDo=     1
 LinEq1:  Iter= 12 NonCon=     1 RMS=1.43D-07 Max=2.71D-06 NDo=     1
 LinEq1:  Iter= 13 NonCon=     1 RMS=5.16D-08 Max=1.17D-06 NDo=     1
 LinEq1:  Iter= 14 NonCon=     1 RMS=1.44D-08 Max=2.40D-07 NDo=     1
 LinEq1:  Iter= 15 NonCon=     1 RMS=6.58D-09 Max=1.08D-07 NDo=     1
 LinEq1:  Iter= 16 NonCon=     1 RMS=1.64D-09 Max=2.12D-08 NDo=     1
 LinEq1:  Iter= 17 NonCon=     1 RMS=3.33D-10 Max=5.86D-09 NDo=     1
 LinEq1:  Iter= 18 NonCon=     1 RMS=1.60D-10 Max=2.00D-09 NDo=     1
 LinEq1:  Iter= 19 NonCon=     0 RMS=4.65D-11 Max=7.70D-10 NDo=     1
 Linear equations converged to 1.000D-10 1.000D-09 after    19 iterations.
 End of Minotr F.D. properties file   721 does not exist.
 End of Minotr F.D. properties file   722 does not exist.
 End of Minotr F.D. properties file   788 does not exist.
 Calling FoFJK, ICntrl=  10005127 FMM=F ISym2X=0 I1Cent= 0 IOpClX= 0 NMat=1 NMatS=1 NMatT=0.
 ***** Axes restored to original set *****
 -------------------------------------------------------------------
 Center     Atomic                   Forces (Hartrees/Bohr)
 Number     Number              X              Y              Z
 -------------------------------------------------------------------
      1        6           0.001408580   -0.000004211   -0.000068606
      2        1          -0.000472479    0.000380665   -0.002487872
      3        6           0.006746476    0.000628617   -0.004624609
      4        1          -0.000891583   -0.000109423    0.000785680
      5        6          -0.007374423   -0.002172529    0.014888738
      6        6           0.004246470    0.000324913   -0.002442395
      7        6          -0.008806565    0.000743920   -0.004320017
      8        6           0.012431250   -0.000861392    0.004847745
      9        6          -0.013531143   -0.000763253    0.005981283
     10        6           0.011738471    0.002673569   -0.018503914
     11        1          -0.000849479   -0.000054175    0.000416738
     12        1           0.000375523   -0.000101622    0.000647038
     13        1          -0.001161472    0.000163966   -0.001005356
     14        1           0.001381362   -0.000000273   -0.000092973
     15        7          -0.005523093   -0.000998878    0.006991709
     16        1           0.000282105    0.000150104   -0.001013187
 -------------------------------------------------------------------
 Cartesian Forces:  Max     0.018503914 RMS     0.005499563

 GradGradGradGradGradGradGradGradGradGradGradGradGradGradGradGradGradGrad
 Berny optimization.
 Using GEDIIS/GDIIS optimizer.
 FormGI is forming the generalized inverse of G from B-inverse, IUseBI=4.
 Internal  Forces:  Max     0.008419626 RMS     0.002111325
 Search for a local minimum.
 Step number   2 out of a maximum of   94
 All quantities printed in internal units (Hartrees-Bohrs-Radians)
 Mixed Optimization -- RFO/linear search
 Update second derivatives using D2CorX and points    1    2
 DE= -9.69D-03 DEPred=-9.04D-03 R= 1.07D+00
 TightC=F SS=  1.41D+00  RLast= 2.13D-01 DXNew= 5.0454D-01 6.3964D-01
 Trust test= 1.07D+00 RLast= 2.13D-01 DXMaxT set to 5.05D-01
 ITU=  1  0
 Use linear search instead of GDIIS.
     Eigenvalues ---    0.01860   0.01895   0.01900   0.02069   0.02077
     Eigenvalues ---    0.02085   0.02126   0.02193   0.02211   0.02274
     Eigenvalues ---    0.02322   0.02357   0.02380   0.15356   0.16000
     Eigenvalues ---    0.16000   0.16000   0.16000   0.16000   0.16131
     Eigenvalues ---    0.21708   0.22175   0.22893   0.23739   0.24656
     Eigenvalues ---    0.36503   0.37230   0.37230   0.37230   0.37230
     Eigenvalues ---    0.37437   0.37774   0.40976   0.41578   0.42312
     Eigenvalues ---    0.44326   0.44675   0.46880   0.47568   0.48700
     Eigenvalues ---    0.53096   0.55419
 RFO step:  Lambda=-1.08093406D-03 EMin= 1.86047856D-02
 Quartic linear search produced a step of  0.14946.
 Iteration  1 RMS(Cart)=  0.00789947 RMS(Int)=  0.00007746
 Iteration  2 RMS(Cart)=  0.00008509 RMS(Int)=  0.00003332
 Iteration  3 RMS(Cart)=  0.00000000 RMS(Int)=  0.00003332
 Variable       Old X    -DE/DX   Delta X   Delta X   Delta X     New X
                                 (Linear)    (Quad)   (Total)
    R1        2.04284  -0.00094   0.00311  -0.00478  -0.00166   2.04118
    R2        2.68024   0.00106   0.00411  -0.00129   0.00276   2.68299
    R3        2.53840  -0.00241  -0.00250  -0.00390  -0.00644   2.53195
    R4        2.04288   0.00051   0.00312  -0.00032   0.00279   2.04567
    R5        2.63719  -0.00616   0.00207  -0.01656  -0.01449   2.62270
    R6        2.69682   0.00093   0.01036  -0.00364   0.00676   2.70358
    R7        2.65486   0.00568   0.00932   0.00900   0.01844   2.67330
    R8        2.66304  -0.00062  -0.00041  -0.00177  -0.00220   2.66084
    R9        2.04835  -0.00018   0.00394  -0.00294   0.00100   2.04935
   R10        2.60871  -0.00613  -0.01144  -0.01047  -0.02196   2.58674
   R11        2.04878   0.00027   0.00400  -0.00158   0.00242   2.05120
   R12        2.71628   0.00549   0.00721   0.00974   0.01690   2.73318
   R13        2.04929   0.00048   0.00408  -0.00099   0.00308   2.05237
   R14        2.61535  -0.00842  -0.00216  -0.01884  -0.02099   2.59436
   R15        2.05066  -0.00076   0.00428  -0.00493  -0.00064   2.05001
   R16        2.61012   0.00428   0.01037   0.00356   0.01397   2.62409
   R17        1.90980   0.00038   0.00300  -0.00090   0.00210   1.91191
    A1        2.25835   0.00165   0.00935   0.00895   0.01834   2.27669
    A2        2.15802  -0.00321  -0.00565  -0.01632  -0.02193   2.13609
    A3        1.86681   0.00156  -0.00370   0.00737   0.00359   1.87041
    A4        2.18110  -0.00081  -0.00522  -0.00144  -0.00664   2.17446
    A5        1.89166  -0.00058   0.00606  -0.01011  -0.00409   1.88757
    A6        2.21042   0.00140  -0.00084   0.01155   0.01073   2.22115
    A7        2.32173   0.00147   0.00789  -0.00002   0.00777   2.32950
    A8        1.85658   0.00319  -0.00319   0.01687   0.01370   1.87028
    A9        2.10487  -0.00466  -0.00469  -0.01685  -0.02147   2.08340
   A10        2.04928  -0.00050  -0.00025  -0.00193  -0.00213   2.04715
   A11        2.11521  -0.00070  -0.00013  -0.00566  -0.00582   2.10938
   A12        2.11869   0.00120   0.00039   0.00760   0.00796   2.12665
   A13        2.11137   0.00315   0.00176   0.01374   0.01545   2.12682
   A14        2.09357  -0.00230   0.00026  -0.01274  -0.01245   2.08112
   A15        2.07825  -0.00085  -0.00203  -0.00100  -0.00300   2.07524
   A16        2.13287  -0.00060   0.00469  -0.00743  -0.00282   2.13004
   A17        2.07519   0.00180  -0.00234   0.01445   0.01216   2.08735
   A18        2.07512  -0.00121  -0.00235  -0.00702  -0.00933   2.06579
   A19        2.03322  -0.00239  -0.00323  -0.00964  -0.01289   2.02033
   A20        2.12079   0.00001   0.00099  -0.00324  -0.00225   2.11854
   A21        2.12917   0.00238   0.00224   0.01289   0.01514   2.14431
   A22        2.13477   0.00500   0.00172   0.02212   0.02386   2.15862
   A23        1.88080  -0.00474  -0.00383  -0.01623  -0.01998   1.86083
   A24        2.26762  -0.00026   0.00211  -0.00589  -0.00388   2.26374
   A25        1.92892   0.00057   0.00466   0.00210   0.00677   1.93569
   A26        2.17548   0.00066  -0.00258   0.00588   0.00329   2.17878
   A27        2.17879  -0.00123  -0.00208  -0.00797  -0.01006   2.16872
    D1        0.00000  -0.00000  -0.00000  -0.00000  -0.00000   0.00000
    D2       -3.14159  -0.00000  -0.00000  -0.00000  -0.00000  -3.14159
    D3       -3.14159   0.00000   0.00000   0.00000   0.00000  -3.14159
    D4        0.00000  -0.00000   0.00000  -0.00000  -0.00000   0.00000
    D5        3.14159   0.00000   0.00000   0.00000   0.00000   3.14159
    D6        0.00000   0.00000   0.00000   0.00000   0.00000   0.00000
    D7       -0.00000   0.00000  -0.00000   0.00000   0.00000  -0.00000
    D8       -3.14159  -0.00000  -0.00000  -0.00000  -0.00000  -3.14159
    D9        3.14159   0.00000  -0.00000   0.00000   0.00000   3.14159
   D10       -0.00000   0.00000  -0.00000   0.00000   0.00000   0.00000
   D11       -0.00000   0.00000   0.00000   0.00000   0.00000  -0.00000
   D12       -3.14159  -0.00000  -0.00000  -0.00000  -0.00000   3.14159
   D13       -3.14159  -0.00000  -0.00000  -0.00000  -0.00000  -3.14159
   D14        0.00000  -0.00000   0.00000  -0.00000  -0.00000   0.00000
   D15       -0.00000   0.00000  -0.00000   0.00000   0.00000  -0.00000
   D16        3.14159   0.00000   0.00000   0.00000   0.00000   3.14159
   D17        3.14159   0.00000   0.00000   0.00000   0.00000   3.14159
   D18        0.00000  -0.00000   0.00000  -0.00000  -0.00000  -0.00000
   D19        0.00000  -0.00000   0.00000  -0.00000  -0.00000  -0.00000
   D20       -3.14159  -0.00000  -0.00000  -0.00000  -0.00000  -3.14159
   D21        0.00000   0.00000   0.00000   0.00000   0.00000   0.00000
   D22       -3.14159  -0.00000   0.00000  -0.00000  -0.00000  -3.14159
   D23       -3.14159  -0.00000  -0.00000  -0.00000  -0.00000  -3.14159
   D24        0.00000  -0.00000  -0.00000  -0.00000  -0.00000   0.00000
   D25        0.00000  -0.00000  -0.00000  -0.00000  -0.00000   0.00000
   D26       -3.14159  -0.00000  -0.00000  -0.00000  -0.00000   3.14159
   D27       -3.14159   0.00000  -0.00000   0.00000   0.00000  -3.14159
   D28        0.00000  -0.00000  -0.00000  -0.00000  -0.00000   0.00000
   D29       -0.00000   0.00000   0.00000   0.00000   0.00000  -0.00000
   D30        3.14159  -0.00000  -0.00000  -0.00000  -0.00000   3.14159
   D31        3.14159   0.00000   0.00000   0.00000   0.00000   3.14159
   D32       -0.00000   0.00000   0.00000   0.00000   0.00000  -0.00000
   D33        0.00000   0.00000  -0.00000   0.00000  -0.00000   0.00000
   D34        3.14159   0.00000   0.00000   0.00000   0.00000   3.14159
   D35       -3.14159   0.00000   0.00000   0.00000   0.00000  -3.14159
   D36       -0.00000   0.00000   0.00000   0.00000   0.00000  -0.00000
   D37        0.00000  -0.00000   0.00000  -0.00000  -0.00000   0.00000
   D38        3.14159   0.00000   0.00000   0.00000   0.00000   3.14159
   D39       -3.14159  -0.00000  -0.00000  -0.00000  -0.00000  -3.14159
   D40        0.00000  -0.00000  -0.00000  -0.00000  -0.00000   0.00000
         Item               Value     Threshold  Converged?
 Maximum Force            0.008420     0.000450     NO 
 RMS     Force            0.002111     0.000300     NO 
 Maximum Displacement     0.037357     0.001800     NO 
 RMS     Displacement     0.007892     0.001200     NO 
 Predicted change in Energy=-6.976290D-04
 GradGradGradGradGradGradGradGradGradGradGradGradGradGradGradGradGradGrad

                          Input orientation:                          
 ---------------------------------------------------------------------
 Center     Atomic      Atomic             Coordinates (Angstroms)
 Number     Number       Type             X           Y           Z
 ---------------------------------------------------------------------
      1          6           0       -1.373592    2.086136    1.414569
      2          1           0       -2.300275    2.012658    1.964640
      3          6           0       -0.028393    2.004690    1.861305
      4          1           0        0.268943    1.846196    2.890055
      5          6           0        0.802821    2.162265    0.761103
      6          6           0        2.223718    2.172694    0.594458
      7          6           0        2.719489    2.364516   -0.709399
      8          6           0        1.885751    2.535132   -1.781550
      9          6           0        0.446107    2.529097   -1.642698
     10          6           0       -0.029574    2.341560   -0.368593
     11          1           0        2.884394    2.037539    1.443760
     12          1           0        3.792613    2.377936   -0.871957
     13          1           0        2.307964    2.680312   -2.771601
     14          1           0       -0.204699    2.665338   -2.499859
     15          7           0       -1.339039    2.285852    0.090136
     16          1           0       -2.154252    2.383618   -0.501032
 ---------------------------------------------------------------------
                    Distance matrix (angstroms):
                    1          2          3          4          5
     1  C    0.000000
     2  H    1.080147   0.000000
     3  C    1.419778   2.274245   0.000000
     4  H    2.220935   2.735870   1.082523   0.000000
     5  C    2.273673   3.331680   1.387873   2.217513   0.000000
     6  C    3.690625   4.729643   2.589426   3.032740   1.430673
     7  C    4.619745   5.698448   3.780059   4.385191   2.424231
     8  C    4.586948   5.641784   4.149181   4.991252   2.788700
     9  C    3.585304   4.563136   3.574660   4.587330   2.457655
    10  C    2.247508   3.272344   2.255200   3.309575   1.414652
    11  H    4.258363   5.210827   2.942745   2.994823   2.194202
    12  H    5.657122   6.730750   4.712761   5.181866   3.413540
    13  H    5.606329   6.641807   5.232480   6.075171   3.874767
    14  H    4.126080   4.974855   4.414442   5.472341   3.449935
    15  N    1.339851   2.124235   2.221235   3.258596   2.247895
    16  H    2.089845   2.497693   3.200547   4.202400   3.222773
                    6          7          8          9         10
     6  C    0.000000
     7  C    1.408058   0.000000
     8  C    2.427138   1.368844   0.000000
     9  C    2.879547   2.463006   1.446337   0.000000
    10  C    2.456279   2.770202   2.387967   1.372876   0.000000
    11  H    1.084469   2.184079   3.412844   3.963974   3.445033
    12  H    2.157297   1.085450   2.118535   3.437440   3.855361
    13  H    3.405162   2.126442   1.086067   2.182613   3.369463
    14  H    3.964178   3.441964   2.214251   1.084821   2.162822
    15  N    3.600053   4.137280   3.736926   2.499726   1.388609
    16  H    4.517877   4.878231   4.240792   2.843666   2.129218
                   11         12         13         14         15
    11  H    0.000000
    12  H    2.510633   0.000000
    13  H    4.302870   2.429869   0.000000
    14  H    5.048639   4.325641   2.527359   0.000000
    15  N    4.441997   5.221873   4.652501   2.852861   0.000000
    16  H    5.412018   5.958425   5.015465   2.806321   1.011737
                   16
    16  H    0.000000
 Stoichiometry    C8H7N
 Framework group  C1[X(C8H7N)]
 Deg. of freedom    42
 Full point group                 C1      NOp   1
 Largest Abelian subgroup         C1      NOp   1
 Largest concise Abelian subgroup C1      NOp   1
                         Standard orientation:                         
 ---------------------------------------------------------------------
 Center     Atomic      Atomic             Coordinates (Angstroms)
 Number     Number       Type             X           Y           Z
 ---------------------------------------------------------------------
      1          6           0        2.397903    0.044023    0.000000
      2          1           0        3.475344   -0.032377    0.000001
      3          6           0        1.555600    1.186955    0.000000
      4          1           0        1.908458    2.210355   -0.000000
      5          6           0        0.237454    0.752579   -0.000001
      6          6           0       -1.022335    1.430634    0.000000
      7          6           0       -2.183913    0.634793   -0.000000
      8          6           0       -2.122807   -0.732687   -0.000000
      9          6           0       -0.863779   -1.444545    0.000000
     10          6           0        0.264109   -0.661821   -0.000001
     11          1           0       -1.070931    2.514013    0.000001
     12          1           0       -3.156634    1.116473   -0.000000
     13          1           0       -3.042284   -1.310704   -0.000000
     14          1           0       -0.827818   -2.528769    0.000001
     15          7           0        1.601969   -1.033795   -0.000000
     16          1           0        1.926691   -1.992005    0.000001
 ---------------------------------------------------------------------
 Rotational constants (GHZ):           3.9009623           1.6350620           1.1521473
 Standard basis: 6-31+G(d) (6D, 7F)
 There are   185 symmetry adapted cartesian basis functions of A   symmetry.
 There are   185 symmetry adapted basis functions of A   symmetry.
   185 basis functions,   316 primitive gaussians,   185 cartesian basis functions
    31 alpha electrons       31 beta electrons
       nuclear repulsion energy       400.5417959775 Hartrees.
[...]
 ! D7    D(3,1,15,10)            0.0            -DE/DX =    0.0                 !
 ! D8    D(3,1,15,16)          180.0001         -DE/DX =    0.0                 !
 ! D9    D(1,3,5,6)            180.0            -DE/DX =    0.0                 !
 ! D10   D(1,3,5,10)             0.0001         -DE/DX =    0.0                 !
 ! D11   D(4,3,5,6)             -0.0001         -DE/DX =    0.0                 !
 ! D12   D(4,3,5,10)           180.0            -DE/DX =    0.0                 !
 ! D13   D(3,5,6,7)            180.0            -DE/DX =    0.0                 !
 ! D14   D(3,5,6,11)             0.0            -DE/DX =    0.0                 !
 ! D15   D(10,5,6,7)            -0.0001         -DE/DX =    0.0                 !
 ! D16   D(10,5,6,11)         -180.0            -DE/DX =    0.0                 !
 ! D17   D(3,5,10,9)          -180.0            -DE/DX =    0.0                 !
 ! D18   D(3,5,10,15)            0.0            -DE/DX =    0.0                 !
 ! D19   D(6,5,10,9)             0.0            -DE/DX =    0.0                 !
 ! D20   D(6,5,10,15)         -180.0            -DE/DX =    0.0                 !
 ! D21   D(5,6,7,8)              0.0001         -DE/DX =    0.0                 !
 ! D22   D(5,6,7,12)          -180.0            -DE/DX =    0.0                 !
 ! D23   D(11,6,7,8)           180.0            -DE/DX =    0.0                 !
 ! D24   D(11,6,7,12)            0.0            -DE/DX =    0.0                 !
 ! D25   D(6,7,8,9)              0.0            -DE/DX =    0.0                 !
 ! D26   D(6,7,8,13)          -180.0            -DE/DX =    0.0                 !
 ! D27   D(12,7,8,9)           180.0            -DE/DX =    0.0                 !
 ! D28   D(12,7,8,13)            0.0            -DE/DX =    0.0                 !
 ! D29   D(7,8,9,10)             0.0            -DE/DX =    0.0                 !
 ! D30   D(7,8,9,14)           180.0            -DE/DX =    0.0                 !
 ! D31   D(13,8,9,10)          180.0            -DE/DX =    0.0                 !
 ! D32   D(13,8,9,14)            0.0            -DE/DX =    0.0                 !
 ! D33   D(8,9,10,5)             0.0            -DE/DX =    0.0                 !
 ! D34   D(8,9,10,15)          180.0            -DE/DX =    0.0                 !
 ! D35   D(14,9,10,5)         -180.0            -DE/DX =    0.0                 !
 ! D36   D(14,9,10,15)           0.0            -DE/DX =    0.0                 !
 ! D37   D(5,10,15,1)            0.0            -DE/DX =    0.0                 !
 ! D38   D(5,10,15,16)         180.0            -DE/DX =    0.0                 !
 ! D39   D(9,10,15,1)         -180.0            -DE/DX =    0.0                 !
 ! D40   D(9,10,15,16)           0.0            -DE/DX =    0.0                 !
 --------------------------------------------------------------------------------
 GradGradGradGradGradGradGradGradGradGradGradGradGradGradGradGradGradGrad

                          Input orientation:                          
 ---------------------------------------------------------------------
 Center     Atomic      Atomic             Coordinates (Angstroms)
 Number     Number       Type             X           Y           Z
 ---------------------------------------------------------------------
      1          6           0       -1.374047    2.086025    1.415336
      2          1           0       -2.300637    2.012609    1.964974
      3          6           0       -0.027712    2.004755    1.860828
      4          1           0        0.268059    1.846351    2.889094
      5          6           0        0.802694    2.162052    0.762526
      6          6           0        2.223446    2.172819    0.593654
      7          6           0        2.719688    2.364367   -0.708428
      8          6           0        1.887572    2.535683   -1.785320
      9          6           0        0.443995    2.528959   -1.641635
     10          6           0       -0.027935    2.341624   -0.369121
     11          1           0        2.885473    2.037949    1.440971
     12          1           0        3.793480    2.376838   -0.864750
     13          1           0        2.306188    2.680927   -2.775552
     14          1           0       -0.205320    2.665128   -2.498426
     15          7           0       -1.339552    2.285788    0.090596
     16          1           0       -2.153417    2.383666   -0.501410
 ---------------------------------------------------------------------
                    Distance matrix (angstroms):
                    1          2          3          4          5
     1  C    0.000000
     2  H    1.079843   0.000000
     3  C    1.420452   2.275323   0.000000
     4  H    2.219441   2.734930   1.081621   0.000000
     5  C    2.273795   3.331498   1.385851   2.215354   0.000000
     6  C    3.691158   4.730065   2.588761   3.033012   1.430793
     7  C    4.620228   5.698638   3.778704   4.384174   2.424768
     8  C    4.591791   5.646185   4.152660   4.994812   2.794294
     9  C    3.584207   4.561497   3.572750   4.585238   2.458308
    10  C    2.249808   3.274359   2.255250   3.308908   1.415209
    11  H    4.259868   5.212577   2.943472   2.997436   2.194004
    12  H    5.655678   6.728913   4.708368   5.177002   3.411592
    13  H    5.609062   6.643950   5.234531   6.077721   3.879139
    14  H    4.125386   4.973739   4.412565   5.469904   3.450070
    15  N    1.340161   2.124054   2.221177   3.257163   2.248560
    16  H    2.090436   2.498481   3.200369   4.200925   3.222614
                    6          7          8          9         10
     6  C    0.000000
     7  C    1.406543   0.000000
     8  C    2.429815   1.371664   0.000000
     9  C    2.879201   2.465106   1.450726   0.000000
    10  C    2.454414   2.768588   2.390072   1.370075   0.000000
    11  H    1.083704   2.180355   3.413575   3.962873   3.443340
    12  H    2.152574   1.085183   2.122538   3.441764   3.853583
    13  H    3.408309   2.131712   1.084848   2.185549   3.369594
    14  H    3.962604   3.442415   2.214830   1.083625   2.161032
    15  N    3.600109   4.137879   3.741101   2.498159   1.390970
    16  H    4.516697   4.877539   4.242773   2.840383   2.130010
                   11         12         13         14         15
    11  H    0.000000
    12  H    2.501134   0.000000
    13  H    4.304422   2.440424   0.000000
    14  H    5.046305   4.329250   2.526801   0.000000
    15  N    4.442496   5.221973   4.654284   2.851914   0.000000
    16  H    5.411356   5.957990   5.014795   2.803993   1.011151
                   16
    16  H    0.000000
 Stoichiometry    C8H7N
 Framework group  C1[X(C8H7N)]
 Deg. of freedom    42
 Full point group                 C1      NOp   1
 Largest Abelian subgroup         C1      NOp   1
 Largest concise Abelian subgroup C1      NOp   1
                         Standard orientation:                         
 ---------------------------------------------------------------------
 Center     Atomic      Atomic             Coordinates (Angstroms)
 Number     Number       Type             X           Y           Z
 ---------------------------------------------------------------------
      1          6           0        2.398813    0.044059   -0.000000
      2          1           0        3.475918   -0.032807   -0.000001
      3          6           0        1.555031    1.186738    0.000000
      4          1           0        1.909040    2.208785    0.000000
      5          6           0        0.238583    0.753669   -0.000000
      6          6           0       -1.022278    1.429982    0.000000
      7          6           0       -2.183331    0.636056   -0.000000
      8          6           0       -2.126504   -0.734431   -0.000000
      9          6           0       -0.861562   -1.444730    0.000000
     10          6           0        0.262450   -0.661338    0.000000
     11          1           0       -1.072969    2.512500    0.000001
     12          1           0       -3.152912    1.123432   -0.000000
     13          1           0       -3.043229   -1.314526   -0.000001
     14          1           0       -0.826768   -2.527796    0.000001
     15          7           0        1.602589   -1.033929   -0.000000
     16          1           0        1.925579   -1.992107    0.000000
 ---------------------------------------------------------------------
 Rotational constants (GHZ):           3.8994442           1.6342563           1.1516147

 **********************************************************************

            Population analysis using the SCF Density.

 **********************************************************************

 Orbital symmetries:
       Occupied  (A) (A) (A) (A) (A) (A) (A) (A) (A) (A) (A) (A)
                 (A) (A) (A) (A) (A) (A) (A) (A) (A) (A) (A) (A)
                 (A) (A) (A) (A) (A) (A) (A)
       Virtual   (A) (A) (A) (A) (A) (A) (A) (A) (A) (A) (A) (A)
                 (A) (A) (A) (A) (A) (A) (A) (A) (A) (A) (A) (A)
                 (A) (A) (A) (A) (A) (A) (A) (A) (A) (A) (A) (A)
                 (A) (A) (A) (A) (A) (A) (A) (A) (A) (A) (A) (A)
                 (A) (A) (A) (A) (A) (A) (A) (A) (A) (A) (A) (A)
                 (A) (A) (A) (A) (A) (A) (A) (A) (A) (A) (A) (A)
                 (A) (A) (A) (A) (A) (A) (A) (A) (A) (A) (A) (A)
                 (A) (A) (A) (A) (A) (A) (A) (A) (A) (A) (A) (A)
                 (A) (A) (A) (A) (A) (A) (A) (A) (A) (A) (A) (A)
                 (A) (A) (A) (A) (A) (A) (A) (A) (A) (A) (A) (A)
                 (A) (A) (A) (A) (A) (A) (A) (A) (A) (A) (A) (A)
                 (A) (A) (A) (A) (A) (A) (A) (A) (A) (A) (A) (A)
                 (A) (A) (A) (A) (A) (A) (A) (A) (A) (A)
 The electronic state is 1-A.
 Alpha  occ. eigenvalues --  -14.31045 -10.20228 -10.19239 -10.16848 -10.16218
 Alpha  occ. eigenvalues --  -10.15997 -10.15795 -10.15392 -10.14496  -1.16238
 Alpha  occ. eigenvalues --   -1.01380  -0.95058  -0.90918  -0.87124  -0.78475
 Alpha  occ. eigenvalues --   -0.75046  -0.73038  -0.68789  -0.62499  -0.61345
 Alpha  occ. eigenvalues --   -0.57766  -0.57642  -0.56853  -0.53709  -0.52519
 Alpha  occ. eigenvalues --   -0.47633  -0.47116  -0.46857  -0.39788  -0.33775
 Alpha  occ. eigenvalues --   -0.29127
 Alpha virt. eigenvalues --    0.04456   0.04893   0.06348   0.06873   0.08087
 Alpha virt. eigenvalues --    0.08450   0.10165   0.10651   0.10665   0.10923
 Alpha virt. eigenvalues --    0.11654   0.11659   0.13717   0.14653   0.14862
 Alpha virt. eigenvalues --    0.15016   0.16588   0.17957   0.19236   0.19323
 Alpha virt. eigenvalues --    0.20427   0.21202   0.21681   0.22747   0.23000
 Alpha virt. eigenvalues --    0.24222   0.24425   0.24850   0.26071   0.26448
 Alpha virt. eigenvalues --    0.27383   0.27685   0.28258   0.29060   0.29739
 Alpha virt. eigenvalues --    0.30435   0.30806   0.32001   0.32243   0.32898
 Alpha virt. eigenvalues --    0.34465   0.34728   0.37056   0.37851   0.39307
 Alpha virt. eigenvalues --    0.40963   0.41100   0.42346   0.44755   0.46062
 Alpha virt. eigenvalues --    0.48118   0.50167   0.54567   0.57037   0.63547
 Alpha virt. eigenvalues --    0.70210   0.73843   0.78191   0.78301   0.80914
 Alpha virt. eigenvalues --    0.83088   0.83414   0.84550   0.84812   0.86148
 Alpha virt. eigenvalues --    0.86978   0.88463   0.88993   0.90863   0.91052
 Alpha virt. eigenvalues --    0.93233   0.96972   1.00336   1.00982   1.02746
 Alpha virt. eigenvalues --    1.06222   1.06474   1.07493   1.07846   1.10638
 Alpha virt. eigenvalues --    1.12072   1.14750   1.16647   1.17775   1.21079
 Alpha virt. eigenvalues --    1.23652   1.25080   1.29903   1.30601   1.33833
 Alpha virt. eigenvalues --    1.34982   1.37661   1.38526   1.45118   1.46829
 Alpha virt. eigenvalues --    1.49590   1.49647   1.54710   1.55663   1.57622
 Alpha virt. eigenvalues --    1.61853   1.62348   1.64923   1.65326   1.67063
 Alpha virt. eigenvalues --    1.72230   1.77824   1.92816   1.96491   2.04135
 Alpha virt. eigenvalues --    2.05564   2.05860   2.09440   2.14866   2.15490
 Alpha virt. eigenvalues --    2.16198   2.19074   2.22600   2.28773   2.31023
 Alpha virt. eigenvalues --    2.31560   2.34742   2.38418   2.40577   2.43449
 Alpha virt. eigenvalues --    2.43522   2.46683   2.53171   2.57189   2.61117
 Alpha virt. eigenvalues --    2.68258   2.72523   2.76420   2.80415   2.81523
 Alpha virt. eigenvalues --    2.82388   2.87664   2.95222   2.98451   3.00284
 Alpha virt. eigenvalues --    3.10383   3.12725   3.25882   3.39693   3.57524
 Alpha virt. eigenvalues --    4.27696   4.37185   4.40139   4.43358   4.48402
 Alpha virt. eigenvalues --    4.53004   4.60303   4.63892   4.90737
          Condensed to atoms (all electrons):
               1          2          3          4          5          6
     1  C    6.210526   0.386549  -1.924145  -0.085955   2.134835   0.713865
     2  H    0.386549   0.479234  -0.055713  -0.000569  -0.024585  -0.019823
     3  C   -1.924145  -0.055713  12.733189   0.459319  -5.679939  -2.671419
     4  H   -0.085955  -0.000569   0.459319   0.497035  -0.139667  -0.084298
     5  C    2.134835  -0.024585  -5.679939  -0.139667  14.834135   0.199770
     6  C    0.713865  -0.019823  -2.671419  -0.084298   0.199770  10.922934
     7  C   -0.056008   0.000667   0.157970  -0.001625  -0.321532   0.302497
     8  C    0.045295   0.000201  -0.217467  -0.000415  -0.396669   0.513754
     9  C   -1.192851   0.018179   3.119178   0.013637  -3.916565  -2.428784
    10  C   -0.474941   0.063803   0.633634   0.134823  -2.574855  -1.311879
    11  H    0.005080  -0.000002  -0.071370   0.001452   0.041310   0.324517
    12  H    0.000519  -0.000000  -0.003609  -0.000002   0.026899  -0.027771
    13  H    0.001605  -0.000000  -0.002679   0.000000  -0.003618   0.028468
    14  H    0.007095   0.000002  -0.006787   0.000002   0.022594  -0.019159
    15  N    0.473664  -0.056030  -0.485109   0.007859   0.503316   0.088269
    16  H   -0.004332  -0.002761  -0.023317  -0.000100   0.236093   0.036667
               7          8          9         10         11         12
     1  C   -0.056008   0.045295  -1.192851  -0.474941   0.005080   0.000519
     2  H    0.000667   0.000201   0.018179   0.063803  -0.000002  -0.000000
     3  C    0.157970  -0.217467   3.119178   0.633634  -0.071370  -0.003609
     4  H   -0.001625  -0.000415   0.013637   0.134823   0.001452  -0.000002
     5  C   -0.321532  -0.396669  -3.916565  -2.574855   0.041310   0.026899
     6  C    0.302497   0.513754  -2.428784  -1.311879   0.324517  -0.027771
     7  C    5.315176   0.430561   0.297080  -0.376661  -0.028700   0.323793
     8  C    0.430561   5.416349   0.184584   0.100293   0.025669  -0.020466
     9  C    0.297080   0.184584  13.125965  -2.631904  -0.051113   0.019527
    10  C   -0.376661   0.100293  -2.631904  13.321515   0.050198  -0.013091
    11  H   -0.028700   0.025669  -0.051113   0.050198   0.510680  -0.003130
    12  H    0.323793  -0.020466   0.019527  -0.013091  -0.003130   0.515668
    13  H   -0.030083   0.328602  -0.044615   0.029562  -0.000133  -0.004365
    14  H    0.022109  -0.002372   0.320139  -0.044928   0.000013  -0.000122
    15  N   -0.012890  -0.001846  -0.390198  -0.122526  -0.000464   0.000185
    16  H   -0.005565  -0.006232  -0.188266  -0.099873   0.000003  -0.000000
              13         14         15         16
     1  C    0.001605   0.007095   0.473664  -0.004332
     2  H   -0.000000   0.000002  -0.056030  -0.002761
     3  C   -0.002679  -0.006787  -0.485109  -0.023317
     4  H    0.000000   0.000002   0.007859  -0.000100
     5  C   -0.003618   0.022594   0.503316   0.236093
     6  C    0.028468  -0.019159   0.088269   0.036667
     7  C   -0.030083   0.022109  -0.012890  -0.005565
     8  C    0.328602  -0.002372  -0.001846  -0.006232
     9  C   -0.044615   0.320139  -0.390198  -0.188266
    10  C    0.029562  -0.044928  -0.122526  -0.099873
    11  H   -0.000133   0.000013  -0.000464   0.000003
    12  H   -0.004365  -0.000122   0.000185  -0.000000
    13  H    0.515602  -0.002878  -0.000338  -0.000001
    14  H   -0.002878   0.511989  -0.002674   0.001669
    15  N   -0.000338  -0.002674   7.233113   0.290688
    16  H   -0.000001   0.001669   0.290688   0.344338
 Mulliken charges:
               1
     1  C   -0.240800
     2  H    0.210849
     3  C    0.038263
     4  H    0.198504
     5  C    1.058479
     6  C   -0.567608
     7  C   -0.016788
     8  C   -0.399842
     9  C   -0.253993
    10  C   -0.683169
    11  H    0.195989
    12  H    0.185966
    13  H    0.184872
    14  H    0.193309
    15  N   -0.525021
    16  H    0.420989
 Sum of Mulliken charges =  -0.00000
 Mulliken charges with hydrogens summed into heavy atoms:
               1
     1  C   -0.029951
     3  C    0.236767
     5  C    1.058479
     6  C   -0.371619
     7  C    0.169178
     8  C   -0.214970
     9  C   -0.060684
    10  C   -0.683169
    15  N   -0.104032
 Electronic spatial extent (au):  <R**2>=           1009.3937
 Charge=             -0.0000 electrons
 Dipole moment (field-independent basis, Debye):
    X=              1.6039    Y=             -1.7235    Z=              0.0000  Tot=              2.3544
 Quadrupole moment (field-independent basis, Debye-Ang):
   XX=            -44.9054   YY=            -44.7303   ZZ=            -59.2082
   XY=             -3.8040   XZ=              0.0000   YZ=             -0.0000
 Traceless Quadrupole moment (field-independent basis, Debye-Ang):
   XX=              4.7092   YY=              4.8843   ZZ=             -9.5936
   XY=             -3.8040   XZ=              0.0000   YZ=             -0.0000
 Octapole moment (field-independent basis, Debye-Ang**2):
  XXX=             17.1640  YYY=            -10.9437  ZZZ=              0.0000  XYY=              7.2120
  XXY=             -9.0322  XXZ=             -0.0000  XZZ=              2.2039  YZZ=             -2.1999
  YYZ=              0.0000  XYZ=             -0.0000
 Hexadecapole moment (field-independent basis, Debye-Ang**3):
 XXXX=           -811.2686 YYYY=           -373.1633 ZZZZ=            -75.0006 XXXY=            -25.6234
 XXXZ=              0.0000 YYYX=            -21.7452 YYYZ=             -0.0000 ZZZX=              0.0000
 ZZZY=              0.0000 XXYY=           -199.8531 XXZZ=           -191.3492 YYZZ=            -95.4940
 XXYZ=              0.0000 YYXZ=              0.0000 ZZXY=             -4.9378
 N-N= 4.004619884495D+02 E-N=-1.642668742788D+03  KE= 3.594169390234D+02
 1\1\GINC-COMET-10-06\FOpt\RLC-BLYP TD-FC\6-31+G(d)\C8H7N1\GFOLEY1\12-J
 un-2018\0\\# opt td=(root=1) LC-BLYP/6-31+g(d) geom=connectivity\\Titl
 e Card Required\\0,1\C,-1.3740467862,2.0860246071,1.415335724\H,-2.300
 637046,2.0126091831,1.9649743544\C,-0.0277120613,2.0047553415,1.860827
 6654\H,0.2680593062,1.8463512885,2.8890939626\C,0.8026942968,2.1620517
 509,0.7625260731\C,2.2234458398,2.1728187058,0.5936544021\C,2.71968814
 67,2.3643666797,-0.7084275513\C,1.8875720787,2.5356825208,-1.785319708
 7\C,0.4439951916,2.5289587172,-1.6416350712\C,-0.0279346935,2.34162403
 41,-0.3691209638\H,2.8854725306,2.0379491008,1.4409709106\H,3.79348023
 39,2.3768378729,-0.8647500678\H,2.30618839,2.6809267406,-2.7755516172\
 H,-0.2053196931,2.6651283335,-2.4984256661\N,-1.3395523061,2.285788422
 1,0.090595709\H,-2.1534169282,2.3836660414,-0.5014097352\\Version=ES64
 L-G16RevB.01\State=1-A\HF=-362.7224162\RMSD=3.443e-09\RMSF=5.044e-05\D
 ipole=-1.5064089,-0.0251875,0.2702175\PG=C01 [X(C8H7N1)]\\@


 ONLY THE DAY DAWNS TO WHICH YOU ARE AWAKE.

                                 -- THOREAU
 Job cpu time:       0 days  1 hours 44 minutes  7.8 seconds.
 Elapsed time:       0 days  1 hours 44 minutes 23.7 seconds.
 File lengths (MBytes):  RWF=    209 Int=      0 D2E=      0 Chk=      8 Scr=      1
 Normal termination of Gaussian 16 at Tue Jun 12 14:56:47 2018.
