 Entering Gaussian System, Link 0=/opt/gaussian/16.B.01/g16/g16
 Initial command:
 /opt/gaussian/16.B.01/g16/l1.exe "/scratch/gfoley1/16945499/Gau-18982.inp" -scrdir="/scratch/gfoley1/16945499/"
 Entering Link 1 = /opt/gaussian/16.B.01/g16/l1.exe PID=     18983.
  
 Copyright (c) 1988-2017, Gaussian, Inc.  All Rights Reserved.
  
 This is part of the Gaussian(R) 16 program.  It is based on
 the Gaussian(R) 09 system (copyright 2009, Gaussian, Inc.),
 the Gaussian(R) 03 system (copyright 2003, Gaussian, Inc.),
 the Gaussian(R) 98 system (copyright 1998, Gaussian, Inc.),
 the Gaussian(R) 94 system (copyright 1995, Gaussian, Inc.),
 the Gaussian 92(TM) system (copyright 1992, Gaussian, Inc.),
 the Gaussian 90(TM) system (copyright 1990, Gaussian, Inc.),
 the Gaussian 88(TM) system (copyright 1988, Gaussian, Inc.),
 the Gaussian 86(TM) system (copyright 1986, Carnegie Mellon
 University), and the Gaussian 82(TM) system (copyright 1983,
 Carnegie Mellon University). Gaussian is a federally registered
 trademark of Gaussian, Inc.
  
 This software contains proprietary and confidential information,
 including trade secrets, belonging to Gaussian, Inc.
  
 This software is provided under written license and may be
 used, copied, transmitted, or stored only in accord with that
 written license.
  
 The following legend is applicable only to US Government
 contracts under FAR:
  
                    RESTRICTED RIGHTS LEGEND
  
 Use, reproduction and disclosure by the US Government is
 subject to restrictions as set forth in subparagraphs (a)
 and (c) of the Commercial Computer Software - Restricted
 Rights clause in FAR 52.227-19.
  
 Gaussian, Inc.
 340 Quinnipiac St., Bldg. 40, Wallingford CT 06492
  
  
 ---------------------------------------------------------------
 Warning -- This program may not be used in any manner that
 competes with the business of Gaussian, Inc. or will provide
 assistance to any competitor of Gaussian, Inc.  The licensee
 of this program is prohibited from giving any competitor of
 Gaussian, Inc. access to this program.  By using this program,
 the user acknowledges that Gaussian, Inc. is engaged in the
 business of creating and licensing software in the field of
 computational chemistry and represents and warrants to the
 licensee that it is not a competitor of Gaussian, Inc. and that
 it will not use this program in any manner prohibited above.
 ---------------------------------------------------------------
  

 Cite this work as:
 Gaussian 16, Revision B.01,
 M. J. Frisch, G. W. Trucks, H. B. Schlegel, G. E. Scuseria, 
 M. A. Robb, J. R. Cheeseman, G. Scalmani, V. Barone, 
 G. A. Petersson, H. Nakatsuji, X. Li, M. Caricato, A. V. Marenich, 
 J. Bloino, B. G. Janesko, R. Gomperts, B. Mennucci, H. P. Hratchian, 
 J. V. Ortiz, A. F. Izmaylov, J. L. Sonnenberg, D. Williams-Young, 
 F. Ding, F. Lipparini, F. Egidi, J. Goings, B. Peng, A. Petrone, 
 T. Henderson, D. Ranasinghe, V. G. Zakrzewski, J. Gao, N. Rega, 
 G. Zheng, W. Liang, M. Hada, M. Ehara, K. Toyota, R. Fukuda, 
 J. Hasegawa, M. Ishida, T. Nakajima, Y. Honda, O. Kitao, H. Nakai, 
 T. Vreven, K. Throssell, J. A. Montgomery, Jr., J. E. Peralta, 
 F. Ogliaro, M. J. Bearpark, J. J. Heyd, E. N. Brothers, K. N. Kudin, 
 V. N. Staroverov, T. A. Keith, R. Kobayashi, J. Normand, 
 K. Raghavachari, A. P. Rendell, J. C. Burant, S. S. Iyengar, 
 J. Tomasi, M. Cossi, J. M. Millam, M. Klene, C. Adamo, R. Cammi, 
 J. W. Ochterski, R. L. Martin, K. Morokuma, O. Farkas, 
 J. B. Foresman, and D. J. Fox, Gaussian, Inc., Wallingford CT, 2016.
 
 ******************************************
 Gaussian 16:  ES64L-G16RevB.01 20-Dec-2017
                13-Jun-2018 
 ******************************************
 -----------------------------------------------------
 # opt td=(root=2) LC-BLYP/6-31+g(d) geom=connectivity
 -----------------------------------------------------
 1/18=20,19=15,26=3,38=1,57=2/1,3;
 2/9=110,12=2,17=6,18=5,40=1/2;
 3/5=1,6=6,7=11,11=9,25=1,30=1,71=1,74=1000402/1,2,3,8;
 4//1;
 5/5=2,38=5/2;
 8/6=1,10=2,107=2/1;
 9/8=2,15=2,42=1,70=2/14;
 10/5=4,28=2/2;
 6/7=2,8=2,9=2,10=2/1;
 7/12=6,13=5,14=2/1,2,3,16;
 1/18=20,19=15,26=3/3(2);
 2/9=110/2;
 99//99;
 2/9=110/2;
 3/5=1,6=6,7=11,11=9,25=1,30=1,71=1,74=1000402/1,2,3,8;
 4/5=5,16=3,69=1/1;
 5/5=2,38=5/2;
 8/6=1,10=2,107=2/1;
 9/8=2,15=2,42=1,49=4,70=2/14;
 10/5=4,28=2/2;
 7/12=6,13=5,14=2/1,2,3,16;
 1/18=20,19=15,26=3/3(-8);
 2/9=110/2;
 6/7=2,8=2,9=2,10=2/1;
 99/9=10/99;
 -------------------
 Title Card Required
 -------------------
 Symbolic Z-matrix:
 Charge =  0 Multiplicity = 1
 C                    -1.33996   2.08881   1.39456 
 H                    -2.21558   2.00585   2.00391 
 C                    -0.01363   2.0067    1.84698 
 H                     0.31448   1.85125   2.8535 
 C                     0.78597   2.16808   0.72372 
 C                     2.17136   2.17152   0.60581 
 C                     2.71529   2.36042  -0.68201 
 C                     1.85973   2.53856  -1.80247 
 C                     0.45733   2.52849  -1.63947 
 C                    -0.044     2.33966  -0.35507 
 H                     2.8014    2.03595   1.45997 
 H                     3.77686   2.3696   -0.81571 
 H                     2.2809    2.68121  -2.7757 
 H                    -0.19771   2.66151  -2.47501 
 N                    -1.32264   2.29058   0.0577 
 H                    -2.12783   2.38732  -0.52738 
 

 GradGradGradGradGradGradGradGradGradGradGradGradGradGradGradGradGradGrad
 Berny optimization.
 Initialization pass.
                           ----------------------------
                           !    Initial Parameters    !
                           ! (Angstroms and Degrees)  !
 --------------------------                            --------------------------
 ! Name  Definition              Value          Derivative Info.                !
 --------------------------------------------------------------------------------
 ! R1    R(1,2)                  1.07           estimate D2E/DX2                !
 ! R2    R(1,3)                  1.4038         estimate D2E/DX2                !
 ! R3    R(1,15)                 1.3521         estimate D2E/DX2                !
 ! R4    R(3,4)                  1.07           estimate D2E/DX2                !
 ! R5    R(3,5)                  1.3882         estimate D2E/DX2                !
 ! R6    R(5,6)                  1.3904         estimate D2E/DX2                !
 ! R7    R(5,10)                 1.3719         estimate D2E/DX2                !
 ! R8    R(6,7)                  1.4107         estimate D2E/DX2                !
 ! R9    R(6,11)                 1.07           estimate D2E/DX2                !
 ! R10   R(7,8)                  1.421          estimate D2E/DX2                !
 ! R11   R(7,12)                 1.07           estimate D2E/DX2                !
 ! R12   R(8,9)                  1.4119         estimate D2E/DX2                !
 ! R13   R(8,13)                 1.07           estimate D2E/DX2                !
 ! R14   R(9,10)                 1.3916         estimate D2E/DX2                !
 ! R15   R(9,14)                 1.07           estimate D2E/DX2                !
 ! R16   R(10,15)                1.3445         estimate D2E/DX2                !
 ! R17   R(15,16)                1.0            estimate D2E/DX2                !
 ! A1    A(2,1,3)              125.8112         estimate D2E/DX2                !
 ! A2    A(2,1,15)             125.8112         estimate D2E/DX2                !
 ! A3    A(3,1,15)             108.3775         estimate D2E/DX2                !
 ! A4    A(1,3,4)              126.9701         estimate D2E/DX2                !
 ! A5    A(1,3,5)              106.0599         estimate D2E/DX2                !
 ! A6    A(4,3,5)              126.9701         estimate D2E/DX2                !
 ! A7    A(3,5,6)              130.0024         estimate D2E/DX2                !
 ! A8    A(3,5,10)             107.5986         estimate D2E/DX2                !
 ! A9    A(6,5,10)             122.399          estimate D2E/DX2                !
 ! A10   A(5,6,7)              117.5116         estimate D2E/DX2                !
 ! A11   A(5,6,11)             121.2442         estimate D2E/DX2                !
 ! A12   A(7,6,11)             121.2442         estimate D2E/DX2                !
 ! A13   A(6,7,8)              120.2968         estimate D2E/DX2                !
 ! A14   A(6,7,12)             119.8516         estimate D2E/DX2                !
 ! A15   A(8,7,12)             119.8516         estimate D2E/DX2                !
 ! A16   A(7,8,9)              120.4065         estimate D2E/DX2                !
 ! A17   A(7,8,13)             119.7968         estimate D2E/DX2                !
 ! A18   A(9,8,13)             119.7968         estimate D2E/DX2                !
 ! A19   A(8,9,10)             117.732          estimate D2E/DX2                !
 ! A20   A(8,9,14)             121.134          estimate D2E/DX2                !
 ! A21   A(10,9,14)            121.134          estimate D2E/DX2                !
 ! A22   A(5,10,9)             121.6541         estimate D2E/DX2                !
 ! A23   A(5,10,15)            109.2304         estimate D2E/DX2                !
 ! A24   A(9,10,15)            129.1154         estimate D2E/DX2                !
 ! A25   A(1,15,10)            108.7335         estimate D2E/DX2                !
 ! A26   A(1,15,16)            125.6332         estimate D2E/DX2                !
 ! A27   A(10,15,16)           125.6332         estimate D2E/DX2                !
 ! D1    D(2,1,3,4)              0.0002         estimate D2E/DX2                !
 ! D2    D(2,1,3,5)           -179.9998         estimate D2E/DX2                !
 ! D3    D(15,1,3,4)           180.0            estimate D2E/DX2                !
 ! D4    D(15,1,3,5)             0.0            estimate D2E/DX2                !
 ! D5    D(2,1,15,10)          179.9998         estimate D2E/DX2                !
 ! D6    D(2,1,15,16)            0.0            estimate D2E/DX2                !
 ! D7    D(3,1,15,10)            0.0            estimate D2E/DX2                !
 ! D8    D(3,1,15,16)         -179.9998         estimate D2E/DX2                !
 ! D9    D(1,3,5,6)            179.9998         estimate D2E/DX2                !
 ! D10   D(1,3,5,10)             0.0            estimate D2E/DX2                !
 ! D11   D(4,3,5,6)             -0.0002         estimate D2E/DX2                !
 ! D12   D(4,3,5,10)          -180.0            estimate D2E/DX2                !
 ! D13   D(3,5,6,7)           -179.9998         estimate D2E/DX2                !
 ! D14   D(3,5,6,11)             0.0001         estimate D2E/DX2                !
 ! D15   D(10,5,6,7)             0.0            estimate D2E/DX2                !
 ! D16   D(10,5,6,11)          179.9998         estimate D2E/DX2                !
 ! D17   D(3,5,10,9)           179.9998         estimate D2E/DX2                !
 ! D18   D(3,5,10,15)            0.0            estimate D2E/DX2                !
 ! D19   D(6,5,10,9)             0.0            estimate D2E/DX2                !
 ! D20   D(6,5,10,15)         -179.9998         estimate D2E/DX2                !
 ! D21   D(5,6,7,8)              0.0            estimate D2E/DX2                !
 ! D22   D(5,6,7,12)          -180.0            estimate D2E/DX2                !
 ! D23   D(11,6,7,8)          -179.9998         estimate D2E/DX2                !
 ! D24   D(11,6,7,12)            0.0002         estimate D2E/DX2                !
 ! D25   D(6,7,8,9)              0.0001         estimate D2E/DX2                !
 ! D26   D(6,7,8,13)          -179.9998         estimate D2E/DX2                !
 ! D27   D(12,7,8,9)          -180.0            estimate D2E/DX2                !
 ! D28   D(12,7,8,13)            0.0001         estimate D2E/DX2                !
 ! D29   D(7,8,9,10)            -0.0001         estimate D2E/DX2                !
 ! D30   D(7,8,9,14)           180.0            estimate D2E/DX2                !
 ! D31   D(13,8,9,10)          179.9998         estimate D2E/DX2                !
 ! D32   D(13,8,9,14)           -0.0001         estimate D2E/DX2                !
 ! D33   D(8,9,10,5)             0.0001         estimate D2E/DX2                !
 ! D34   D(8,9,10,15)          179.9999         estimate D2E/DX2                !
 ! D35   D(14,9,10,5)          180.0            estimate D2E/DX2                !
 ! D36   D(14,9,10,15)          -0.0003         estimate D2E/DX2                !
 ! D37   D(5,10,15,1)            0.0            estimate D2E/DX2                !
 ! D38   D(5,10,15,16)         179.9998         estimate D2E/DX2                !
 ! D39   D(9,10,15,1)         -179.9998         estimate D2E/DX2                !
 ! D40   D(9,10,15,16)           0.0            estimate D2E/DX2                !
 --------------------------------------------------------------------------------
 Trust Radius=3.00D-01 FncErr=1.00D-07 GrdErr=1.00D-06 EigMax=2.50D+02 EigMin=1.00D-04
 Number of steps in this run=     94 maximum allowed number of steps=    100.
 GradGradGradGradGradGradGradGradGradGradGradGradGradGradGradGradGradGrad

                          Input orientation:                          
 ---------------------------------------------------------------------
 Center     Atomic      Atomic             Coordinates (Angstroms)
 Number     Number       Type             X           Y           Z
 ---------------------------------------------------------------------
      1          6           0       -1.339957    2.088809    1.394563
      2          1           0       -2.215576    2.005849    2.003915
      3          6           0       -0.013633    2.006700    1.846980
      4          1           0        0.314483    1.851247    2.853496
      5          6           0        0.785968    2.168085    0.723718
      6          6           0        2.171364    2.171521    0.605815
      7          6           0        2.715289    2.360423   -0.682013
      8          6           0        1.859731    2.538563   -1.802468
      9          6           0        0.457326    2.528493   -1.639472
     10          6           0       -0.043997    2.339664   -0.355067
     11          1           0        2.801396    2.035952    1.459970
     12          1           0        3.776863    2.369605   -0.815709
     13          1           0        2.280895    2.681211   -2.775696
     14          1           0       -0.197713    2.661512   -2.475014
     15          7           0       -1.322636    2.290581    0.057696
     16          1           0       -2.127826    2.387325   -0.527376
 ---------------------------------------------------------------------
                    Distance matrix (angstroms):
                    1          2          3          4          5
     1  C    0.000000
     2  H    1.070000   0.000000
     3  C    1.403766   2.207529   0.000000
     4  H    2.218579   2.673367   1.070000   0.000000
     5  C    2.230667   3.267184   1.388209   2.204231   0.000000
     6  C    3.599770   4.607317   2.518307   2.933027   1.390409
     7  C    4.564095   5.626131   3.737370   4.303829   2.394860
     8  C    4.545469   5.601826   4.136525   4.953604   2.769808
     9  C    3.553719   4.548827   3.556602   4.545968   2.413000
    10  C    2.191722   3.223659   2.227284   3.265261   1.371881
    11  H    4.142207   5.046463   2.841658   2.856705   2.149762
    12  H    5.580860   6.632641   4.646448   5.071473   3.369852
    13  H    5.554509   6.596896   5.204705   6.020250   3.839792
    14  H    4.075087   4.956053   4.375191   5.414045   3.382748
    15  N    1.352119   2.160135   2.235087   3.269506   2.214678
    16  H    2.098500   2.561378   3.201914   4.205062   3.178600
                    6          7          8          9         10
     6  C    0.000000
     7  C    1.410687   0.000000
     8  C    2.455944   1.420962   0.000000
     9  C    2.847222   2.458327   1.411882   0.000000
    10  C    2.420618   2.778666   2.399732   1.391646   0.000000
    11  H    1.070000   2.168130   3.432616   3.917117   3.388637
    12  H    2.153508   1.070000   2.162784   3.423910   3.848644
    13  H    3.421461   2.162200   1.070000   2.154004   3.373607
    14  H    3.917158   3.433815   2.168066   1.070000   2.149742
    15  N    3.538735   4.105713   3.694477   2.470879   1.344507
    16  H    4.451261   4.845657   4.189193   2.817746   2.091484
                   11         12         13         14         15
    11  H    0.000000
    12  H    2.498315   0.000000
    13  H    4.316034   2.485270   0.000000
    14  H    4.986991   4.316916   2.496858   0.000000
    15  N    4.363352   5.174357   4.600667   2.796008   0.000000
    16  H    5.326371   5.911751   4.957633   2.755686   1.000000
                   16
    16  H    0.000000
 Stoichiometry    C8H7N
 Framework group  C1[X(C8H7N)]
 Deg. of freedom    42
 Full point group                 C1      NOp   1
 Largest Abelian subgroup         C1      NOp   1
 Largest concise Abelian subgroup C1      NOp   1
                         Standard orientation:                         
 ---------------------------------------------------------------------
 Center     Atomic      Atomic             Coordinates (Angstroms)
 Number     Number       Type             X           Y           Z
 ---------------------------------------------------------------------
      1          6           0        2.360426    0.032633    0.000001
      2          1           0        3.430401    0.025257    0.000006
      3          6           0        1.546926    1.176650    0.000000
      4          1           0        1.870704    2.196487    0.000001
      5          6           0        0.237186    0.716536   -0.000002
      6          6           0       -0.959088    1.425172   -0.000001
      7          6           0       -2.157408    0.680814    0.000001
      8          6           0       -2.118961   -0.739628    0.000001
      9          6           0       -0.882385   -1.421016    0.000000
     10          6           0        0.279268   -0.654700   -0.000002
     11          1           0       -0.970350    2.495113    0.000002
     12          1           0       -3.099508    1.188107    0.000002
     13          1           0       -3.032773   -1.296266   -0.000001
     14          1           0       -0.839855   -2.490171    0.000001
     15          7           0        1.561740   -1.058388   -0.000000
     16          1           0        1.873421   -2.008575    0.000003
 ---------------------------------------------------------------------
 Rotational constants (GHZ):           3.9201898           1.6790815           1.1755669
 Standard basis: 6-31+G(d) (6D, 7F)
 There are   185 symmetry adapted cartesian basis functions of A   symmetry.
 There are   185 symmetry adapted basis functions of A   symmetry.
   185 basis functions,   316 primitive gaussians,   185 cartesian basis functions
    31 alpha electrons       31 beta electrons
       nuclear repulsion energy       404.0653087300 Hartrees.
 NAtoms=   16 NActive=   16 NUniq=   16 SFac= 1.00D+00 NAtFMM=   60 NAOKFM=F Big=F
 Integral buffers will be    131072 words long.
 Raffenetti 1 integral format.
 Two-electron integral symmetry is turned on.
 One-electron integrals computed using PRISM.
 NBasis=   185 RedAO= T EigKep=  1.24D-06  NBF=   185
 NBsUse=   185 1.00D-06 EigRej= -1.00D+00 NBFU=   185
 ExpMin= 4.38D-02 ExpMax= 4.17D+03 ExpMxC= 6.27D+02 IAcc=3 IRadAn=         5 AccDes= 0.00D+00
 Harris functional with IExCor=10402 and IRadAn=       5 diagonalized for initial guess.
 HarFok:  IExCor=10402 AccDes= 0.00D+00 IRadAn=         5 IDoV= 1 UseB2=F ITyADJ=14
 ICtDFT=  3500011 ScaDFX=  1.000000  1.000000  1.000000  1.000000
 FoFCou: FMM=F IPFlag=           0 FMFlag=      100000 FMFlg1=           0
         NFxFlg=           0 DoJE=T BraDBF=F KetDBF=T FulRan=T
         wScrn=  0.000000 ICntrl=       500 IOpCl=  0 I1Cent=   200000004 NGrid=           0
         NMat0=    1 NMatS0=      1 NMatT0=    0 NMatD0=    1 NMtDS0=    0 NMtDT0=    0
 Petite list used in FoFCou.
 Requested convergence on RMS density matrix=1.00D-08 within 128 cycles.
 Requested convergence on MAX density matrix=1.00D-06.
 Requested convergence on             energy=1.00D-06.
 No special actions if energy rises.
 SCF Done:  E(RLC-B+HF-LYP) =  -362.725123602     A.U. after   16 cycles
            NFock= 16  Conv=0.71D-08     -V/T= 2.0082
 DoSCS=F DFT=T ScalE2(SS,OS)=  1.000000  1.000000
 ExpMin= 4.38D-02 ExpMax= 4.17D+03 ExpMxC= 6.27D+02 IAcc=3 IRadAn=         5 AccDes= 0.00D+00
 HarFok:  IExCor=  205 AccDes= 0.00D+00 IRadAn=         5 IDoV=-2 UseB2=F ITyADJ=14
 ICtDFT= 12500011 ScaDFX=  1.000000  1.000000  1.000000  1.000000
 Range of M.O.s used for correlation:    10   185
 NBasis=   185 NAE=    31 NBE=    31 NFC=     9 NFV=     0
 NROrb=    176 NOA=    22 NOB=    22 NVA=   154 NVB=   154

 **** Warning!!: The largest alpha MO coefficient is  0.18975588D+03

 Orbital symmetries:
       Occupied  (A) (A) (A) (A) (A) (A) (A) (A) (A) (A) (A) (A)
                 (A) (A) (A) (A) (A) (A) (A) (A) (A) (A) (A) (A)
                 (A) (A) (A) (A) (A) (A) (A)
       Virtual   (A) (A) (A) (A) (A) (A) (A) (A) (A) (A) (A) (A)
                 (A) (A) (A) (A) (A) (A) (A) (A) (A) (A) (A) (A)
                 (A) (A) (A) (A) (A) (A) (A) (A) (A) (A) (A) (A)
                 (A) (A) (A) (A) (A) (A) (A) (A) (A) (A) (A) (A)
                 (A) (A) (A) (A) (A) (A) (A) (A) (A) (A) (A) (A)
                 (A) (A) (A) (A) (A) (A) (A) (A) (A) (A) (A) (A)
                 (A) (A) (A) (A) (A) (A) (A) (A) (A) (A) (A) (A)
                 (A) (A) (A) (A) (A) (A) (A) (A) (A) (A) (A) (A)
                 (A) (A) (A) (A) (A) (A) (A) (A) (A) (A) (A) (A)
                 (A) (A) (A) (A) (A) (A) (A) (A) (A) (A) (A) (A)
                 (A) (A) (A) (A) (A) (A) (A) (A) (A) (A) (A) (A)
                 (A) (A) (A) (A) (A) (A) (A) (A) (A) (A) (A) (A)
                 (A) (A) (A) (A) (A) (A) (A) (A) (A) (A)
    12 initial guesses have been made.
 Convergence on wavefunction:    0.000001000000000
 Iteration     1 Dimension    12 NMult     0 NNew     12
 CISAX will form    12 AO SS matrices at one time.
 New state      1 was old state      8
 New state      2 was old state      1
 New state      3 was old state      2
 Iteration     2 Dimension    18 NMult    12 NNew      6
 New state      2 was old state      3
 New state      3 was old state      2
 Iteration     3 Dimension    24 NMult    18 NNew      6
 Iteration     4 Dimension    30 NMult    24 NNew      6
 Iteration     5 Dimension    36 NMult    30 NNew      6
 Iteration     6 Dimension    42 NMult    36 NNew      6
 Iteration     7 Dimension    48 NMult    42 NNew      6
 Iteration     8 Dimension    54 NMult    48 NNew      6
 Iteration     9 Dimension    60 NMult    54 NNew      6
 Iteration    10 Dimension    66 NMult    60 NNew      6
 Iteration    11 Dimension    72 NMult    66 NNew      6
 Iteration    12 Dimension    78 NMult    72 NNew      6
 Iteration    13 Dimension    82 NMult    78 NNew      4
 ***********************************************************************
 Excited states from <AA,BB:AA,BB> singles matrix:
 ***********************************************************************
 
 Ground to excited state transition densities written to RWF  633
 Ground to excited state transition electric dipole moments (Au):
       state          X           Y           Z        Dip. S.      Osc.
         1        -0.9133      0.6954     -0.0000      1.3178      0.1646
         2        -0.2978     -0.4180      0.0000      0.2634      0.0336
         3         0.0000     -0.0000     -0.2325      0.0541      0.0074
 Ground to excited state transition velocity dipole moments (Au):
       state          X           Y           Z        Dip. S.      Osc.
         1         0.1571     -0.1375      0.0000      0.0436      0.1551
         2         0.0544      0.0833     -0.0000      0.0099      0.0345
         3        -0.0000      0.0000      0.0382      0.0015      0.0047
 Ground to excited state transition magnetic dipole moments (Au):
       state          X           Y           Z
         1         0.0000     -0.0000      0.2156
         2        -0.0000      0.0000     -0.1266
         3         0.1351     -0.1784      0.0000
 Ground to excited state transition velocity quadrupole moments (Au):
       state          XX          YY          ZZ          XY          XZ          YZ
         1         0.2706     -0.1903      0.0279      0.0104     -0.0000      0.0000
         2        -0.0427     -0.0544      0.0123     -0.0163     -0.0000     -0.0000
         3        -0.0000      0.0000      0.0000      0.0000      0.1549      0.0480
 <0|del|b> * <b|rxdel|0> + <0|del|b> * <b|delr+rdel|0>
 Rotatory Strengths (R) in cgs (10**-40 erg-esu-cm/Gauss)
       state          XX          YY          ZZ    R(velocity)    E-M Angle
         1         0.0001      0.0007      0.0005      0.0004       90.00
         2         0.0001     -0.0000     -0.0000      0.0000       90.00
         3         0.0001     -0.0001     -0.0001     -0.0000       90.00
 1/2[<0|r|b>*<b|rxdel|0> + (<0|rxdel|b>*<b|r|0>)*]
 Rotatory Strengths (R) in cgs (10**-40 erg-esu-cm/Gauss)
       state          XX          YY          ZZ     R(length)
         1         0.0011      0.0001      0.0002      0.0005
         2        -0.0001      0.0000      0.0001      0.0000
         3        -0.0003     -0.0001      0.0004     -0.0000
  1/2[<0|del|b>*<b|r|0> + (<0|r|b>*<b|del|0>)*] (Au)
       state          X           Y           Z        Dip. S.   Osc.(frdel)
         1        -0.1435     -0.0956     -0.0000      0.2391      0.1594
         2        -0.0162     -0.0348     -0.0000      0.0510      0.0340
         3        -0.0000     -0.0000     -0.0089      0.0089      0.0059

 Excitation energies and oscillator strengths:
 
 Excited State   1:      Singlet-A      5.0985 eV  243.18 nm  f=0.1646  <S**2>=0.000
      30 -> 38         0.16717
      31 -> 33         0.65334
      31 -> 38        -0.10859
 
 Excited State   2:      Singlet-A      5.2021 eV  238.33 nm  f=0.0336  <S**2>=0.000
      30 -> 33         0.56310
      31 -> 33        -0.11844
      31 -> 38        -0.31625
      31 -> 43         0.12445
 This state for optimization and/or second-order correction.
 Total Energy, E(TD-HF/TD-DFT) =  -362.533949173    
 Copying the excited state density for this state as the 1-particle RhoCI density.
 
 Excited State   3:      Singlet-A      5.6181 eV  220.69 nm  f=0.0074  <S**2>=0.000
      31 -> 32         0.65978
      31 -> 40        -0.13146
 SavETr:  write IOETrn=   770 NScale= 10 NData=  16 NLR=1 NState=    3 LETran=      64.
          IDoAtm=1111111111111111
          Differentiating once with respect to electric field.
                with respect to dipole field.
          Differentiating once with respect to nuclear coordinates.
          There are     1 degrees of freedom in the 1st order CPHF.  IDoFFX=0 NUNeed=     1.
 LinEq1:  Iter=  0 NonCon=     1 RMS=3.07D-03 Max=6.27D-02 NDo=     1
 AX will form     1 AO Fock derivatives at one time.
 LinEq1:  Iter=  1 NonCon=     1 RMS=1.47D-03 Max=4.05D-02 NDo=     1
 LinEq1:  Iter=  2 NonCon=     1 RMS=5.01D-04 Max=1.00D-02 NDo=     1
 LinEq1:  Iter=  3 NonCon=     1 RMS=3.10D-04 Max=8.41D-03 NDo=     1
 LinEq1:  Iter=  4 NonCon=     1 RMS=1.10D-04 Max=2.17D-03 NDo=     1
 LinEq1:  Iter=  5 NonCon=     1 RMS=4.69D-05 Max=1.16D-03 NDo=     1
 LinEq1:  Iter=  6 NonCon=     1 RMS=2.05D-05 Max=4.77D-04 NDo=     1
 LinEq1:  Iter=  7 NonCon=     1 RMS=7.63D-06 Max=1.39D-04 NDo=     1
 LinEq1:  Iter=  8 NonCon=     1 RMS=3.44D-06 Max=5.59D-05 NDo=     1
 LinEq1:  Iter=  9 NonCon=     1 RMS=1.18D-06 Max=2.22D-05 NDo=     1
 LinEq1:  Iter= 10 NonCon=     1 RMS=6.51D-07 Max=1.60D-05 NDo=     1
 LinEq1:  Iter= 11 NonCon=     1 RMS=2.04D-07 Max=4.43D-06 NDo=     1
 LinEq1:  Iter= 12 NonCon=     1 RMS=9.34D-08 Max=1.85D-06 NDo=     1
 LinEq1:  Iter= 13 NonCon=     1 RMS=3.20D-08 Max=5.71D-07 NDo=     1
 LinEq1:  Iter= 14 NonCon=     1 RMS=9.83D-09 Max=1.19D-07 NDo=     1
 LinEq1:  Iter= 15 NonCon=     1 RMS=3.85D-09 Max=8.53D-08 NDo=     1
 LinEq1:  Iter= 16 NonCon=     1 RMS=9.39D-10 Max=1.80D-08 NDo=     1
 LinEq1:  Iter= 17 NonCon=     1 RMS=3.15D-10 Max=4.55D-09 NDo=     1
 LinEq1:  Iter= 18 NonCon=     1 RMS=1.09D-10 Max=1.44D-09 NDo=     1
 LinEq1:  Iter= 19 NonCon=     0 RMS=2.30D-11 Max=2.75D-10 NDo=     1
 Linear equations converged to 1.000D-10 1.000D-09 after    19 iterations.
 End of Minotr F.D. properties file   721 does not exist.
 End of Minotr F.D. properties file   722 does not exist.
 End of Minotr F.D. properties file   788 does not exist.

 **********************************************************************

            Population analysis using the SCF Density.

 **********************************************************************

 Orbital symmetries:
       Occupied  (A) (A) (A) (A) (A) (A) (A) (A) (A) (A) (A) (A)
                 (A) (A) (A) (A) (A) (A) (A) (A) (A) (A) (A) (A)
                 (A) (A) (A) (A) (A) (A) (A)
       Virtual   (A) (A) (A) (A) (A) (A) (A) (A) (A) (A) (A) (A)
                 (A) (A) (A) (A) (A) (A) (A) (A) (A) (A) (A) (A)
                 (A) (A) (A) (A) (A) (A) (A) (A) (A) (A) (A) (A)
                 (A) (A) (A) (A) (A) (A) (A) (A) (A) (A) (A) (A)
                 (A) (A) (A) (A) (A) (A) (A) (A) (A) (A) (A) (A)
                 (A) (A) (A) (A) (A) (A) (A) (A) (A) (A) (A) (A)
                 (A) (A) (A) (A) (A) (A) (A) (A) (A) (A) (A) (A)
                 (A) (A) (A) (A) (A) (A) (A) (A) (A) (A) (A) (A)
                 (A) (A) (A) (A) (A) (A) (A) (A) (A) (A) (A) (A)
                 (A) (A) (A) (A) (A) (A) (A) (A) (A) (A) (A) (A)
                 (A) (A) (A) (A) (A) (A) (A) (A) (A) (A) (A) (A)
                 (A) (A) (A) (A) (A) (A) (A) (A) (A) (A) (A) (A)
                 (A) (A) (A) (A) (A) (A) (A) (A) (A) (A)
 The electronic state is 1-A.
 Alpha  occ. eigenvalues --  -14.30978 -10.19538 -10.18543 -10.16291 -10.15987
 Alpha  occ. eigenvalues --  -10.15681 -10.15451 -10.14537 -10.14157  -1.17292
 Alpha  occ. eigenvalues --   -1.01523  -0.95661  -0.90370  -0.87699  -0.78727
 Alpha  occ. eigenvalues --   -0.75312  -0.73482  -0.69335  -0.63035  -0.61193
 Alpha  occ. eigenvalues --   -0.58417  -0.57807  -0.57003  -0.54078  -0.52494
 Alpha  occ. eigenvalues --   -0.48102  -0.46912  -0.46628  -0.40089  -0.32861
 Alpha  occ. eigenvalues --   -0.29998
 Alpha virt. eigenvalues --    0.04485   0.05638   0.06409   0.06845   0.08140
 Alpha virt. eigenvalues --    0.08474   0.10124   0.10507   0.10701   0.10956
 Alpha virt. eigenvalues --    0.11542   0.11770   0.13707   0.14756   0.14856
 Alpha virt. eigenvalues --    0.15110   0.16632   0.17950   0.19324   0.19397
 Alpha virt. eigenvalues --    0.20507   0.21252   0.21814   0.22778   0.22969
 Alpha virt. eigenvalues --    0.24143   0.24380   0.24937   0.26180   0.26546
 Alpha virt. eigenvalues --    0.27627   0.27840   0.28410   0.29218   0.29875
 Alpha virt. eigenvalues --    0.30636   0.31125   0.32091   0.32735   0.32940
 Alpha virt. eigenvalues --    0.34582   0.35686   0.37868   0.38224   0.39534
 Alpha virt. eigenvalues --    0.41008   0.41190   0.42602   0.45587   0.46729
 Alpha virt. eigenvalues --    0.47832   0.51488   0.55845   0.57897   0.63719
 Alpha virt. eigenvalues --    0.70858   0.75732   0.78619   0.79051   0.81261
 Alpha virt. eigenvalues --    0.83147   0.83429   0.84909   0.85378   0.85914
 Alpha virt. eigenvalues --    0.86770   0.88978   0.89105   0.91040   0.91449
 Alpha virt. eigenvalues --    0.93788   0.97149   1.00788   1.01094   1.03644
 Alpha virt. eigenvalues --    1.06291   1.07165   1.08053   1.08066   1.11578
 Alpha virt. eigenvalues --    1.11927   1.15223   1.17272   1.18471   1.21026
 Alpha virt. eigenvalues --    1.24172   1.25418   1.29684   1.30739   1.33664
 Alpha virt. eigenvalues --    1.35824   1.37515   1.38068   1.44671   1.46802
 Alpha virt. eigenvalues --    1.49819   1.50140   1.56425   1.56629   1.58788
 Alpha virt. eigenvalues --    1.61352   1.62219   1.64676   1.65747   1.67178
 Alpha virt. eigenvalues --    1.73294   1.79717   1.94627   2.00091   2.06278
 Alpha virt. eigenvalues --    2.06948   2.08962   2.11338   2.14911   2.16844
 Alpha virt. eigenvalues --    2.18175   2.21428   2.27058   2.28264   2.30990
 Alpha virt. eigenvalues --    2.33664   2.35187   2.39821   2.40774   2.41994
 Alpha virt. eigenvalues --    2.45907   2.47696   2.53829   2.57100   2.62969
 Alpha virt. eigenvalues --    2.72608   2.75334   2.77677   2.80570   2.83748
 Alpha virt. eigenvalues --    2.84760   2.87851   2.98607   2.99555   3.00426
 Alpha virt. eigenvalues --    3.09530   3.14051   3.29598   3.43084   3.62045
 Alpha virt. eigenvalues --    4.29964   4.37327   4.40792   4.44345   4.49307
 Alpha virt. eigenvalues --    4.53573   4.60688   4.65155   4.93040
          Condensed to atoms (all electrons):
               1          2          3          4          5          6
     1  C    6.465930   0.402847  -2.218599  -0.080852   2.207900   0.553039
     2  H    0.402847   0.487491  -0.088302  -0.000656  -0.012462  -0.024988
     3  C   -2.218599  -0.088302  12.981647   0.449581  -5.813825  -2.062927
     4  H   -0.080852  -0.000656   0.449581   0.501102  -0.127845  -0.082736
     5  C    2.207900  -0.012462  -5.813825  -0.127845  15.555898  -0.220960
     6  C    0.553039  -0.024988  -2.062927  -0.082736  -0.220960  11.535328
     7  C   -0.046862   0.000489   0.095193   0.001075  -0.316672   0.448505
     8  C    0.054252   0.000871  -0.205808   0.000845  -0.613584   0.390927
     9  C   -1.242219   0.013867   3.036421   0.007956  -3.581395  -2.146493
    10  C   -0.261188   0.071269   0.266348   0.123704  -3.097823  -2.280276
    11  H    0.005235  -0.000003  -0.066525   0.001848   0.042635   0.303305
    12  H    0.000737  -0.000000  -0.005434  -0.000002   0.033844  -0.036523
    13  H    0.002019  -0.000000  -0.003571   0.000000  -0.004725   0.036193
    14  H    0.010872   0.000002  -0.012209   0.000002   0.029430  -0.018936
    15  N    0.462375  -0.054355  -0.439317   0.008206   0.536937   0.146065
    16  H   -0.015906  -0.002525  -0.008431  -0.000085   0.249561   0.043581
               7          8          9         10         11         12
     1  C   -0.046862   0.054252  -1.242219  -0.261188   0.005235   0.000737
     2  H    0.000489   0.000871   0.013867   0.071269  -0.000003  -0.000000
     3  C    0.095193  -0.205808   3.036421   0.266348  -0.066525  -0.005434
     4  H    0.001075   0.000845   0.007956   0.123704   0.001848  -0.000002
     5  C   -0.316672  -0.613584  -3.581395  -3.097823   0.042635   0.033844
     6  C    0.448505   0.390927  -2.146493  -2.280276   0.303305  -0.036523
     7  C    5.259372   0.540318   0.041565  -0.239320  -0.016877   0.339238
     8  C    0.540318   5.352625   0.268831   0.353803   0.024692  -0.033097
     9  C    0.041565   0.268831  12.801713  -2.691056  -0.049796   0.020482
    10  C   -0.239320   0.353803  -2.691056  14.827387   0.049685  -0.011879
    11  H   -0.016877   0.024692  -0.049796   0.049685   0.516371  -0.002900
    12  H    0.339238  -0.033097   0.020482  -0.011879  -0.002900   0.515547
    13  H   -0.040481   0.331543  -0.048777   0.035900  -0.000128  -0.003509
    14  H    0.019856   0.004892   0.280499  -0.019525   0.000016  -0.000132
    15  N   -0.013751  -0.006323  -0.389390  -0.285519  -0.000457   0.000227
    16  H   -0.004181  -0.011181  -0.171873  -0.139361   0.000004  -0.000000
              13         14         15         16
     1  C    0.002019   0.010872   0.462375  -0.015906
     2  H   -0.000000   0.000002  -0.054355  -0.002525
     3  C   -0.003571  -0.012209  -0.439317  -0.008431
     4  H    0.000000   0.000002   0.008206  -0.000085
     5  C   -0.004725   0.029430   0.536937   0.249561
     6  C    0.036193  -0.018936   0.146065   0.043581
     7  C   -0.040481   0.019856  -0.013751  -0.004181
     8  C    0.331543   0.004892  -0.006323  -0.011181
     9  C   -0.048777   0.280499  -0.389390  -0.171873
    10  C    0.035900  -0.019525  -0.285519  -0.139361
    11  H   -0.000128   0.000016  -0.000457   0.000004
    12  H   -0.003509  -0.000132   0.000227  -0.000000
    13  H    0.514130  -0.003247  -0.000386  -0.000002
    14  H   -0.003247   0.525989  -0.004299   0.002040
    15  N   -0.000386  -0.004299   7.292200   0.292617
    16  H   -0.000002   0.002040   0.292617   0.343913
 Mulliken charges:
               1
     1  C   -0.299581
     2  H    0.206454
     3  C    0.095760
     4  H    0.197858
     5  C    1.133085
     6  C   -0.583104
     7  C   -0.067468
     8  C   -0.453607
     9  C   -0.150336
    10  C   -0.702149
    11  H    0.192894
    12  H    0.183402
    13  H    0.185041
    14  H    0.184750
    15  N   -0.544830
    16  H    0.421829
 Sum of Mulliken charges =  -0.00000
 Mulliken charges with hydrogens summed into heavy atoms:
               1
     1  C   -0.093127
     3  C    0.293618
     5  C    1.133085
     6  C   -0.390209
     7  C    0.115935
     8  C   -0.268565
     9  C    0.034414
    10  C   -0.702149
    15  N   -0.123001
 Electronic spatial extent (au):  <R**2>=            990.9832
 Charge=             -0.0000 electrons
 Dipole moment (field-independent basis, Debye):
    X=              1.5587    Y=             -1.6141    Z=              0.0000  Tot=              2.2438
 Quadrupole moment (field-independent basis, Debye-Ang):
   XX=            -45.6624   YY=            -44.3537   ZZ=            -58.8876
   XY=             -3.4369   XZ=              0.0000   YZ=             -0.0000
 Traceless Quadrupole moment (field-independent basis, Debye-Ang):
   XX=              3.9721   YY=              5.2809   ZZ=             -9.2530
   XY=             -3.4369   XZ=              0.0000   YZ=             -0.0000
 Octapole moment (field-independent basis, Debye-Ang**2):
  XXX=             14.3496  YYY=            -10.1230  ZZZ=              0.0000  XYY=              7.9959
  XXY=             -8.3754  XXZ=              0.0001  XZZ=              2.3889  YZZ=             -2.1383
  YYZ=              0.0001  XYZ=             -0.0000
 Hexadecapole moment (field-independent basis, Debye-Ang**3):
 XXXX=           -800.2898 YYYY=           -369.3693 ZZZZ=            -74.2812 XXXY=            -20.3359
 XXXZ=              0.0004 YYYX=            -21.3828 YYYZ=              0.0000 ZZZX=              0.0000
 ZZZY=              0.0000 XXYY=           -195.3758 XXZZ=           -187.0060 YYZZ=            -94.0628
 XXYZ=              0.0000 YYXZ=              0.0001 ZZXY=             -4.4605
 N-N= 4.040653087300D+02 E-N=-1.650178882353D+03  KE= 3.597854910663D+02
 Calling FoFJK, ICntrl=  10005127 FMM=F ISym2X=0 I1Cent= 0 IOpClX= 0 NMat=1 NMatS=1 NMatT=0.
 ***** Axes restored to original set *****
 -------------------------------------------------------------------
 Center     Atomic                   Forces (Hartrees/Bohr)
 Number     Number              X              Y              Z
 -------------------------------------------------------------------
      1        6           0.037145073   -0.009325788    0.059183207
      2        1          -0.010723794    0.000481907   -0.002453824
      3        6          -0.056858167    0.000632416   -0.000280966
      4        1           0.000397988   -0.001233624    0.008138918
      5        6           0.047342464   -0.007009354    0.043148008
      6        6          -0.001841127    0.001455811   -0.009510237
      7        6          -0.018157545    0.001854266   -0.011028304
      8        6           0.000704478   -0.002224324    0.014675962
      9        6           0.009427369    0.001317104   -0.009367131
     10        6          -0.019978953    0.009139513   -0.059127664
     11        1           0.005524343   -0.001281809    0.008105389
     12        1           0.010583217    0.000194978   -0.002017543
     13        1           0.004202957    0.001281442   -0.008771126
     14        1          -0.005784512    0.001419850   -0.009001470
     15        7           0.004469973    0.002311504   -0.015608828
     16        1          -0.006453765    0.000986110   -0.006084391
 -------------------------------------------------------------------
 Cartesian Forces:  Max     0.059183207 RMS     0.019497892

 GradGradGradGradGradGradGradGradGradGradGradGradGradGradGradGradGradGrad
 Berny optimization.
 FormGI is forming the generalized inverse of G from B-inverse, IUseBI=4.
 Internal  Forces:  Max     0.053339414 RMS     0.010807960
 Search for a local minimum.
 Step number   1 out of a maximum of   94
 All quantities printed in internal units (Hartrees-Bohrs-Radians)
 Mixed Optimization -- RFO/linear search
 Second derivative matrix not updated -- first step.
 ITU=  0
     Eigenvalues ---    0.01860   0.01895   0.01902   0.02068   0.02080
     Eigenvalues ---    0.02086   0.02127   0.02200   0.02213   0.02278
     Eigenvalues ---    0.02323   0.02358   0.02380   0.16000   0.16000
     Eigenvalues ---    0.16000   0.16000   0.16000   0.16000   0.16000
     Eigenvalues ---    0.22000   0.22203   0.22697   0.24057   0.24673
     Eigenvalues ---    0.37230   0.37230   0.37230   0.37230   0.37230
     Eigenvalues ---    0.37230   0.38960   0.40898   0.41789   0.43284
     Eigenvalues ---    0.43732   0.46001   0.46371   0.47688   0.47929
     Eigenvalues ---    0.52579   0.54391
 RFO step:  Lambda=-2.24066311D-02 EMin= 1.86035355D-02
 Linear search not attempted -- first point.
 Iteration  1 RMS(Cart)=  0.03795757 RMS(Int)=  0.00053660
 Iteration  2 RMS(Cart)=  0.00062729 RMS(Int)=  0.00020348
 Iteration  3 RMS(Cart)=  0.00000027 RMS(Int)=  0.00020348
 Variable       Old X    -DE/DX   Delta X   Delta X   Delta X     New X
                                 (Linear)    (Quad)   (Total)
    R1        2.02201   0.00734   0.00000   0.01860   0.01860   2.04061
    R2        2.65273  -0.03002   0.00000  -0.07086  -0.07131   2.58142
    R3        2.55513   0.04235   0.00000   0.07048   0.07041   2.62555
    R4        2.02201   0.00796   0.00000   0.02016   0.02016   2.04217
    R5        2.62333   0.03597   0.00000   0.07268   0.07247   2.69580
    R6        2.62749   0.00314   0.00000   0.00884   0.00910   2.63659
    R7        2.59248   0.05334   0.00000   0.11272   0.11314   2.70562
    R8        2.66581   0.01127   0.00000   0.02115   0.02129   2.68710
    R9        2.02201   0.00989   0.00000   0.02505   0.02505   2.04705
   R10        2.68523  -0.00372   0.00000  -0.01429  -0.01439   2.67083
   R11        2.02201   0.01075   0.00000   0.02724   0.02724   2.04925
   R12        2.66807  -0.00157   0.00000  -0.00596  -0.00621   2.66186
   R13        2.02201   0.00980   0.00000   0.02484   0.02484   2.04684
   R14        2.62983   0.01297   0.00000   0.02952   0.02938   2.65921
   R15        2.02201   0.01075   0.00000   0.02723   0.02723   2.04923
   R16        2.54075   0.00831   0.00000   0.01762   0.01802   2.55876
   R17        1.88973   0.00885   0.00000   0.01773   0.01773   1.90745
    A1        2.19582   0.00614   0.00000   0.04616   0.04638   2.24220
    A2        2.19582  -0.01045   0.00000  -0.04482  -0.04460   2.15122
    A3        1.89154   0.00431   0.00000  -0.00135  -0.00178   1.88977
    A4        2.21605  -0.00574   0.00000  -0.02172  -0.02144   2.19461
    A5        1.85109   0.00713   0.00000   0.01966   0.01909   1.87018
    A6        2.21605  -0.00140   0.00000   0.00206   0.00235   2.21839
    A7        2.26897   0.01915   0.00000   0.05458   0.05427   2.32324
    A8        1.87795  -0.00183   0.00000  -0.00003  -0.00011   1.87784
    A9        2.13627  -0.01732   0.00000  -0.05454  -0.05417   2.08210
   A10        2.05096   0.00022   0.00000   0.00246   0.00296   2.05392
   A11        2.11611  -0.00048   0.00000  -0.00326  -0.00351   2.11260
   A12        2.11611   0.00026   0.00000   0.00080   0.00055   2.11667
   A13        2.09958   0.01217   0.00000   0.03575   0.03586   2.13544
   A14        2.09180  -0.00539   0.00000  -0.01406  -0.01412   2.07768
   A15        2.09181  -0.00678   0.00000  -0.02168  -0.02174   2.07007
   A16        2.10149   0.00434   0.00000   0.00493   0.00463   2.10612
   A17        2.09085  -0.00255   0.00000  -0.00454  -0.00439   2.08646
   A18        2.09085  -0.00179   0.00000  -0.00039  -0.00024   2.09061
   A19        2.05481  -0.00650   0.00000  -0.02228  -0.02263   2.03218
   A20        2.11419   0.00224   0.00000   0.00557   0.00575   2.11993
   A21        2.11419   0.00427   0.00000   0.01671   0.01689   2.13107
   A22        2.12327   0.00709   0.00000   0.03370   0.03336   2.15662
   A23        1.90643  -0.01945   0.00000  -0.06000  -0.05928   1.84715
   A24        2.25349   0.01237   0.00000   0.02631   0.02592   2.27941
   A25        1.89776   0.00984   0.00000   0.04172   0.04208   1.93984
   A26        2.19271  -0.00385   0.00000  -0.01498  -0.01515   2.17756
   A27        2.19271  -0.00599   0.00000  -0.02674  -0.02692   2.16579
    D1        0.00000  -0.00000   0.00000  -0.00000  -0.00000   0.00000
    D2       -3.14159  -0.00000   0.00000  -0.00000  -0.00000  -3.14159
    D3        3.14159   0.00000   0.00000   0.00000   0.00000   3.14159
    D4       -0.00000   0.00000   0.00000   0.00000   0.00000   0.00000
    D5        3.14159   0.00000   0.00000   0.00000   0.00000   3.14159
    D6        0.00000   0.00000   0.00000   0.00000   0.00000   0.00000
    D7        0.00000  -0.00000   0.00000  -0.00000  -0.00000  -0.00000
    D8       -3.14159  -0.00000   0.00000  -0.00000  -0.00000  -3.14159
    D9        3.14159  -0.00000   0.00000   0.00000   0.00000   3.14159
   D10        0.00000  -0.00000   0.00000  -0.00000  -0.00000   0.00000
   D11       -0.00000  -0.00000   0.00000   0.00000   0.00000  -0.00000
   D12       -3.14159  -0.00000   0.00000  -0.00000  -0.00000  -3.14159
   D13       -3.14159  -0.00000   0.00000  -0.00000  -0.00000  -3.14159
   D14        0.00000  -0.00000   0.00000  -0.00000  -0.00000   0.00000
   D15       -0.00000   0.00000   0.00000   0.00000   0.00000  -0.00000
   D16        3.14159   0.00000   0.00000   0.00000   0.00000   3.14159
   D17        3.14159   0.00000   0.00000   0.00000   0.00000   3.14159
   D18       -0.00000   0.00000   0.00000   0.00000   0.00000  -0.00000
   D19       -0.00000  -0.00000   0.00000  -0.00000  -0.00000  -0.00000
   D20       -3.14159  -0.00000   0.00000  -0.00000  -0.00000  -3.14159
   D21       -0.00000   0.00000   0.00000   0.00000   0.00000  -0.00000
   D22       -3.14159  -0.00000   0.00000  -0.00000  -0.00000  -3.14159
   D23       -3.14159  -0.00000   0.00000  -0.00000  -0.00000  -3.14159
   D24        0.00000  -0.00000   0.00000  -0.00000  -0.00000   0.00000
   D25        0.00000  -0.00000   0.00000  -0.00000  -0.00000   0.00000
   D26       -3.14159  -0.00000   0.00000  -0.00000  -0.00000  -3.14159
   D27       -3.14159   0.00000   0.00000  -0.00000  -0.00000  -3.14159
   D28        0.00000  -0.00000   0.00000  -0.00000  -0.00000   0.00000
   D29       -0.00000   0.00000   0.00000   0.00000   0.00000  -0.00000
   D30        3.14159   0.00000   0.00000   0.00000   0.00000   3.14159
   D31        3.14159   0.00000   0.00000   0.00000   0.00000   3.14159
   D32       -0.00000   0.00000   0.00000   0.00000   0.00000  -0.00000
   D33        0.00000  -0.00000   0.00000  -0.00000  -0.00000   0.00000
   D34        3.14159  -0.00000   0.00000   0.00000   0.00000   3.14159
   D35        3.14159   0.00000   0.00000   0.00000   0.00000  -3.14159
   D36       -0.00000   0.00000   0.00000   0.00000   0.00000  -0.00000
   D37        0.00000  -0.00000   0.00000  -0.00000  -0.00000   0.00000
   D38        3.14159   0.00000   0.00000   0.00000   0.00000   3.14159
   D39       -3.14159  -0.00000   0.00000  -0.00000  -0.00000  -3.14159
   D40        0.00000   0.00000   0.00000   0.00000   0.00000   0.00000
         Item               Value     Threshold  Converged?
 Maximum Force            0.053339     0.000450     NO 
 RMS     Force            0.010808     0.000300     NO 
 Maximum Displacement     0.129324     0.001800     NO 
 RMS     Displacement     0.037805     0.001200     NO 
 Predicted change in Energy=-1.180865D-02
 GradGradGradGradGradGradGradGradGradGradGradGradGradGradGradGradGradGrad

                          Input orientation:                          
 ---------------------------------------------------------------------
 Center     Atomic      Atomic             Coordinates (Angstroms)
 Number     Number       Type             X           Y           Z
 ---------------------------------------------------------------------
      1          6           0       -1.339229    2.081111    1.445472
      2          1           0       -2.255397    2.005046    2.011960
      3          6           0       -0.052236    1.999682    1.896091
      4          1           0        0.248603    1.841592    2.921931
      5          6           0        0.800882    2.161802    0.764290
      6          6           0        2.187388    2.170898    0.608835
      7          6           0        2.703879    2.363548   -0.701917
      8          6           0        1.866234    2.542081   -1.826203
      9          6           0        0.464623    2.535487   -1.686272
     10          6           0       -0.034088    2.343997   -0.384425
     11          1           0        2.845661    2.035723    1.458449
     12          1           0        3.778353    2.374470   -0.848025
     13          1           0        2.308592    2.685272   -2.804474
     14          1           0       -0.190079    2.671252   -2.540014
     15          7           0       -1.307669    2.288268    0.071985
     16          1           0       -2.123542    2.385311   -0.514345
 ---------------------------------------------------------------------
                    Distance matrix (angstroms):
                    1          2          3          4          5
     1  C    0.000000
     2  H    1.079842   0.000000
     3  C    1.366031   2.206212   0.000000
     4  H    2.181401   2.669228   1.080668   0.000000
     5  C    2.247352   3.304858   1.426557   2.250102   0.000000
     6  C    3.625610   4.662039   2.588872   3.036073   1.395224
     7  C    4.586696   5.664634   3.805025   4.408298   2.410781
     8  C    4.603406   5.657539   4.222582   5.064799   2.826702
     9  C    3.642548   4.621341   3.658901   4.665157   2.501593
    10  C    2.262968   3.285082   2.306434   3.356235   1.431753
    11  H    4.185156   5.131092   2.930979   2.987336   2.163071
    12  H    5.615677   6.687460   4.726949   5.191884   3.392657
    13  H    5.633263   6.670138   5.304607   6.143864   3.909385
    14  H    4.189619   5.042800   4.488767   5.541986   3.487114
    15  N    1.389379   2.177591   2.233104   3.277757   2.222895
    16  H    2.132737   2.558165   3.201441   4.210784   3.199550
                    6          7          8          9         10
     6  C    0.000000
     7  C    1.421953   0.000000
     8  C    2.484015   1.413344   0.000000
     9  C    2.892812   2.452099   1.408594   0.000000
    10  C    2.439567   2.756383   2.393572   1.407191   0.000000
    11  H    1.083253   2.189692   3.464767   3.975975   3.432808
    12  H    2.166807   1.084417   2.154327   3.421899   3.840646
    13  H    3.453976   2.163447   1.083143   2.161720   3.385448
    14  H    3.977179   3.442132   2.180512   1.084408   2.185862
    15  N    3.537995   4.086210   3.706912   2.508706   1.354040
    16  H    4.460003   4.831114   4.202840   2.845095   2.093897
                   11         12         13         14         15
    11  H    0.000000
    12  H    2.510873   0.000000
    13  H    4.345442   2.466676   0.000000
    14  H    5.060367   4.324276   2.512666   0.000000
    15  N    4.385910   5.169281   4.637777   2.866744   0.000000
    16  H    5.357902   5.911331   4.997848   2.814849   1.009382
                   16
    16  H    0.000000
 Stoichiometry    C8H7N
 Framework group  C1[X(C8H7N)]
 Deg. of freedom    42
 Full point group                 C1      NOp   1
 Largest Abelian subgroup         C1      NOp   1
 Largest concise Abelian subgroup C1      NOp   1
                         Standard orientation:                         
 ---------------------------------------------------------------------
 Center     Atomic      Atomic             Coordinates (Angstroms)
 Number     Number       Type             X           Y           Z
 ---------------------------------------------------------------------
      1          6           0        2.390363   -0.001097    0.000001
      2          1           0        3.465673   -0.099914    0.000004
      3          6           0        1.642013    1.141712    0.000000
      4          1           0        2.029995    2.150332    0.000001
      5          6           0        0.271162    0.746955   -0.000002
      6          6           0       -0.926988    1.461859   -0.000000
      7          6           0       -2.139457    0.718981    0.000001
      8          6           0       -2.160565   -0.694206    0.000001
      9          6           0       -0.959892   -1.430767    0.000000
     10          6           0        0.232986   -0.684288   -0.000002
     11          1           0       -0.931142    2.545104    0.000002
     12          1           0       -3.083641    1.252344    0.000002
     13          1           0       -3.110735   -1.214183   -0.000000
     14          1           0       -0.961103   -2.515174    0.000000
     15          7           0        1.525335   -1.088342   -0.000000
     16          1           0        1.815877   -2.055005    0.000002
 ---------------------------------------------------------------------
 Rotational constants (GHZ):           3.8392523           1.6405029           1.1493770
 Standard basis: 6-31+G(d) (6D, 7F)
 There are   185 symmetry adapted cartesian basis functions of A   symmetry.
 There are   185 symmetry adapted basis functions of A   symmetry.
   185 basis functions,   316 primitive gaussians,   185 cartesian basis functions
    31 alpha electrons       31 beta electrons
       nuclear repulsion energy       399.6956271589 Hartrees.
 NAtoms=   16 NActive=   16 NUniq=   16 SFac= 1.00D+00 NAtFMM=   60 NAOKFM=F Big=F
 Integral buffers will be    131072 words long.
 Raffenetti 1 integral format.
 Two-electron integral symmetry is turned on.
 One-electron integrals computed using PRISM.
 NBasis=   185 RedAO= T EigKep=  1.41D-06  NBF=   185
 NBsUse=   185 1.00D-06 EigRej= -1.00D+00 NBFU=   185
 Initial guess from the checkpoint file:  "/scratch/gfoley1/16945499/Gau-18983.chk"
 B after Tr=    -0.000000   -0.000000   -0.000000
         Rot=    0.999904   -0.000000   -0.000000    0.013840 Ang=   1.59 deg.
 ExpMin= 4.38D-02 ExpMax= 4.17D+03 ExpMxC= 6.27D+02 IAcc=3 IRadAn=         5 AccDes= 0.00D+00
 Harris functional with IExCor=10402 and IRadAn=       5 diagonalized for initial guess.
 HarFok:  IExCor=10402 AccDes= 0.00D+00 IRadAn=         5 IDoV= 1 UseB2=F ITyADJ=14
 ICtDFT=  3500011 ScaDFX=  1.000000  1.000000  1.000000  1.000000
 FoFCou: FMM=F IPFlag=           0 FMFlag=      100000 FMFlg1=           0
         NFxFlg=           0 DoJE=T BraDBF=F KetDBF=T FulRan=T
         wScrn=  0.000000 ICntrl=       500 IOpCl=  0 I1Cent=   200000004 NGrid=           0
         NMat0=    1 NMatS0=      1 NMatT0=    0 NMatD0=    1 NMtDS0=    0 NMtDT0=    0
 Petite list used in FoFCou.
 Requested convergence on RMS density matrix=1.00D-08 within 128 cycles.
 Requested convergence on MAX density matrix=1.00D-06.
 Requested convergence on             energy=1.00D-06.
 No special actions if energy rises.
 SCF Done:  E(RLC-B+HF-LYP) =  -362.730287584     A.U. after   17 cycles
            NFock= 17  Conv=0.33D-08     -V/T= 2.0095
 DoSCS=F DFT=T ScalE2(SS,OS)=  1.000000  1.000000
 ExpMin= 4.38D-02 ExpMax= 4.17D+03 ExpMxC= 6.27D+02 IAcc=3 IRadAn=         5 AccDes= 0.00D+00
 HarFok:  IExCor=  205 AccDes= 0.00D+00 IRadAn=         5 IDoV=-2 UseB2=F ITyADJ=14
 ICtDFT= 12500011 ScaDFX=  1.000000  1.000000  1.000000  1.000000
 Range of M.O.s used for correlation:    10   185
 NBasis=   185 NAE=    31 NBE=    31 NFC=     9 NFV=     0
 NROrb=    176 NOA=    22 NOB=    22 NVA=   154 NVB=   154

 **** Warning!!: The largest alpha MO coefficient is  0.21336741D+03

 Orbital symmetries:
       Occupied  (A) (A) (A) (A) (A) (A) (A) (A) (A) (A) (A) (A)
                 (A) (A) (A) (A) (A) (A) (A) (A) (A) (A) (A) (A)
                 (A) (A) (A) (A) (A) (A) (A)
       Virtual   (A) (A) (A) (A) (A) (A) (A) (A) (A) (A) (A) (A)
                 (A) (A) (A) (A) (A) (A) (A) (A) (A) (A) (A) (A)
                 (A) (A) (A) (A) (A) (A) (A) (A) (A) (A) (A) (A)
                 (A) (A) (A) (A) (A) (A) (A) (A) (A) (A) (A) (A)
                 (A) (A) (A) (A) (A) (A) (A) (A) (A) (A) (A) (A)
                 (A) (A) (A) (A) (A) (A) (A) (A) (A) (A) (A) (A)
                 (A) (A) (A) (A) (A) (A) (A) (A) (A) (A) (A) (A)
                 (A) (A) (A) (A) (A) (A) (A) (A) (A) (A) (A) (A)
                 (A) (A) (A) (A) (A) (A) (A) (A) (A) (A) (A) (A)
                 (A) (A) (A) (A) (A) (A) (A) (A) (A) (A) (A) (A)
                 (A) (A) (A) (A) (A) (A) (A) (A) (A) (A) (A) (A)
                 (A) (A) (A) (A) (A) (A) (A) (A) (A) (A) (A) (A)
                 (A) (A) (A) (A) (A) (A) (A) (A) (A) (A)
 Generating guess from densities on rwf.
 Convergence on wavefunction:    0.000001000000000
 Iteration     1 Dimension     6 NMult     0 NNew      6
 CISAX will form     6 AO SS matrices at one time.
 New state      1 was old state      2
 New state      2 was old state      1
 Iteration     2 Dimension    12 NMult     6 NNew      6
 Iteration     3 Dimension    18 NMult    12 NNew      6
 Iteration     4 Dimension    24 NMult    18 NNew      6
 Iteration     5 Dimension    30 NMult    24 NNew      6
 Iteration     6 Dimension    36 NMult    30 NNew      6
 Iteration     7 Dimension    42 NMult    36 NNew      6
 Iteration     8 Dimension    48 NMult    42 NNew      6
 Iteration     9 Dimension    54 NMult    48 NNew      6
 Iteration    10 Dimension    60 NMult    54 NNew      6
 Iteration    11 Dimension    66 NMult    60 NNew      6
 Iteration    12 Dimension    70 NMult    66 NNew      4
 Iteration    13 Dimension    72 NMult    70 NNew      2
 Iteration    14 Dimension    74 NMult    72 NNew      2
 Iteration    15 Dimension    76 NMult    74 NNew      2
 Iteration    16 Dimension    78 NMult    76 NNew      2
 Iteration    17 Dimension    80 NMult    78 NNew      2
 ***********************************************************************
 Excited states from <AA,BB:AA,BB> singles matrix:
 ***********************************************************************
 
 Ground to excited state transition densities written to RWF  633
 Ground to excited state transition electric dipole moments (Au):
       state          X           Y           Z        Dip. S.      Osc.
         1        -0.7128      0.6448     -0.0000      0.9239      0.1187
         2        -0.4522     -0.5193      0.0000      0.4741      0.0581
         3         0.0000     -0.0000     -0.1551      0.0240      0.0034
 Ground to excited state transition velocity dipole moments (Au):
       state          X           Y           Z        Dip. S.      Osc.
         1         0.1252     -0.1297      0.0000      0.0325      0.1124
         2         0.0812      0.1006     -0.0000      0.0167      0.0606
         3        -0.0000      0.0000      0.0226      0.0005      0.0016
 Ground to excited state transition magnetic dipole moments (Au):
       state          X           Y           Z
         1         0.0000      0.0000      0.0309
         2        -0.0000     -0.0000     -0.2295
         3         0.0965     -0.0558      0.0000
 Ground to excited state transition velocity quadrupole moments (Au):
       state          XX          YY          ZZ          XY          XZ          YZ
         1         0.2981     -0.1970      0.0260     -0.0245     -0.0000      0.0000
         2        -0.0394     -0.0683      0.0154     -0.0550     -0.0000     -0.0000
         3        -0.0000      0.0000      0.0000      0.0000      0.0774      0.0394
 <0|del|b> * <b|rxdel|0> + <0|del|b> * <b|delr+rdel|0>
 Rotatory Strengths (R) in cgs (10**-40 erg-esu-cm/Gauss)
       state          XX          YY          ZZ    R(velocity)    E-M Angle
         1        -0.0000      0.0003      0.0002      0.0002       90.00
         2         0.0001     -0.0001     -0.0001     -0.0000       90.00
         3         0.0001     -0.0000     -0.0000      0.0000       90.00
 1/2[<0|r|b>*<b|rxdel|0> + (<0|rxdel|b>*<b|r|0>)*]
 Rotatory Strengths (R) in cgs (10**-40 erg-esu-cm/Gauss)
       state          XX          YY          ZZ     R(length)
         1         0.0006     -0.0000      0.0000      0.0002
         2        -0.0002     -0.0000      0.0001     -0.0000
         3        -0.0002     -0.0000      0.0002      0.0000
  1/2[<0|del|b>*<b|r|0> + (<0|r|b>*<b|del|0>)*] (Au)
       state          X           Y           Z        Dip. S.   Osc.(frdel)
         1        -0.0893     -0.0836     -0.0000      0.1729      0.1152
         2        -0.0367     -0.0522     -0.0000      0.0889      0.0593
         3        -0.0000     -0.0000     -0.0035      0.0035      0.0023

 Excitation energies and oscillator strengths:
 
 Excited State   1:      Singlet-A      5.2461 eV  236.33 nm  f=0.1187  <S**2>=0.000
      30 -> 33        -0.24849
      30 -> 38        -0.19899
      31 -> 33         0.58079
      31 -> 38        -0.17914
 
 Excited State   2:      Singlet-A      5.0048 eV  247.73 nm  f=0.0581  <S**2>=0.000
      30 -> 33        -0.53669
      30 -> 38         0.12213
      31 -> 33        -0.28397
      31 -> 38        -0.25801
      31 -> 42         0.10870
 This state for optimization and/or second-order correction.
 Total Energy, E(TD-HF/TD-DFT) =  -362.546364355    
 Copying the excited state density for this state as the 1-particle RhoCI density.
 
 Excited State   3:      Singlet-A      5.8109 eV  213.36 nm  f=0.0034  <S**2>=0.000
      31 -> 32         0.65008
      31 -> 40         0.12454
 SavETr:  write IOETrn=   770 NScale= 10 NData=  16 NLR=1 NState=    3 LETran=      64.
          IDoAtm=1111111111111111
          Differentiating once with respect to electric field.
                with respect to dipole field.
          Differentiating once with respect to nuclear coordinates.
          There are     1 degrees of freedom in the 1st order CPHF.  IDoFFX=0 NUNeed=     1.
 LinEq1:  Iter=  0 NonCon=     1 RMS=3.71D-03 Max=7.21D-02 NDo=     1
 AX will form     1 AO Fock derivatives at one time.
 LinEq1:  Iter=  1 NonCon=     1 RMS=1.45D-03 Max=4.32D-02 NDo=     1
 LinEq1:  Iter=  2 NonCon=     1 RMS=6.25D-04 Max=1.66D-02 NDo=     1
 LinEq1:  Iter=  3 NonCon=     1 RMS=3.40D-04 Max=1.01D-02 NDo=     1
 LinEq1:  Iter=  4 NonCon=     1 RMS=1.14D-04 Max=2.12D-03 NDo=     1
 LinEq1:  Iter=  5 NonCon=     1 RMS=5.01D-05 Max=1.35D-03 NDo=     1
 LinEq1:  Iter=  6 NonCon=     1 RMS=2.20D-05 Max=5.70D-04 NDo=     1
 LinEq1:  Iter=  7 NonCon=     1 RMS=7.83D-06 Max=1.61D-04 NDo=     1
 LinEq1:  Iter=  8 NonCon=     1 RMS=4.01D-06 Max=9.85D-05 NDo=     1
 LinEq1:  Iter=  9 NonCon=     1 RMS=1.34D-06 Max=2.40D-05 NDo=     1
 LinEq1:  Iter= 10 NonCon=     1 RMS=6.86D-07 Max=1.30D-05 NDo=     1
 LinEq1:  Iter= 11 NonCon=     1 RMS=2.37D-07 Max=4.87D-06 NDo=     1
 LinEq1:  Iter= 12 NonCon=     1 RMS=1.05D-07 Max=1.85D-06 NDo=     1
 LinEq1:  Iter= 13 NonCon=     1 RMS=3.59D-08 Max=6.58D-07 NDo=     1
 LinEq1:  Iter= 14 NonCon=     1 RMS=1.25D-08 Max=1.69D-07 NDo=     1
 LinEq1:  Iter= 15 NonCon=     1 RMS=4.75D-09 Max=1.12D-07 NDo=     1
 LinEq1:  Iter= 16 NonCon=     1 RMS=1.14D-09 Max=2.01D-08 NDo=     1
 LinEq1:  Iter= 17 NonCon=     1 RMS=3.89D-10 Max=5.37D-09 NDo=     1
 LinEq1:  Iter= 18 NonCon=     1 RMS=1.38D-10 Max=1.68D-09 NDo=     1
 LinEq1:  Iter= 19 NonCon=     0 RMS=3.11D-11 Max=4.96D-10 NDo=     1
 Linear equations converged to 1.000D-10 1.000D-09 after    19 iterations.
 End of Minotr F.D. properties file   721 does not exist.
 End of Minotr F.D. properties file   722 does not exist.
 End of Minotr F.D. properties file   788 does not exist.
 Calling FoFJK, ICntrl=  10005127 FMM=F ISym2X=0 I1Cent= 0 IOpClX= 0 NMat=1 NMatS=1 NMatT=0.
 ***** Axes restored to original set *****
 -------------------------------------------------------------------
 Center     Atomic                   Forces (Hartrees/Bohr)
 Number     Number              X              Y              Z
 -------------------------------------------------------------------
      1        6           0.008931427   -0.002853739    0.018277898
      2        1          -0.002249366    0.000697250   -0.004461575
      3        6          -0.011056669    0.001270547   -0.007651534
      4        1           0.000786229    0.000026374   -0.000228532
      5        6           0.010437325   -0.001570367    0.009678539
      6        6           0.001876517    0.000482451   -0.003322034
      7        6          -0.007010376    0.000473645   -0.002654180
      8        6           0.003394731   -0.000814601    0.005158862
      9        6          -0.000783814    0.000332648   -0.002148892
     10        6          -0.011338303    0.000163838   -0.000304623
     11        1           0.001006357    0.000097973   -0.000717913
     12        1           0.000501051   -0.000058345    0.000351833
     13        1           0.000520028   -0.000031024    0.000169954
     14        1          -0.000324650   -0.000139508    0.000945823
     15        7           0.006226732    0.001899572   -0.013002393
     16        1          -0.000917221    0.000023286   -0.000091233
 -------------------------------------------------------------------
 Cartesian Forces:  Max     0.018277898 RMS     0.005194469

 GradGradGradGradGradGradGradGradGradGradGradGradGradGradGradGradGradGrad
 Berny optimization.
 Using GEDIIS/GDIIS optimizer.
 FormGI is forming the generalized inverse of G from B-inverse, IUseBI=4.
 Internal  Forces:  Max     0.008332037 RMS     0.002273044
 Search for a local minimum.
 Step number   2 out of a maximum of   94
 All quantities printed in internal units (Hartrees-Bohrs-Radians)
 Mixed Optimization -- RFO/linear search
 Update second derivatives using D2CorX and points    1    2
 DE= -1.24D-02 DEPred=-1.18D-02 R= 1.05D+00
 TightC=F SS=  1.41D+00  RLast= 2.36D-01 DXNew= 5.0454D-01 7.0730D-01
 Trust test= 1.05D+00 RLast= 2.36D-01 DXMaxT set to 5.05D-01
 ITU=  1  0
 Use linear search instead of GDIIS.
     Eigenvalues ---    0.01860   0.01895   0.01900   0.02068   0.02078
     Eigenvalues ---    0.02084   0.02126   0.02193   0.02212   0.02273
     Eigenvalues ---    0.02320   0.02357   0.02380   0.15231   0.16000
     Eigenvalues ---    0.16000   0.16000   0.16000   0.16000   0.16082
     Eigenvalues ---    0.21815   0.22054   0.22694   0.24006   0.24980
     Eigenvalues ---    0.36252   0.37230   0.37230   0.37230   0.37230
     Eigenvalues ---    0.37260   0.37662   0.41052   0.42234   0.43302
     Eigenvalues ---    0.43960   0.46250   0.46766   0.47677   0.47982
     Eigenvalues ---    0.50430   0.56738
 RFO step:  Lambda=-1.24724088D-03 EMin= 1.86041171D-02
 Quartic linear search produced a step of  0.15192.
 Iteration  1 RMS(Cart)=  0.01349111 RMS(Int)=  0.00021143
 Iteration  2 RMS(Cart)=  0.00023093 RMS(Int)=  0.00003445
 Iteration  3 RMS(Cart)=  0.00000001 RMS(Int)=  0.00003445
 Variable       Old X    -DE/DX   Delta X   Delta X   Delta X     New X
                                 (Linear)    (Quad)   (Total)
    R1        2.04061  -0.00048   0.00283  -0.00331  -0.00048   2.04012
    R2        2.58142  -0.00654  -0.01083  -0.01040  -0.02130   2.56012
    R3        2.62555   0.00833   0.01070   0.01020   0.02085   2.64640
    R4        2.04217  -0.00000   0.00306  -0.00198   0.00108   2.04325
    R5        2.69580   0.00128   0.01101  -0.00391   0.00711   2.70291
    R6        2.63659   0.00060   0.00138   0.00112   0.00256   2.63915
    R7        2.70562   0.00730   0.01719   0.00739   0.02466   2.73028
    R8        2.68710  -0.00253   0.00323  -0.00958  -0.00631   2.68080
    R9        2.04705   0.00004   0.00380  -0.00234   0.00146   2.04851
   R10        2.67083  -0.00562  -0.00219  -0.01532  -0.01751   2.65332
   R11        2.04925   0.00045   0.00414  -0.00129   0.00285   2.05210
   R12        2.66186  -0.00018  -0.00094  -0.00045  -0.00144   2.66041
   R13        2.04684   0.00005   0.00377  -0.00227   0.00151   2.04835
   R14        2.65921  -0.00052   0.00446  -0.00331   0.00111   2.66032
   R15        2.04923  -0.00057   0.00414  -0.00441  -0.00028   2.04896
   R16        2.55876  -0.00827   0.00274  -0.01837  -0.01560   2.54316
   R17        1.90745   0.00080   0.00269   0.00018   0.00287   1.91033
    A1        2.24220   0.00534   0.00705   0.03393   0.04103   2.28323
    A2        2.15122  -0.00491  -0.00678  -0.03039  -0.03711   2.11411
    A3        1.88977  -0.00043  -0.00027  -0.00354  -0.00391   1.88585
    A4        2.19461  -0.00064  -0.00326   0.00053  -0.00271   2.19190
    A5        1.87018   0.00295   0.00290   0.01321   0.01607   1.88625
    A6        2.21839  -0.00231   0.00036  -0.01374  -0.01336   2.20503
    A7        2.32324   0.00612   0.00825   0.01989   0.02805   2.35130
    A8        1.87784  -0.00395  -0.00002  -0.01794  -0.01791   1.85993
    A9        2.08210  -0.00217  -0.00823  -0.00195  -0.01014   2.07196
   A10        2.05392  -0.00062   0.00045  -0.00388  -0.00333   2.05059
   A11        2.11260   0.00158  -0.00053   0.01120   0.01061   2.12322
   A12        2.11667  -0.00096   0.00008  -0.00732  -0.00729   2.10938
   A13        2.13544   0.00306   0.00545   0.00813   0.01362   2.14905
   A14        2.07768  -0.00196  -0.00215  -0.00751  -0.00968   2.06800
   A15        2.07007  -0.00110  -0.00330  -0.00061  -0.00394   2.06613
   A16        2.10612   0.00099   0.00070   0.00110   0.00175   2.10787
   A17        2.08646  -0.00105  -0.00067  -0.00433  -0.00497   2.08148
   A18        2.09061   0.00006  -0.00004   0.00323   0.00322   2.09383
   A19        2.03218  -0.00115  -0.00344  -0.00279  -0.00630   2.02588
   A20        2.11993   0.00143   0.00087   0.00806   0.00897   2.12890
   A21        2.13107  -0.00028   0.00257  -0.00527  -0.00267   2.12841
   A22        2.15662  -0.00010   0.00507  -0.00061   0.00440   2.16102
   A23        1.84715   0.00211  -0.00901   0.01560   0.00670   1.85385
   A24        2.27941  -0.00201   0.00394  -0.01499  -0.01110   2.26831
   A25        1.93984  -0.00068   0.00639  -0.00733  -0.00094   1.93889
   A26        2.17756  -0.00010  -0.00230  -0.00007  -0.00237   2.17519
   A27        2.16579   0.00078  -0.00409   0.00740   0.00332   2.16911
    D1        0.00000  -0.00000  -0.00000  -0.00000  -0.00000   0.00000
    D2       -3.14159  -0.00000  -0.00000  -0.00000  -0.00000  -3.14159
    D3        3.14159   0.00000   0.00000   0.00000   0.00000  -3.14159
    D4        0.00000  -0.00000   0.00000  -0.00000  -0.00000   0.00000
    D5        3.14159   0.00000   0.00000   0.00000   0.00000   3.14159
    D6        0.00000   0.00000   0.00000   0.00000   0.00000   0.00000
    D7       -0.00000   0.00000  -0.00000   0.00000   0.00000  -0.00000
    D8       -3.14159  -0.00000  -0.00000  -0.00000  -0.00000  -3.14159
    D9        3.14159   0.00000   0.00000   0.00000   0.00000   3.14159
   D10        0.00000  -0.00000  -0.00000  -0.00000  -0.00000  -0.00000
   D11       -0.00000   0.00000   0.00000   0.00000   0.00000  -0.00000
   D12       -3.14159  -0.00000  -0.00000  -0.00000  -0.00000   3.14159
   D13       -3.14159  -0.00000  -0.00000  -0.00000  -0.00000  -3.14159
   D14        0.00000  -0.00000  -0.00000  -0.00000  -0.00000   0.00000
   D15       -0.00000  -0.00000   0.00000  -0.00000  -0.00000  -0.00000
   D16        3.14159   0.00000   0.00000   0.00000   0.00000   3.14159
   D17        3.14159   0.00000   0.00000   0.00000   0.00000   3.14159
   D18       -0.00000   0.00000   0.00000   0.00000   0.00000   0.00000
   D19       -0.00000   0.00000  -0.00000   0.00000   0.00000   0.00000
   D20       -3.14159  -0.00000  -0.00000  -0.00000  -0.00000  -3.14159
   D21       -0.00000   0.00000   0.00000   0.00000   0.00000   0.00000
   D22       -3.14159   0.00000  -0.00000   0.00000   0.00000  -3.14159
   D23       -3.14159  -0.00000  -0.00000  -0.00000  -0.00000  -3.14159
   D24        0.00000  -0.00000  -0.00000  -0.00000  -0.00000   0.00000
   D25        0.00000  -0.00000  -0.00000  -0.00000  -0.00000   0.00000
   D26       -3.14159  -0.00000  -0.00000  -0.00000  -0.00000  -3.14159
   D27       -3.14159  -0.00000  -0.00000  -0.00000  -0.00000  -3.14159
   D28        0.00000  -0.00000  -0.00000  -0.00000  -0.00000   0.00000
   D29       -0.00000   0.00000   0.00000   0.00000   0.00000  -0.00000
   D30        3.14159   0.00000   0.00000   0.00000   0.00000   3.14159
   D31        3.14159   0.00000   0.00000   0.00000   0.00000   3.14159
   D32       -0.00000   0.00000   0.00000   0.00000   0.00000  -0.00000
   D33        0.00000  -0.00000  -0.00000  -0.00000  -0.00000   0.00000
   D34        3.14159   0.00000   0.00000   0.00000   0.00000   3.14159
   D35       -3.14159  -0.00000   0.00000  -0.00000  -0.00000   3.14159
   D36       -0.00000   0.00000   0.00000   0.00000   0.00000  -0.00000
   D37        0.00000  -0.00000  -0.00000  -0.00000  -0.00000  -0.00000
   D38        3.14159   0.00000   0.00000   0.00000   0.00000   3.14159
   D39       -3.14159  -0.00000  -0.00000  -0.00000  -0.00000  -3.14159
   D40        0.00000  -0.00000   0.00000  -0.00000  -0.00000  -0.00000
         Item               Value     Threshold  Converged?
 Maximum Force            0.008332     0.000450     NO 
 RMS     Force            0.002273     0.000300     NO 
 Maximum Displacement     0.058925     0.001800     NO 
 RMS     Displacement     0.013442     0.001200     NO 
 Predicted change in Energy=-8.106515D-04
 GradGradGradGradGradGradGradGradGradGradGradGradGradGradGradGradGradGrad

                          Input orientation:                          
 ---------------------------------------------------------------------
 Center     Atomic      Atomic             Coordinates (Angstroms)
 Number     Number       Type             X           Y           Z
 ---------------------------------------------------------------------
      1          6           0       -1.337125    2.079886    1.453441
      2          1           0       -2.276048    2.009834    1.981670
      3          6           0       -0.061015    1.999020    1.901074
      4          1           0        0.236571    1.840734    2.928435
      5          6           0        0.813316    2.159226    0.780496
      6          6           0        2.199306    2.170712    0.609253
      7          6           0        2.695062    2.364219   -0.705758
      8          6           0        1.861649    2.541455   -1.821751
      9          6           0        0.460709    2.535001   -1.682782
     10          6           0       -0.030748    2.342937   -0.377628
     11          1           0        2.876843    2.037446    1.444896
     12          1           0        3.770278    2.375975   -0.857439
     13          1           0        2.308148    2.684457   -2.799051
     14          1           0       -0.201079    2.670001   -2.530976
     15          7           0       -1.299026    2.288601    0.069193
     16          1           0       -2.114865    2.386035   -0.519735
 ---------------------------------------------------------------------
                    Distance matrix (angstroms):
                    1          2          3          4          5
     1  C    0.000000
     2  H    1.079587   0.000000
     3  C    1.354759   2.216525   0.000000
     4  H    2.170097   2.690393   1.081240   0.000000
     5  C    2.254672   3.318027   1.430320   2.246711   0.000000
     6  C    3.636929   4.683824   2.609086   3.056112   1.396576
     7  C    4.582741   5.662136   3.811155   4.418774   2.406645
     8  C    4.601313   5.645278   4.224961   5.069137   2.831394
     9  C    3.643519   4.603677   3.661078   4.668571   2.516600
    10  C    2.264649   3.273930   2.304708   3.354656   1.444800
    11  H    4.214190   5.180847   2.973312   3.034900   2.171267
    12  H    5.613680   6.689743   4.736063   5.206381   3.387246
    13  H    5.633579   6.657722   5.307913   6.148772   3.914531
    14  H    4.185023   5.010518   4.484741   5.539349   3.500820
    15  N    1.400413   2.165606   2.229870   3.276264   2.232640
    16  H    2.142903   2.534666   3.198187   4.209095   3.211898
                    6          7          8          9         10
     6  C    0.000000
     7  C    1.418616   0.000000
     8  C    2.482185   1.404077   0.000000
     9  C    2.899801   2.444601   1.407830   0.000000
    10  C    2.444737   2.745571   2.388737   1.407780   0.000000
    11  H    1.084027   2.182919   3.457691   3.983419   3.445142
    12  H    2.158998   1.085926   2.144796   3.414634   3.831332
    13  H    3.448524   2.152704   1.083941   2.163660   3.383838
    14  H    3.983990   3.436940   2.185033   1.084261   2.184694
    15  N    3.541736   4.069276   3.691811   2.495355   1.345783
    16  H    4.464645   4.813572   4.187131   2.829921   2.089401
                   11         12         13         14         15
    11  H    0.000000
    12  H    2.492704   0.000000
    13  H    4.330488   2.450071   0.000000
    14  H    5.067671   4.319590   2.523548   0.000000
    15  N    4.403807   5.154040   4.625498   2.848128   0.000000
    16  H    5.375727   5.894833   4.984715   2.790754   1.010902
                   16
    16  H    0.000000
 Stoichiometry    C8H7N
 Framework group  C1[X(C8H7N)]
 Deg. of freedom    42
 Full point group                 C1      NOp   1
 Largest Abelian subgroup         C1      NOp   1
 Largest concise Abelian subgroup C1      NOp   1
                         Standard orientation:                         
 ---------------------------------------------------------------------
 Center     Atomic      Atomic             Coordinates (Angstroms)
 Number     Number       Type             X           Y           Z
 ---------------------------------------------------------------------
      1          6           0        2.392635    0.002622    0.000000
      2          1           0        3.462601   -0.141192    0.000001
      3          6           0        1.651533    1.136704   -0.000000
      4          1           0        2.043401    2.144434   -0.000000
      5          6           0        0.270531    0.764346   -0.000001
      6          6           0       -0.936605    1.466660    0.000000
      7          6           0       -2.135459    0.708226    0.000000
      8          6           0       -2.155377   -0.695709    0.000000
      9          6           0       -0.956096   -1.433076    0.000000
     10          6           0        0.233308   -0.679975   -0.000001
     11          1           0       -0.964232    2.550335    0.000001
     12          1           0       -3.083449    1.237897    0.000001
     13          1           0       -3.108437   -1.212047   -0.000000
     14          1           0       -0.948674   -2.517312    0.000000
     15          7           0        1.515425   -1.089008    0.000000
     16          1           0        1.803997   -2.057847    0.000002
 ---------------------------------------------------------------------
 Rotational constants (GHZ):           3.8331351           1.6418364           1.1494819
 Standard basis: 6-31+G(d) (6D, 7F)
 There are   185 symmetry adapted cartesian basis functions of A   symmetry.
[...]
 ! D8    D(3,1,15,16)         -180.0            -DE/DX =    0.0                 !
 ! D9    D(1,3,5,6)           -180.0001         -DE/DX =    0.0                 !
 ! D10   D(1,3,5,10)             0.0            -DE/DX =    0.0                 !
 ! D11   D(4,3,5,6)             -0.0001         -DE/DX =    0.0                 !
 ! D12   D(4,3,5,10)          -180.0            -DE/DX =    0.0                 !
 ! D13   D(3,5,6,7)           -180.0            -DE/DX =    0.0                 !
 ! D14   D(3,5,6,11)             0.0            -DE/DX =    0.0                 !
 ! D15   D(10,5,6,7)            -0.0001         -DE/DX =    0.0                 !
 ! D16   D(10,5,6,11)          180.0            -DE/DX =    0.0                 !
 ! D17   D(3,5,10,9)           180.0            -DE/DX =    0.0                 !
 ! D18   D(3,5,10,15)            0.0            -DE/DX =    0.0                 !
 ! D19   D(6,5,10,9)             0.0001         -DE/DX =    0.0                 !
 ! D20   D(6,5,10,15)          180.0001         -DE/DX =    0.0                 !
 ! D21   D(5,6,7,8)              0.0            -DE/DX =    0.0                 !
 ! D22   D(5,6,7,12)          -180.0            -DE/DX =    0.0                 !
 ! D23   D(11,6,7,8)          -180.0            -DE/DX =    0.0                 !
 ! D24   D(11,6,7,12)            0.0            -DE/DX =    0.0                 !
 ! D25   D(6,7,8,9)              0.0            -DE/DX =    0.0                 !
 ! D26   D(6,7,8,13)           180.0            -DE/DX =    0.0                 !
 ! D27   D(12,7,8,9)           180.0            -DE/DX =    0.0                 !
 ! D28   D(12,7,8,13)            0.0            -DE/DX =    0.0                 !
 ! D29   D(7,8,9,10)             0.0            -DE/DX =    0.0                 !
 ! D30   D(7,8,9,14)          -180.0            -DE/DX =    0.0                 !
 ! D31   D(13,8,9,10)          180.0            -DE/DX =    0.0                 !
 ! D32   D(13,8,9,14)            0.0            -DE/DX =    0.0                 !
 ! D33   D(8,9,10,5)             0.0            -DE/DX =    0.0                 !
 ! D34   D(8,9,10,15)         -180.0            -DE/DX =    0.0                 !
 ! D35   D(14,9,10,5)          180.0            -DE/DX =    0.0                 !
 ! D36   D(14,9,10,15)           0.0            -DE/DX =    0.0                 !
 ! D37   D(5,10,15,1)            0.0            -DE/DX =    0.0                 !
 ! D38   D(5,10,15,16)         180.0            -DE/DX =    0.0                 !
 ! D39   D(9,10,15,1)         -180.0            -DE/DX =    0.0                 !
 ! D40   D(9,10,15,16)          -0.0001         -DE/DX =    0.0                 !
 --------------------------------------------------------------------------------
 GradGradGradGradGradGradGradGradGradGradGradGradGradGradGradGradGradGrad

                          Input orientation:                          
 ---------------------------------------------------------------------
 Center     Atomic      Atomic             Coordinates (Angstroms)
 Number     Number       Type             X           Y           Z
 ---------------------------------------------------------------------
      1          6           0       -1.338647    2.079378    1.456905
      2          1           0       -2.283836    2.011279    1.972631
      3          6           0       -0.060472    1.998748    1.902841
      4          1           0        0.241956    1.840630    2.928751
      5          6           0        0.814353    2.158593    0.784619
      6          6           0        2.199458    2.170588    0.610071
      7          6           0        2.692253    2.364220   -0.705570
      8          6           0        1.860078    2.541693   -1.823221
      9          6           0        0.460168    2.534918   -1.682203
     10          6           0       -0.029997    2.342442   -0.374396
     11          1           0        2.881325    2.037965    1.441149
     12          1           0        3.767354    2.375648   -0.855075
     13          1           0        2.307277    2.684541   -2.799552
     14          1           0       -0.206398    2.669276   -2.525818
     15          7           0       -1.294163    2.289048    0.065903
     16          1           0       -2.108733    2.386570   -0.523696
 ---------------------------------------------------------------------
                    Distance matrix (angstroms):
                    1          2          3          4          5
     1  C    0.000000
     2  H    1.078886   0.000000
     3  C    1.356131   2.224495   0.000000
     4  H    2.172933   2.706089   1.081183   0.000000
     5  C    2.256912   3.321424   1.428737   2.241884   0.000000
     6  C    3.639181   4.688484   2.609227   3.052371   1.396111
     7  C    4.583185   5.662048   3.809838   4.414339   2.406128
     8  C    4.604867   5.644631   4.226918   5.068633   2.835689
     9  C    3.646540   4.600172   3.662115   4.668036   2.520373
    10  C    2.266149   3.270780   2.303229   3.352098   1.445698
    11  H    4.220204   5.192502   2.978064   3.036144   2.172085
    12  H    5.612866   6.689214   4.732906   5.199232   3.384659
    13  H    5.637057   6.656226   5.309336   6.147454   3.918128
    14  H    4.182349   4.998476   4.481508   5.535341   3.501674
    15  N    1.407418   2.166154   2.231728   3.279732   2.231460
    16  H    2.147132   2.530445   3.199040   4.212266   3.210622
                    6          7          8          9         10
     6  C    0.000000
     7  C    1.418185   0.000000
     8  C    2.484714   1.404691   0.000000
     9  C    2.900412   2.442366   1.407010   0.000000
    10  C    2.443190   2.742406   2.389806   1.409847   0.000000
    11  H    1.083154   2.179585   3.457282   3.983000   3.444518
    12  H    2.155689   1.085507   2.145362   3.412768   3.827796
    13  H    3.449826   2.153038   1.083336   2.163947   3.385448
    14  H    3.983796   3.436355   2.186376   1.083535   2.183243
    15  N    3.537731   4.061075   3.685357   2.488776   1.339713
    16  H    4.460111   4.804481   4.179029   2.821950   2.084558
                   11         12         13         14         15
    11  H    0.000000
    12  H    2.484295   0.000000
    13  H    4.327949   2.451170   0.000000
    14  H    5.066499   4.320683   2.528581   0.000000
    15  N    4.403299   5.145353   4.619266   2.836340   0.000000
    16  H    5.374274   5.885434   4.976892   2.776202   1.010278
                   16
    16  H    0.000000
 Stoichiometry    C8H7N
 Framework group  C1[X(C8H7N)]
 Deg. of freedom    42
 Full point group                 C1      NOp   1
 Largest Abelian subgroup         C1      NOp   1
 Largest concise Abelian subgroup C1      NOp   1
                         Standard orientation:                         
 ---------------------------------------------------------------------
 Center     Atomic      Atomic             Coordinates (Angstroms)
 Number     Number       Type             X           Y           Z
 ---------------------------------------------------------------------
      1          6           0        2.395656    0.001261    0.000000
      2          1           0        3.462788   -0.157564    0.000000
      3          6           0        1.653089    1.136024   -0.000001
      4          1           0        2.041301    2.145106   -0.000001
      5          6           0        0.272740    0.767342   -0.000000
      6          6           0       -0.934965    1.467754    0.000001
      7          6           0       -2.132663    0.708301    0.000000
      8          6           0       -2.156086   -0.696194   -0.000000
      9          6           0       -0.957159   -1.432573   -0.000000
     10          6           0        0.233650   -0.677828    0.000000
     11          1           0       -0.967668    2.550414    0.000001
     12          1           0       -3.078660    1.240669    0.000000
     13          1           0       -3.109661   -1.210305   -0.000000
     14          1           0       -0.944297   -2.516031   -0.000001
     15          7           0        1.508064   -1.090987    0.000000
     16          1           0        1.794178   -2.059904    0.000001
 ---------------------------------------------------------------------
 Rotational constants (GHZ):           3.8300715           1.6431486           1.1498490

 **********************************************************************

            Population analysis using the SCF Density.

 **********************************************************************

 Orbital symmetries:
       Occupied  (A) (A) (A) (A) (A) (A) (A) (A) (A) (A) (A) (A)
                 (A) (A) (A) (A) (A) (A) (A) (A) (A) (A) (A) (A)
                 (A) (A) (A) (A) (A) (A) (A)
       Virtual   (A) (A) (A) (A) (A) (A) (A) (A) (A) (A) (A) (A)
                 (A) (A) (A) (A) (A) (A) (A) (A) (A) (A) (A) (A)
                 (A) (A) (A) (A) (A) (A) (A) (A) (A) (A) (A) (A)
                 (A) (A) (A) (A) (A) (A) (A) (A) (A) (A) (A) (A)
                 (A) (A) (A) (A) (A) (A) (A) (A) (A) (A) (A) (A)
                 (A) (A) (A) (A) (A) (A) (A) (A) (A) (A) (A) (A)
                 (A) (A) (A) (A) (A) (A) (A) (A) (A) (A) (A) (A)
                 (A) (A) (A) (A) (A) (A) (A) (A) (A) (A) (A) (A)
                 (A) (A) (A) (A) (A) (A) (A) (A) (A) (A) (A) (A)
                 (A) (A) (A) (A) (A) (A) (A) (A) (A) (A) (A) (A)
                 (A) (A) (A) (A) (A) (A) (A) (A) (A) (A) (A) (A)
                 (A) (A) (A) (A) (A) (A) (A) (A) (A) (A) (A) (A)
                 (A) (A) (A) (A) (A) (A) (A) (A) (A) (A)
 The electronic state is 1-A.
 Alpha  occ. eigenvalues --  -14.30534 -10.19850 -10.19608 -10.16536 -10.16311
 Alpha  occ. eigenvalues --  -10.16214 -10.15901 -10.15335 -10.15093  -1.15693
 Alpha  occ. eigenvalues --   -1.00748  -0.95625  -0.89354  -0.88455  -0.78227
 Alpha  occ. eigenvalues --   -0.74471  -0.73259  -0.68479  -0.62937  -0.61011
 Alpha  occ. eigenvalues --   -0.57314  -0.57006  -0.56564  -0.54743  -0.52643
 Alpha  occ. eigenvalues --   -0.47950  -0.46559  -0.46331  -0.40557  -0.31951
 Alpha  occ. eigenvalues --   -0.30918
 Alpha virt. eigenvalues --    0.04604   0.05472   0.06372   0.06763   0.08078
 Alpha virt. eigenvalues --    0.08404   0.09986   0.10568   0.10683   0.10937
 Alpha virt. eigenvalues --    0.11618   0.11652   0.13602   0.14792   0.14813
 Alpha virt. eigenvalues --    0.14994   0.16656   0.17902   0.19267   0.19399
 Alpha virt. eigenvalues --    0.20507   0.21265   0.21732   0.22775   0.22879
 Alpha virt. eigenvalues --    0.24269   0.24376   0.24723   0.26115   0.26511
 Alpha virt. eigenvalues --    0.26998   0.27699   0.28207   0.29004   0.29724
 Alpha virt. eigenvalues --    0.30672   0.30776   0.32140   0.32195   0.32865
 Alpha virt. eigenvalues --    0.34032   0.34480   0.37290   0.37630   0.39769
 Alpha virt. eigenvalues --    0.40257   0.41228   0.41978   0.44186   0.47066
 Alpha virt. eigenvalues --    0.47424   0.50641   0.54739   0.57580   0.62770
 Alpha virt. eigenvalues --    0.69389   0.73092   0.78387   0.78398   0.81051
 Alpha virt. eigenvalues --    0.82244   0.83205   0.85014   0.85326   0.85614
 Alpha virt. eigenvalues --    0.86569   0.87410   0.89025   0.90758   0.91393
 Alpha virt. eigenvalues --    0.93439   0.96811   1.00957   1.01688   1.02866
 Alpha virt. eigenvalues --    1.05586   1.06392   1.07438   1.07965   1.10552
 Alpha virt. eigenvalues --    1.11726   1.14620   1.16951   1.18393   1.21353
 Alpha virt. eigenvalues --    1.23553   1.24590   1.29228   1.30890   1.33572
 Alpha virt. eigenvalues --    1.35131   1.37287   1.38517   1.44466   1.47595
 Alpha virt. eigenvalues --    1.49184   1.50074   1.53761   1.55845   1.57036
 Alpha virt. eigenvalues --    1.61926   1.62176   1.65036   1.65317   1.65979
 Alpha virt. eigenvalues --    1.73095   1.78039   1.94274   1.98183   2.03022
 Alpha virt. eigenvalues --    2.04789   2.05317   2.08771   2.14100   2.15225
 Alpha virt. eigenvalues --    2.16335   2.20231   2.21170   2.27876   2.30092
 Alpha virt. eigenvalues --    2.30640   2.35394   2.39140   2.39608   2.42164
 Alpha virt. eigenvalues --    2.43010   2.45701   2.53339   2.57113   2.59260
 Alpha virt. eigenvalues --    2.69902   2.72074   2.76952   2.79842   2.80352
 Alpha virt. eigenvalues --    2.83423   2.87086   2.94853   2.98648   2.99417
 Alpha virt. eigenvalues --    3.11181   3.12382   3.25926   3.38610   3.55878
 Alpha virt. eigenvalues --    4.26453   4.37085   4.40805   4.44787   4.48415
 Alpha virt. eigenvalues --    4.51846   4.60182   4.64136   4.90031
          Condensed to atoms (all electrons):
               1          2          3          4          5          6
     1  C    6.294654   0.380874  -2.144695  -0.074299   2.029186   0.722001
     2  H    0.380874   0.483253  -0.049723  -0.000581  -0.021662  -0.021774
     3  C   -2.144695  -0.049723  12.838398   0.422036  -5.124444  -2.504387
     4  H   -0.074299  -0.000581   0.422036   0.493829  -0.088583  -0.093963
     5  C    2.029186  -0.021662  -5.124444  -0.088583  13.777345  -0.667851
     6  C    0.722001  -0.021774  -2.504387  -0.093963  -0.667851  11.224531
     7  C   -0.050473   0.000742   0.144116  -0.002170  -0.327368   0.403156
     8  C    0.036314   0.000040  -0.167862  -0.000390  -0.524635   0.501280
     9  C   -1.102524   0.017384   2.755995   0.010176  -2.893972  -2.271186
    10  C   -0.363385   0.060375   0.266186   0.121869  -1.883297  -1.077240
    11  H    0.004140  -0.000002  -0.064990   0.001295   0.044136   0.313786
    12  H    0.000502  -0.000000  -0.001985  -0.000001   0.027706  -0.032734
    13  H    0.001612  -0.000000  -0.002771   0.000000  -0.006562   0.026771
    14  H    0.008853   0.000002  -0.008885   0.000001   0.023380  -0.019586
    15  N    0.511847  -0.055164  -0.467123   0.006712   0.431643   0.107722
    16  H   -0.010909  -0.002622  -0.015061  -0.000089   0.213185   0.039838
               7          8          9         10         11         12
     1  C   -0.050473   0.036314  -1.102524  -0.363385   0.004140   0.000502
     2  H    0.000742   0.000040   0.017384   0.060375  -0.000002  -0.000000
     3  C    0.144116  -0.167862   2.755995   0.266186  -0.064990  -0.001985
     4  H   -0.002170  -0.000390   0.010176   0.121869   0.001295  -0.000001
     5  C   -0.327368  -0.524635  -2.893972  -1.883297   0.044136   0.027706
     6  C    0.403156   0.501280  -2.271186  -1.077240   0.313786  -0.032734
     7  C    5.353262   0.491488   0.113650  -0.390806  -0.019350   0.326851
     8  C    0.491488   5.362592   0.334895   0.055239   0.022185  -0.020024
     9  C    0.113650   0.334895  11.816297  -2.316878  -0.045556   0.017926
    10  C   -0.390806   0.055239  -2.316878  12.424372   0.041615  -0.011553
    11  H   -0.019350   0.022185  -0.045556   0.041615   0.509829  -0.003340
    12  H    0.326851  -0.020024   0.017926  -0.011553  -0.003340   0.520301
    13  H   -0.026825   0.322145  -0.039179   0.031906  -0.000115  -0.004159
    14  H    0.023444  -0.000009   0.304170  -0.034590   0.000013  -0.000128
    15  N   -0.009227  -0.003825  -0.341975  -0.186422  -0.000544   0.000135
    16  H   -0.005158  -0.008021  -0.172008  -0.093539   0.000004  -0.000000
              13         14         15         16
     1  C    0.001612   0.008853   0.511847  -0.010909
     2  H   -0.000000   0.000002  -0.055164  -0.002622
     3  C   -0.002771  -0.008885  -0.467123  -0.015061
     4  H    0.000000   0.000001   0.006712  -0.000089
     5  C   -0.006562   0.023380   0.431643   0.213185
     6  C    0.026771  -0.019586   0.107722   0.039838
     7  C   -0.026825   0.023444  -0.009227  -0.005158
     8  C    0.322145  -0.000009  -0.003825  -0.008021
     9  C   -0.039179   0.304170  -0.341975  -0.172008
    10  C    0.031906  -0.034590  -0.186422  -0.093539
    11  H   -0.000115   0.000013  -0.000544   0.000004
    12  H   -0.004159  -0.000128   0.000135  -0.000000
    13  H    0.511919  -0.002778  -0.000422  -0.000002
    14  H   -0.002778   0.515023  -0.002313   0.001868
    15  N   -0.000422  -0.002313   7.274284   0.289038
    16  H   -0.000002   0.001868   0.289038   0.344626
 Mulliken charges:
               1
     1  C   -0.243697
     2  H    0.208857
     3  C    0.125197
     4  H    0.204158
     5  C    0.991793
     6  C   -0.650365
     7  C   -0.025335
     8  C   -0.401411
     9  C   -0.187213
    10  C   -0.643853
    11  H    0.196894
    12  H    0.180502
    13  H    0.188459
    14  H    0.191533
    15  N   -0.554367
    16  H    0.418848
 Sum of Mulliken charges =  -0.00000
 Mulliken charges with hydrogens summed into heavy atoms:
               1
     1  C   -0.034840
     3  C    0.329354
     5  C    0.991793
     6  C   -0.453471
     7  C    0.155168
     8  C   -0.212953
     9  C    0.004320
    10  C   -0.643853
    15  N   -0.135519
 Electronic spatial extent (au):  <R**2>=           1010.7325
 Charge=             -0.0000 electrons
 Dipole moment (field-independent basis, Debye):
    X=              1.5856    Y=             -1.5200    Z=              0.0000  Tot=              2.1965
 Quadrupole moment (field-independent basis, Debye-Ang):
   XX=            -45.4912   YY=            -44.2316   ZZ=            -59.1831
   XY=             -2.8428   XZ=              0.0000   YZ=             -0.0000
 Traceless Quadrupole moment (field-independent basis, Debye-Ang):
   XX=              4.1441   YY=              5.4037   ZZ=             -9.5478
   XY=             -2.8428   XZ=              0.0000   YZ=             -0.0000
 Octapole moment (field-independent basis, Debye-Ang**2):
  XXX=             15.5982  YYY=            -10.2180  ZZZ=              0.0000  XYY=              7.7760
  XXY=             -8.4811  XXZ=              0.0000  XZZ=              2.4084  YZZ=             -1.9618
  YYZ=              0.0000  XYZ=             -0.0000
 Hexadecapole moment (field-independent basis, Debye-Ang**3):
 XXXX=           -816.2050 YYYY=           -374.7968 ZZZZ=            -74.6417 XXXY=            -18.3038
 XXXZ=              0.0000 YYYX=            -19.0302 YYYZ=             -0.0000 ZZZX=              0.0000
 ZZZY=             -0.0000 XXYY=           -199.7295 XXZZ=           -190.9581 YYZZ=            -95.8321
 XXYZ=             -0.0000 YYXZ=              0.0000 ZZXY=             -3.4715
 N-N= 3.997041091151D+02 E-N=-1.641141601649D+03  KE= 3.593490209232D+02
 1\1\GINC-COMET-04-45\FOpt\RLC-BLYP TD-FC\6-31+G(d)\C8H7N1\GFOLEY1\13-J
 un-2018\0\\# opt td=(root=2) LC-BLYP/6-31+g(d) geom=connectivity\\Titl
 e Card Required\\0,1\C,-1.3386468263,2.079378345,1.4569047683\H,-2.283
 8364979,2.0112790314,1.9726314591\C,-0.060471769,1.9987477939,1.902840
 6595\H,0.2419564299,1.8406297327,2.9287512059\C,0.8143532602,2.1585932
 544,0.7846188644\C,2.1994583952,2.1705879415,0.6100706078\C,2.69225266
 42,2.3642203341,-0.7055698346\C,1.8600776242,2.5416933557,-1.823220715
 2\C,0.4601682712,2.5349184208,-1.6822034434\C,-0.0299966293,2.34244222
 22,-0.3743964753\H,2.8813250092,2.0379653325,1.4411489618\H,3.76735374
 37,2.3756482219,-0.8550746454\H,2.3072768523,2.6845414701,-2.799552260
 6\H,-0.2063977052,2.6692757453,-2.5258178572\N,-1.2941632004,2.2890481
 776,0.0659028427\H,-2.1087331222,2.3865699412,-0.5236957208\\Version=E
 S64L-G16RevB.01\State=1-A\HF=-362.729105\RMSD=3.898e-09\RMSF=1.410e-04
 \Dipole=-0.8445238,0.0003287,0.0558406\PG=C01 [X(C8H7N1)]\\@


 HE THAT WALD REACHE THE SWEITE ROSE
 SULD NOW AND THEN BE SCRATCHED WT THE SCHARPE BREERES.
 -- PROVERBS AND REASONS OF THE YEAR 1585
           AS REPRINTED IN PAISLEY MAGAZINE 1828.
 Job cpu time:       0 days  1 hours 56 minutes 26.2 seconds.
 Elapsed time:       0 days  1 hours 56 minutes 23.6 seconds.
 File lengths (MBytes):  RWF=    209 Int=      0 D2E=      0 Chk=      8 Scr=      1
 Normal termination of Gaussian 16 at Wed Jun 13 08:42:07 2018.
