 Entering Gaussian System, Link 0=/opt/gaussian/16.B.01/g16/g16
 Initial command:
 /opt/gaussian/16.B.01/g16/l1.exe "/scratch/gfoley1/16945501/Gau-19262.inp" -scrdir="/scratch/gfoley1/16945501/"
 Entering Link 1 = /opt/gaussian/16.B.01/g16/l1.exe PID=     19267.
  
 Copyright (c) 1988-2017, Gaussian, Inc.  All Rights Reserved.
  
 This is part of the Gaussian(R) 16 program.  It is based on
 the Gaussian(R) 09 system (copyright 2009, Gaussian, Inc.),
 the Gaussian(R) 03 system (copyright 2003, Gaussian, Inc.),
 the Gaussian(R) 98 system (copyright 1998, Gaussian, Inc.),
 the Gaussian(R) 94 system (copyright 1995, Gaussian, Inc.),
 the Gaussian 92(TM) system (copyright 1992, Gaussian, Inc.),
 the Gaussian 90(TM) system (copyright 1990, Gaussian, Inc.),
 the Gaussian 88(TM) system (copyright 1988, Gaussian, Inc.),
 the Gaussian 86(TM) system (copyright 1986, Carnegie Mellon
 University), and the Gaussian 82(TM) system (copyright 1983,
 Carnegie Mellon University). Gaussian is a federally registered
 trademark of Gaussian, Inc.
  
 This software contains proprietary and confidential information,
 including trade secrets, belonging to Gaussian, Inc.
  
 This software is provided under written license and may be
 used, copied, transmitted, or stored only in accord with that
 written license.
  
 The following legend is applicable only to US Government
 contracts under FAR:
  
                    RESTRICTED RIGHTS LEGEND
  
 Use, reproduction and disclosure by the US Government is
 subject to restrictions as set forth in subparagraphs (a)
 and (c) of the Commercial Computer Software - Restricted
 Rights clause in FAR 52.227-19.
  
 Gaussian, Inc.
 340 Quinnipiac St., Bldg. 40, Wallingford CT 06492
  
  
 ---------------------------------------------------------------
 Warning -- This program may not be used in any manner that
 competes with the business of Gaussian, Inc. or will provide
 assistance to any competitor of Gaussian, Inc.  The licensee
 of this program is prohibited from giving any competitor of
 Gaussian, Inc. access to this program.  By using this program,
 the user acknowledges that Gaussian, Inc. is engaged in the
 business of creating and licensing software in the field of
 computational chemistry and represents and warrants to the
 licensee that it is not a competitor of Gaussian, Inc. and that
 it will not use this program in any manner prohibited above.
 ---------------------------------------------------------------
  

 Cite this work as:
 Gaussian 16, Revision B.01,
 M. J. Frisch, G. W. Trucks, H. B. Schlegel, G. E. Scuseria, 
 M. A. Robb, J. R. Cheeseman, G. Scalmani, V. Barone, 
 G. A. Petersson, H. Nakatsuji, X. Li, M. Caricato, A. V. Marenich, 
 J. Bloino, B. G. Janesko, R. Gomperts, B. Mennucci, H. P. Hratchian, 
 J. V. Ortiz, A. F. Izmaylov, J. L. Sonnenberg, D. Williams-Young, 
 F. Ding, F. Lipparini, F. Egidi, J. Goings, B. Peng, A. Petrone, 
 T. Henderson, D. Ranasinghe, V. G. Zakrzewski, J. Gao, N. Rega, 
 G. Zheng, W. Liang, M. Hada, M. Ehara, K. Toyota, R. Fukuda, 
 J. Hasegawa, M. Ishida, T. Nakajima, Y. Honda, O. Kitao, H. Nakai, 
 T. Vreven, K. Throssell, J. A. Montgomery, Jr., J. E. Peralta, 
 F. Ogliaro, M. J. Bearpark, J. J. Heyd, E. N. Brothers, K. N. Kudin, 
 V. N. Staroverov, T. A. Keith, R. Kobayashi, J. Normand, 
 K. Raghavachari, A. P. Rendell, J. C. Burant, S. S. Iyengar, 
 J. Tomasi, M. Cossi, J. M. Millam, M. Klene, C. Adamo, R. Cammi, 
 J. W. Ochterski, R. L. Martin, K. Morokuma, O. Farkas, 
 J. B. Foresman, and D. J. Fox, Gaussian, Inc., Wallingford CT, 2016.
 
 ******************************************
 Gaussian 16:  ES64L-G16RevB.01 20-Dec-2017
                13-Jun-2018 
 ******************************************
 -------------------------------------------------------
 # opt td=(root=2) LC-PBEPBE/6-31+g(d) geom=connectivity
 -------------------------------------------------------
 1/18=20,19=15,26=3,38=1,57=2/1,3;
 2/9=110,12=2,17=6,18=5,40=1/2;
 3/5=1,6=6,7=11,11=9,25=1,30=1,71=1,74=1001009/1,2,3,8;
 4//1;
 5/5=2,38=5/2;
 8/6=1,10=2,107=2/1;
 9/8=2,15=2,42=1,70=2/14;
 10/5=4,28=2/2;
 6/7=2,8=2,9=2,10=2/1;
 7/12=6,13=5,14=2/1,2,3,16;
 1/18=20,19=15,26=3/3(2);
 2/9=110/2;
 99//99;
 2/9=110/2;
 3/5=1,6=6,7=11,11=9,25=1,30=1,71=1,74=1001009/1,2,3,8;
 4/5=5,16=3,69=1/1;
 5/5=2,38=5/2;
 8/6=1,10=2,107=2/1;
 9/8=2,15=2,42=1,49=4,70=2/14;
 10/5=4,28=2/2;
 7/12=6,13=5,14=2/1,2,3,16;
 1/18=20,19=15,26=3/3(-8);
 2/9=110/2;
 6/7=2,8=2,9=2,10=2/1;
 99/9=10/99;
 -------------------
 Title Card Required
 -------------------
 Symbolic Z-matrix:
 Charge =  0 Multiplicity = 1
 C                    -1.33996   2.08881   1.39456 
 H                    -2.21558   2.00585   2.00391 
 C                    -0.01363   2.0067    1.84698 
 H                     0.31448   1.85125   2.8535 
 C                     0.78597   2.16808   0.72372 
 C                     2.17136   2.17152   0.60581 
 C                     2.71529   2.36042  -0.68201 
 C                     1.85973   2.53856  -1.80247 
 C                     0.45733   2.52849  -1.63947 
 C                    -0.044     2.33966  -0.35507 
 H                     2.8014    2.03595   1.45997 
 H                     3.77686   2.3696   -0.81571 
 H                     2.2809    2.68121  -2.7757 
 H                    -0.19771   2.66151  -2.47501 
 N                    -1.32264   2.29058   0.0577 
 H                    -2.12783   2.38732  -0.52738 
 

 GradGradGradGradGradGradGradGradGradGradGradGradGradGradGradGradGradGrad
 Berny optimization.
 Initialization pass.
                           ----------------------------
                           !    Initial Parameters    !
                           ! (Angstroms and Degrees)  !
 --------------------------                            --------------------------
 ! Name  Definition              Value          Derivative Info.                !
 --------------------------------------------------------------------------------
 ! R1    R(1,2)                  1.07           estimate D2E/DX2                !
 ! R2    R(1,3)                  1.4038         estimate D2E/DX2                !
 ! R3    R(1,15)                 1.3521         estimate D2E/DX2                !
 ! R4    R(3,4)                  1.07           estimate D2E/DX2                !
 ! R5    R(3,5)                  1.3882         estimate D2E/DX2                !
 ! R6    R(5,6)                  1.3904         estimate D2E/DX2                !
 ! R7    R(5,10)                 1.3719         estimate D2E/DX2                !
 ! R8    R(6,7)                  1.4107         estimate D2E/DX2                !
 ! R9    R(6,11)                 1.07           estimate D2E/DX2                !
 ! R10   R(7,8)                  1.421          estimate D2E/DX2                !
 ! R11   R(7,12)                 1.07           estimate D2E/DX2                !
 ! R12   R(8,9)                  1.4119         estimate D2E/DX2                !
 ! R13   R(8,13)                 1.07           estimate D2E/DX2                !
 ! R14   R(9,10)                 1.3916         estimate D2E/DX2                !
 ! R15   R(9,14)                 1.07           estimate D2E/DX2                !
 ! R16   R(10,15)                1.3445         estimate D2E/DX2                !
 ! R17   R(15,16)                1.0            estimate D2E/DX2                !
 ! A1    A(2,1,3)              125.8112         estimate D2E/DX2                !
 ! A2    A(2,1,15)             125.8112         estimate D2E/DX2                !
 ! A3    A(3,1,15)             108.3775         estimate D2E/DX2                !
 ! A4    A(1,3,4)              126.9701         estimate D2E/DX2                !
 ! A5    A(1,3,5)              106.0599         estimate D2E/DX2                !
 ! A6    A(4,3,5)              126.9701         estimate D2E/DX2                !
 ! A7    A(3,5,6)              130.0024         estimate D2E/DX2                !
 ! A8    A(3,5,10)             107.5986         estimate D2E/DX2                !
 ! A9    A(6,5,10)             122.399          estimate D2E/DX2                !
 ! A10   A(5,6,7)              117.5116         estimate D2E/DX2                !
 ! A11   A(5,6,11)             121.2442         estimate D2E/DX2                !
 ! A12   A(7,6,11)             121.2442         estimate D2E/DX2                !
 ! A13   A(6,7,8)              120.2968         estimate D2E/DX2                !
 ! A14   A(6,7,12)             119.8516         estimate D2E/DX2                !
 ! A15   A(8,7,12)             119.8516         estimate D2E/DX2                !
 ! A16   A(7,8,9)              120.4065         estimate D2E/DX2                !
 ! A17   A(7,8,13)             119.7968         estimate D2E/DX2                !
 ! A18   A(9,8,13)             119.7968         estimate D2E/DX2                !
 ! A19   A(8,9,10)             117.732          estimate D2E/DX2                !
 ! A20   A(8,9,14)             121.134          estimate D2E/DX2                !
 ! A21   A(10,9,14)            121.134          estimate D2E/DX2                !
 ! A22   A(5,10,9)             121.6541         estimate D2E/DX2                !
 ! A23   A(5,10,15)            109.2304         estimate D2E/DX2                !
 ! A24   A(9,10,15)            129.1154         estimate D2E/DX2                !
 ! A25   A(1,15,10)            108.7335         estimate D2E/DX2                !
 ! A26   A(1,15,16)            125.6332         estimate D2E/DX2                !
 ! A27   A(10,15,16)           125.6332         estimate D2E/DX2                !
 ! D1    D(2,1,3,4)              0.0002         estimate D2E/DX2                !
 ! D2    D(2,1,3,5)           -179.9998         estimate D2E/DX2                !
 ! D3    D(15,1,3,4)           180.0            estimate D2E/DX2                !
 ! D4    D(15,1,3,5)             0.0            estimate D2E/DX2                !
 ! D5    D(2,1,15,10)          179.9998         estimate D2E/DX2                !
 ! D6    D(2,1,15,16)            0.0            estimate D2E/DX2                !
 ! D7    D(3,1,15,10)            0.0            estimate D2E/DX2                !
 ! D8    D(3,1,15,16)         -179.9998         estimate D2E/DX2                !
 ! D9    D(1,3,5,6)            179.9998         estimate D2E/DX2                !
 ! D10   D(1,3,5,10)             0.0            estimate D2E/DX2                !
 ! D11   D(4,3,5,6)             -0.0002         estimate D2E/DX2                !
 ! D12   D(4,3,5,10)          -180.0            estimate D2E/DX2                !
 ! D13   D(3,5,6,7)           -179.9998         estimate D2E/DX2                !
 ! D14   D(3,5,6,11)             0.0001         estimate D2E/DX2                !
 ! D15   D(10,5,6,7)             0.0            estimate D2E/DX2                !
 ! D16   D(10,5,6,11)          179.9998         estimate D2E/DX2                !
 ! D17   D(3,5,10,9)           179.9998         estimate D2E/DX2                !
 ! D18   D(3,5,10,15)            0.0            estimate D2E/DX2                !
 ! D19   D(6,5,10,9)             0.0            estimate D2E/DX2                !
 ! D20   D(6,5,10,15)         -179.9998         estimate D2E/DX2                !
 ! D21   D(5,6,7,8)              0.0            estimate D2E/DX2                !
 ! D22   D(5,6,7,12)          -180.0            estimate D2E/DX2                !
 ! D23   D(11,6,7,8)          -179.9998         estimate D2E/DX2                !
 ! D24   D(11,6,7,12)            0.0002         estimate D2E/DX2                !
 ! D25   D(6,7,8,9)              0.0001         estimate D2E/DX2                !
 ! D26   D(6,7,8,13)          -179.9998         estimate D2E/DX2                !
 ! D27   D(12,7,8,9)          -180.0            estimate D2E/DX2                !
 ! D28   D(12,7,8,13)            0.0001         estimate D2E/DX2                !
 ! D29   D(7,8,9,10)            -0.0001         estimate D2E/DX2                !
 ! D30   D(7,8,9,14)           180.0            estimate D2E/DX2                !
 ! D31   D(13,8,9,10)          179.9998         estimate D2E/DX2                !
 ! D32   D(13,8,9,14)           -0.0001         estimate D2E/DX2                !
 ! D33   D(8,9,10,5)             0.0001         estimate D2E/DX2                !
 ! D34   D(8,9,10,15)          179.9999         estimate D2E/DX2                !
 ! D35   D(14,9,10,5)          180.0            estimate D2E/DX2                !
 ! D36   D(14,9,10,15)          -0.0003         estimate D2E/DX2                !
 ! D37   D(5,10,15,1)            0.0            estimate D2E/DX2                !
 ! D38   D(5,10,15,16)         179.9998         estimate D2E/DX2                !
 ! D39   D(9,10,15,1)         -179.9998         estimate D2E/DX2                !
 ! D40   D(9,10,15,16)           0.0            estimate D2E/DX2                !
 --------------------------------------------------------------------------------
 Trust Radius=3.00D-01 FncErr=1.00D-07 GrdErr=1.00D-06 EigMax=2.50D+02 EigMin=1.00D-04
 Number of steps in this run=     94 maximum allowed number of steps=    100.
 GradGradGradGradGradGradGradGradGradGradGradGradGradGradGradGradGradGrad

                          Input orientation:                          
 ---------------------------------------------------------------------
 Center     Atomic      Atomic             Coordinates (Angstroms)
 Number     Number       Type             X           Y           Z
 ---------------------------------------------------------------------
      1          6           0       -1.339957    2.088809    1.394563
      2          1           0       -2.215576    2.005849    2.003915
      3          6           0       -0.013633    2.006700    1.846980
      4          1           0        0.314483    1.851247    2.853496
      5          6           0        0.785968    2.168085    0.723718
      6          6           0        2.171364    2.171521    0.605815
      7          6           0        2.715289    2.360423   -0.682013
      8          6           0        1.859731    2.538563   -1.802468
      9          6           0        0.457326    2.528493   -1.639472
     10          6           0       -0.043997    2.339664   -0.355067
     11          1           0        2.801396    2.035952    1.459970
     12          1           0        3.776863    2.369605   -0.815709
     13          1           0        2.280895    2.681211   -2.775696
     14          1           0       -0.197713    2.661512   -2.475014
     15          7           0       -1.322636    2.290581    0.057696
     16          1           0       -2.127826    2.387325   -0.527376
 ---------------------------------------------------------------------
                    Distance matrix (angstroms):
                    1          2          3          4          5
     1  C    0.000000
     2  H    1.070000   0.000000
     3  C    1.403766   2.207529   0.000000
     4  H    2.218579   2.673367   1.070000   0.000000
     5  C    2.230667   3.267184   1.388209   2.204231   0.000000
     6  C    3.599770   4.607317   2.518307   2.933027   1.390409
     7  C    4.564095   5.626131   3.737370   4.303829   2.394860
     8  C    4.545469   5.601826   4.136525   4.953604   2.769808
     9  C    3.553719   4.548827   3.556602   4.545968   2.413000
    10  C    2.191722   3.223659   2.227284   3.265261   1.371881
    11  H    4.142207   5.046463   2.841658   2.856705   2.149762
    12  H    5.580860   6.632641   4.646448   5.071473   3.369852
    13  H    5.554509   6.596896   5.204705   6.020250   3.839792
    14  H    4.075087   4.956053   4.375191   5.414045   3.382748
    15  N    1.352119   2.160135   2.235087   3.269506   2.214678
    16  H    2.098500   2.561378   3.201914   4.205062   3.178600
                    6          7          8          9         10
     6  C    0.000000
     7  C    1.410687   0.000000
     8  C    2.455944   1.420962   0.000000
     9  C    2.847222   2.458327   1.411882   0.000000
    10  C    2.420618   2.778666   2.399732   1.391646   0.000000
    11  H    1.070000   2.168130   3.432616   3.917117   3.388637
    12  H    2.153508   1.070000   2.162784   3.423910   3.848644
    13  H    3.421461   2.162200   1.070000   2.154004   3.373607
    14  H    3.917158   3.433815   2.168066   1.070000   2.149742
    15  N    3.538735   4.105713   3.694477   2.470879   1.344507
    16  H    4.451261   4.845657   4.189193   2.817746   2.091484
                   11         12         13         14         15
    11  H    0.000000
    12  H    2.498315   0.000000
    13  H    4.316034   2.485270   0.000000
    14  H    4.986991   4.316916   2.496858   0.000000
    15  N    4.363352   5.174357   4.600667   2.796008   0.000000
    16  H    5.326371   5.911751   4.957633   2.755686   1.000000
                   16
    16  H    0.000000
 Stoichiometry    C8H7N
 Framework group  C1[X(C8H7N)]
 Deg. of freedom    42
 Full point group                 C1      NOp   1
 Largest Abelian subgroup         C1      NOp   1
 Largest concise Abelian subgroup C1      NOp   1
                         Standard orientation:                         
 ---------------------------------------------------------------------
 Center     Atomic      Atomic             Coordinates (Angstroms)
 Number     Number       Type             X           Y           Z
 ---------------------------------------------------------------------
      1          6           0        2.360426    0.032633    0.000001
      2          1           0        3.430401    0.025257    0.000006
      3          6           0        1.546926    1.176650    0.000000
      4          1           0        1.870704    2.196487    0.000001
      5          6           0        0.237186    0.716536   -0.000002
      6          6           0       -0.959088    1.425172   -0.000001
      7          6           0       -2.157408    0.680814    0.000001
      8          6           0       -2.118961   -0.739628    0.000001
      9          6           0       -0.882385   -1.421016    0.000000
     10          6           0        0.279268   -0.654700   -0.000002
     11          1           0       -0.970350    2.495113    0.000002
     12          1           0       -3.099508    1.188107    0.000002
     13          1           0       -3.032773   -1.296266   -0.000001
     14          1           0       -0.839855   -2.490171    0.000001
     15          7           0        1.561740   -1.058388   -0.000000
     16          1           0        1.873421   -2.008575    0.000003
 ---------------------------------------------------------------------
 Rotational constants (GHZ):           3.9201898           1.6790815           1.1755669
 Standard basis: 6-31+G(d) (6D, 7F)
 There are   185 symmetry adapted cartesian basis functions of A   symmetry.
 There are   185 symmetry adapted basis functions of A   symmetry.
   185 basis functions,   316 primitive gaussians,   185 cartesian basis functions
    31 alpha electrons       31 beta electrons
       nuclear repulsion energy       404.0653087300 Hartrees.
 NAtoms=   16 NActive=   16 NUniq=   16 SFac= 1.00D+00 NAtFMM=   60 NAOKFM=F Big=F
 Integral buffers will be    131072 words long.
 Raffenetti 1 integral format.
 Two-electron integral symmetry is turned on.
 One-electron integrals computed using PRISM.
 NBasis=   185 RedAO= T EigKep=  1.24D-06  NBF=   185
 NBsUse=   185 1.00D-06 EigRej= -1.00D+00 NBFU=   185
 ExpMin= 4.38D-02 ExpMax= 4.17D+03 ExpMxC= 6.27D+02 IAcc=3 IRadAn=         5 AccDes= 0.00D+00
 Harris functional with IExCor=11009 and IRadAn=       5 diagonalized for initial guess.
 HarFok:  IExCor=11009 AccDes= 0.00D+00 IRadAn=         5 IDoV= 1 UseB2=F ITyADJ=14
 ICtDFT=  3500011 ScaDFX=  1.000000  1.000000  1.000000  1.000000
 FoFCou: FMM=F IPFlag=           0 FMFlag=      100000 FMFlg1=           0
         NFxFlg=           0 DoJE=T BraDBF=F KetDBF=T FulRan=T
         wScrn=  0.000000 ICntrl=       500 IOpCl=  0 I1Cent=   200000004 NGrid=           0
         NMat0=    1 NMatS0=      1 NMatT0=    0 NMatD0=    1 NMtDS0=    0 NMtDT0=    0
 Petite list used in FoFCou.
 Requested convergence on RMS density matrix=1.00D-08 within 128 cycles.
 Requested convergence on MAX density matrix=1.00D-06.
 Requested convergence on             energy=1.00D-06.
 No special actions if energy rises.
 SCF Done:  E(RLC-PBE+HF-PBE) =  -362.545719151     A.U. after   16 cycles
            NFock= 16  Conv=0.45D-08     -V/T= 2.0086
 DoSCS=F DFT=T ScalE2(SS,OS)=  1.000000  1.000000
 ExpMin= 4.38D-02 ExpMax= 4.17D+03 ExpMxC= 6.27D+02 IAcc=3 IRadAn=         5 AccDes= 0.00D+00
 HarFok:  IExCor=  205 AccDes= 0.00D+00 IRadAn=         5 IDoV=-2 UseB2=F ITyADJ=14
 ICtDFT= 12500011 ScaDFX=  1.000000  1.000000  1.000000  1.000000
 Range of M.O.s used for correlation:    10   185
 NBasis=   185 NAE=    31 NBE=    31 NFC=     9 NFV=     0
 NROrb=    176 NOA=    22 NOB=    22 NVA=   154 NVB=   154

 **** Warning!!: The largest alpha MO coefficient is  0.21359312D+03

 Orbital symmetries:
       Occupied  (A) (A) (A) (A) (A) (A) (A) (A) (A) (A) (A) (A)
                 (A) (A) (A) (A) (A) (A) (A) (A) (A) (A) (A) (A)
                 (A) (A) (A) (A) (A) (A) (A)
       Virtual   (A) (A) (A) (A) (A) (A) (A) (A) (A) (A) (A) (A)
                 (A) (A) (A) (A) (A) (A) (A) (A) (A) (A) (A) (A)
                 (A) (A) (A) (A) (A) (A) (A) (A) (A) (A) (A) (A)
                 (A) (A) (A) (A) (A) (A) (A) (A) (A) (A) (A) (A)
                 (A) (A) (A) (A) (A) (A) (A) (A) (A) (A) (A) (A)
                 (A) (A) (A) (A) (A) (A) (A) (A) (A) (A) (A) (A)
                 (A) (A) (A) (A) (A) (A) (A) (A) (A) (A) (A) (A)
                 (A) (A) (A) (A) (A) (A) (A) (A) (A) (A) (A) (A)
                 (A) (A) (A) (A) (A) (A) (A) (A) (A) (A) (A) (A)
                 (A) (A) (A) (A) (A) (A) (A) (A) (A) (A) (A) (A)
                 (A) (A) (A) (A) (A) (A) (A) (A) (A) (A) (A) (A)
                 (A) (A) (A) (A) (A) (A) (A) (A) (A) (A) (A) (A)
                 (A) (A) (A) (A) (A) (A) (A) (A) (A) (A)
    12 initial guesses have been made.
 Convergence on wavefunction:    0.000001000000000
 Iteration     1 Dimension    12 NMult     0 NNew     12
 CISAX will form    12 AO SS matrices at one time.
 New state      1 was old state      5
 New state      2 was old state      1
 New state      3 was old state      2
 Iteration     2 Dimension    18 NMult    12 NNew      6
 Iteration     3 Dimension    24 NMult    18 NNew      6
 Iteration     4 Dimension    30 NMult    24 NNew      6
 Iteration     5 Dimension    36 NMult    30 NNew      6
 Iteration     6 Dimension    42 NMult    36 NNew      6
 Iteration     7 Dimension    48 NMult    42 NNew      6
 Iteration     8 Dimension    54 NMult    48 NNew      6
 Iteration     9 Dimension    60 NMult    54 NNew      6
 Iteration    10 Dimension    66 NMult    60 NNew      6
 Iteration    11 Dimension    72 NMult    66 NNew      6
 Iteration    12 Dimension    78 NMult    72 NNew      6
 Iteration    13 Dimension    80 NMult    78 NNew      2
 ***********************************************************************
 Excited states from <AA,BB:AA,BB> singles matrix:
 ***********************************************************************
 
 Ground to excited state transition densities written to RWF  633
 Ground to excited state transition electric dipole moments (Au):
       state          X           Y           Z        Dip. S.      Osc.
         1        -0.9030      0.6888     -0.0000      1.2899      0.1635
         2        -0.2668     -0.4366      0.0000      0.2618      0.0337
         3         0.0000     -0.0000     -0.2223      0.0494      0.0074
 Ground to excited state transition velocity dipole moments (Au):
       state          X           Y           Z        Dip. S.      Osc.
         1         0.1580     -0.1385      0.0000      0.0441      0.1548
         2         0.0494      0.0882     -0.0000      0.0102      0.0353
         3        -0.0000      0.0000      0.0415      0.0017      0.0051
 Ground to excited state transition magnetic dipole moments (Au):
       state          X           Y           Z
         1         0.0000      0.0000      0.1977
         2        -0.0000     -0.0000     -0.1198
         3         0.1348     -0.1955      0.0000
 Ground to excited state transition velocity quadrupole moments (Au):
       state          XX          YY          ZZ          XY          XZ          YZ
         1         0.2651     -0.1930      0.0203      0.0004     -0.0000      0.0000
         2        -0.0495     -0.0528      0.0114     -0.0096     -0.0000     -0.0000
         3        -0.0000      0.0000      0.0000      0.0000      0.1725      0.0515
 <0|del|b> * <b|rxdel|0> + <0|del|b> * <b|delr+rdel|0>
 Rotatory Strengths (R) in cgs (10**-40 erg-esu-cm/Gauss)
       state          XX          YY          ZZ    R(velocity)    E-M Angle
         1        -0.0000      0.0007      0.0004      0.0003       90.00
         2         0.0001     -0.0000     -0.0001     -0.0000       90.00
         3         0.0003     -0.0000     -0.0001      0.0001       90.00
 1/2[<0|r|b>*<b|rxdel|0> + (<0|rxdel|b>*<b|r|0>)*]
 Rotatory Strengths (R) in cgs (10**-40 erg-esu-cm/Gauss)
       state          XX          YY          ZZ     R(length)
         1         0.0011     -0.0001      0.0001      0.0004
         2        -0.0001     -0.0000      0.0001     -0.0000
         3        -0.0003     -0.0000      0.0006      0.0001
  1/2[<0|del|b>*<b|r|0> + (<0|r|b>*<b|del|0>)*] (Au)
       state          X           Y           Z        Dip. S.   Osc.(frdel)
         1        -0.1427     -0.0954     -0.0000      0.2381      0.1587
         2        -0.0132     -0.0385     -0.0000      0.0517      0.0345
         3        -0.0000     -0.0000     -0.0092      0.0092      0.0062

 Excitation energies and oscillator strengths:
 
 Excited State   1:      Singlet-A      5.1723 eV  239.71 nm  f=0.1635  <S**2>=0.000
      30 -> 32         0.10048
      30 -> 38         0.17597
      31 -> 32         0.65511
      31 -> 38        -0.10666
 
 Excited State   2:      Singlet-A      5.2594 eV  235.74 nm  f=0.0337  <S**2>=0.000
      30 -> 32         0.56696
      31 -> 32        -0.13817
      31 -> 38        -0.33618
 This state for optimization and/or second-order correction.
 Total Energy, E(TD-HF/TD-DFT) =  -362.352439362    
 Copying the excited state density for this state as the 1-particle RhoCI density.
 
 Excited State   3:      Singlet-A      6.0780 eV  203.99 nm  f=0.0074  <S**2>=0.000
      31 -> 33         0.65429
      31 -> 40        -0.12362
 SavETr:  write IOETrn=   770 NScale= 10 NData=  16 NLR=1 NState=    3 LETran=      64.
          IDoAtm=1111111111111111
          Differentiating once with respect to electric field.
                with respect to dipole field.
          Differentiating once with respect to nuclear coordinates.
          There are     1 degrees of freedom in the 1st order CPHF.  IDoFFX=0 NUNeed=     1.
 LinEq1:  Iter=  0 NonCon=     1 RMS=3.09D-03 Max=6.24D-02 NDo=     1
 AX will form     1 AO Fock derivatives at one time.
 LinEq1:  Iter=  1 NonCon=     1 RMS=1.48D-03 Max=4.38D-02 NDo=     1
 LinEq1:  Iter=  2 NonCon=     1 RMS=4.81D-04 Max=9.70D-03 NDo=     1
 LinEq1:  Iter=  3 NonCon=     1 RMS=2.98D-04 Max=8.40D-03 NDo=     1
 LinEq1:  Iter=  4 NonCon=     1 RMS=1.07D-04 Max=2.29D-03 NDo=     1
 LinEq1:  Iter=  5 NonCon=     1 RMS=4.51D-05 Max=1.24D-03 NDo=     1
 LinEq1:  Iter=  6 NonCon=     1 RMS=1.98D-05 Max=4.85D-04 NDo=     1
 LinEq1:  Iter=  7 NonCon=     1 RMS=7.27D-06 Max=1.42D-04 NDo=     1
 LinEq1:  Iter=  8 NonCon=     1 RMS=3.31D-06 Max=6.89D-05 NDo=     1
 LinEq1:  Iter=  9 NonCon=     1 RMS=1.18D-06 Max=2.43D-05 NDo=     1
 LinEq1:  Iter= 10 NonCon=     1 RMS=6.11D-07 Max=1.46D-05 NDo=     1
 LinEq1:  Iter= 11 NonCon=     1 RMS=1.95D-07 Max=4.20D-06 NDo=     1
 LinEq1:  Iter= 12 NonCon=     1 RMS=9.16D-08 Max=1.74D-06 NDo=     1
 LinEq1:  Iter= 13 NonCon=     1 RMS=2.92D-08 Max=5.19D-07 NDo=     1
 LinEq1:  Iter= 14 NonCon=     1 RMS=8.91D-09 Max=1.05D-07 NDo=     1
 LinEq1:  Iter= 15 NonCon=     1 RMS=3.41D-09 Max=7.62D-08 NDo=     1
 LinEq1:  Iter= 16 NonCon=     1 RMS=8.32D-10 Max=1.63D-08 NDo=     1
 LinEq1:  Iter= 17 NonCon=     1 RMS=2.90D-10 Max=4.29D-09 NDo=     1
 LinEq1:  Iter= 18 NonCon=     1 RMS=9.39D-11 Max=1.44D-09 NDo=     1
 LinEq1:  Iter= 19 NonCon=     0 RMS=2.06D-11 Max=3.70D-10 NDo=     1
 Linear equations converged to 1.000D-10 1.000D-09 after    19 iterations.
 End of Minotr F.D. properties file   721 does not exist.
 End of Minotr F.D. properties file   722 does not exist.
 End of Minotr F.D. properties file   788 does not exist.

 **********************************************************************

            Population analysis using the SCF Density.

 **********************************************************************

 Orbital symmetries:
       Occupied  (A) (A) (A) (A) (A) (A) (A) (A) (A) (A) (A) (A)
                 (A) (A) (A) (A) (A) (A) (A) (A) (A) (A) (A) (A)
                 (A) (A) (A) (A) (A) (A) (A)
       Virtual   (A) (A) (A) (A) (A) (A) (A) (A) (A) (A) (A) (A)
                 (A) (A) (A) (A) (A) (A) (A) (A) (A) (A) (A) (A)
                 (A) (A) (A) (A) (A) (A) (A) (A) (A) (A) (A) (A)
                 (A) (A) (A) (A) (A) (A) (A) (A) (A) (A) (A) (A)
                 (A) (A) (A) (A) (A) (A) (A) (A) (A) (A) (A) (A)
                 (A) (A) (A) (A) (A) (A) (A) (A) (A) (A) (A) (A)
                 (A) (A) (A) (A) (A) (A) (A) (A) (A) (A) (A) (A)
                 (A) (A) (A) (A) (A) (A) (A) (A) (A) (A) (A) (A)
                 (A) (A) (A) (A) (A) (A) (A) (A) (A) (A) (A) (A)
                 (A) (A) (A) (A) (A) (A) (A) (A) (A) (A) (A) (A)
                 (A) (A) (A) (A) (A) (A) (A) (A) (A) (A) (A) (A)
                 (A) (A) (A) (A) (A) (A) (A) (A) (A) (A) (A) (A)
                 (A) (A) (A) (A) (A) (A) (A) (A) (A) (A)
 The electronic state is 1-A.
 Alpha  occ. eigenvalues --  -14.28912 -10.17095 -10.16154 -10.13940 -10.13643
 Alpha  occ. eigenvalues --  -10.13324 -10.13104 -10.12233 -10.11772  -1.18329
 Alpha  occ. eigenvalues --   -1.02422  -0.96506  -0.91151  -0.88454  -0.79435
 Alpha  occ. eigenvalues --   -0.75970  -0.74132  -0.69945  -0.63534  -0.61650
 Alpha  occ. eigenvalues --   -0.59199  -0.58260  -0.57351  -0.54410  -0.52792
 Alpha  occ. eigenvalues --   -0.48333  -0.47653  -0.46825  -0.40799  -0.33545
 Alpha  occ. eigenvalues --   -0.30653
 Alpha virt. eigenvalues --    0.05425   0.05431   0.07287   0.07774   0.08959
 Alpha virt. eigenvalues --    0.09400   0.10045   0.11349   0.11662   0.11788
 Alpha virt. eigenvalues --    0.12430   0.12599   0.14757   0.15504   0.15670
 Alpha virt. eigenvalues --    0.15988   0.17705   0.18849   0.20302   0.20436
 Alpha virt. eigenvalues --    0.21404   0.21861   0.22716   0.23316   0.23880
 Alpha virt. eigenvalues --    0.25096   0.25358   0.25856   0.26770   0.27155
 Alpha virt. eigenvalues --    0.28152   0.28723   0.29374   0.30054   0.30731
 Alpha virt. eigenvalues --    0.31106   0.31645   0.32650   0.32862   0.33467
 Alpha virt. eigenvalues --    0.35216   0.35697   0.37831   0.38612   0.39630
 Alpha virt. eigenvalues --    0.41015   0.41223   0.42709   0.45673   0.46647
 Alpha virt. eigenvalues --    0.47818   0.51204   0.55569   0.57641   0.63642
 Alpha virt. eigenvalues --    0.70708   0.75804   0.79037   0.79088   0.81780
 Alpha virt. eigenvalues --    0.83615   0.83728   0.85381   0.85680   0.86256
 Alpha virt. eigenvalues --    0.87224   0.89455   0.89562   0.91537   0.91911
 Alpha virt. eigenvalues --    0.93972   0.97616   1.01312   1.01731   1.04334
 Alpha virt. eigenvalues --    1.06973   1.07925   1.08363   1.08651   1.12090
 Alpha virt. eigenvalues --    1.12469   1.15714   1.17676   1.19023   1.21015
 Alpha virt. eigenvalues --    1.24059   1.25178   1.29668   1.30553   1.33561
 Alpha virt. eigenvalues --    1.35844   1.36738   1.37328   1.44697   1.45396
 Alpha virt. eigenvalues --    1.48509   1.50230   1.55107   1.56459   1.59013
 Alpha virt. eigenvalues --    1.60029   1.60947   1.63405   1.64482   1.67179
 Alpha virt. eigenvalues --    1.73087   1.79270   1.93734   1.99423   2.05182
 Alpha virt. eigenvalues --    2.06528   2.08633   2.10915   2.14318   2.16368
 Alpha virt. eigenvalues --    2.17019   2.20758   2.26408   2.27565   2.30312
 Alpha virt. eigenvalues --    2.32437   2.34670   2.38580   2.39558   2.40765
 Alpha virt. eigenvalues --    2.45162   2.47038   2.52598   2.55871   2.62373
 Alpha virt. eigenvalues --    2.71950   2.74022   2.77063   2.79839   2.82488
 Alpha virt. eigenvalues --    2.84243   2.87354   2.98023   2.99007   2.99931
 Alpha virt. eigenvalues --    3.08845   3.13455   3.28829   3.42484   3.61341
 Alpha virt. eigenvalues --    4.30403   4.38353   4.41820   4.45304   4.50212
 Alpha virt. eigenvalues --    4.54349   4.61484   4.65967   4.93608
          Condensed to atoms (all electrons):
               1          2          3          4          5          6
     1  C    5.963274   0.314729  -1.102341  -0.028708   1.522082   0.686106
     2  H    0.314729   0.452148   0.040728  -0.000409  -0.107410  -0.025380
     3  C   -1.102341   0.040728  10.271238   0.314312  -4.016590  -2.846050
     4  H   -0.028708  -0.000409   0.314312   0.460738  -0.021138  -0.002842
     5  C    1.522082  -0.107410  -4.016590  -0.021138  14.380845   0.638905
     6  C    0.686106  -0.025380  -2.846050  -0.002842   0.638905  11.151492
     7  C   -0.060006   0.001530   0.033954   0.004029  -0.019418   0.181735
     8  C    0.029711   0.000079  -0.195827   0.001600  -0.838914   0.676837
     9  C   -0.970414   0.037367   2.430727   0.001943  -3.808933  -2.638983
    10  C   -0.665696   0.114080   1.814226   0.033494  -4.387632  -1.568358
    11  H    0.003937  -0.000002  -0.022335   0.001532   0.096206   0.190657
    12  H    0.000380  -0.000000   0.004524  -0.000002   0.023727  -0.002370
    13  H    0.001209  -0.000000   0.001022   0.000000   0.023316  -0.008517
    14  H    0.006365   0.000001  -0.001519   0.000002  -0.001578  -0.011865
    15  N    0.567009  -0.058244  -0.688528   0.006453   0.826667   0.196922
    16  H   -0.001935  -0.002065  -0.023411  -0.000071   0.224217   0.034257
               7          8          9         10         11         12
     1  C   -0.060006   0.029711  -0.970414  -0.665696   0.003937   0.000380
     2  H    0.001530   0.000079   0.037367   0.114080  -0.000002  -0.000000
     3  C    0.033954  -0.195827   2.430727   1.814226  -0.022335   0.004524
     4  H    0.004029   0.001600   0.001943   0.033494   0.001532  -0.000002
     5  C   -0.019418  -0.838914  -3.808933  -4.387632   0.096206   0.023727
     6  C    0.181735   0.676837  -2.638983  -1.568358   0.190657  -0.002370
     7  C    5.500468   0.343699   0.283484  -0.469491   0.033642   0.275305
     8  C    0.343699   5.606706   0.264569   0.304042   0.000496   0.017379
     9  C    0.283484   0.264569  11.444589  -0.396110  -0.021618   0.008173
    10  C   -0.469491   0.304042  -0.396110  12.640891   0.021334  -0.011605
    11  H    0.033642   0.000496  -0.021618   0.021334   0.473442  -0.002282
    12  H    0.275305   0.017379   0.008173  -0.011605  -0.002282   0.473690
    13  H    0.022783   0.261441   0.019356  -0.004146  -0.000111  -0.002790
    14  H   -0.001425   0.059906   0.181767   0.077136   0.000014  -0.000116
    15  N   -0.025050  -0.002266  -0.542734  -0.310849  -0.000533   0.000289
    16  H   -0.003409  -0.008842  -0.168043  -0.100905   0.000004  -0.000000
              13         14         15         16
     1  C    0.001209   0.006365   0.567009  -0.001935
     2  H   -0.000000   0.000001  -0.058244  -0.002065
     3  C    0.001022  -0.001519  -0.688528  -0.023411
     4  H    0.000000   0.000002   0.006453  -0.000071
     5  C    0.023316  -0.001578   0.826667   0.224217
     6  C   -0.008517  -0.011865   0.196922   0.034257
     7  C    0.022783  -0.001425  -0.025050  -0.003409
     8  C    0.261441   0.059906  -0.002266  -0.008842
     9  C    0.019356   0.181767  -0.542734  -0.168043
    10  C   -0.004146   0.077136  -0.310849  -0.100905
    11  H   -0.000111   0.000014  -0.000533   0.000004
    12  H   -0.002790  -0.000116   0.000289  -0.000000
    13  H    0.471536  -0.002649  -0.000418  -0.000002
    14  H   -0.002649   0.483728  -0.007566   0.001901
    15  N   -0.000418  -0.007566   7.222002   0.291776
    16  H   -0.000002   0.001901   0.291776   0.313973
 Mulliken charges:
               1
     1  C   -0.265700
     2  H    0.232849
     3  C   -0.014129
     4  H    0.229068
     5  C    1.465647
     6  C   -0.652546
     7  C   -0.101830
     8  C   -0.520616
     9  C   -0.125140
    10  C   -1.090409
    11  H    0.225618
    12  H    0.215698
    13  H    0.217970
    14  H    0.215897
    15  N   -0.474930
    16  H    0.442554
 Sum of Mulliken charges =  -0.00000
 Mulliken charges with hydrogens summed into heavy atoms:
               1
     1  C   -0.032851
     3  C    0.214939
     5  C    1.465647
     6  C   -0.426928
     7  C    0.113868
     8  C   -0.302646
     9  C    0.090757
    10  C   -1.090409
    15  N   -0.032376
 Electronic spatial extent (au):  <R**2>=            988.8687
 Charge=             -0.0000 electrons
 Dipole moment (field-independent basis, Debye):
    X=              1.5650    Y=             -1.6238    Z=              0.0000  Tot=              2.2552
 Quadrupole moment (field-independent basis, Debye-Ang):
   XX=            -44.3820   YY=            -43.1889   ZZ=            -58.4887
   XY=             -3.4345   XZ=              0.0000   YZ=             -0.0000
 Traceless Quadrupole moment (field-independent basis, Debye-Ang):
   XX=              4.3045   YY=              5.4977   ZZ=             -9.8022
   XY=             -3.4345   XZ=              0.0000   YZ=             -0.0000
 Octapole moment (field-independent basis, Debye-Ang**2):
  XXX=             14.0091  YYY=             -9.9339  ZZZ=              0.0000  XYY=              7.8363
  XXY=             -8.2841  XXZ=              0.0001  XZZ=              2.3537  YZZ=             -2.0573
  YYZ=              0.0001  XYZ=             -0.0000
 Hexadecapole moment (field-independent basis, Debye-Ang**3):
 XXXX=           -775.4714 YYYY=           -355.8275 ZZZZ=            -69.8934 XXXY=            -19.9361
 XXXZ=              0.0004 YYYX=            -20.8706 YYYZ=              0.0000 ZZZX=              0.0000
 ZZZY=              0.0000 XXYY=           -189.3454 XXZZ=           -183.6115 YYZZ=            -91.8105
 XXYZ=              0.0000 YYXZ=              0.0001 ZZXY=             -4.2420
 N-N= 4.040653087300D+02 E-N=-1.649938833284D+03  KE= 3.594626126686D+02
 Calling FoFJK, ICntrl=  10005127 FMM=F ISym2X=0 I1Cent= 0 IOpClX= 0 NMat=1 NMatS=1 NMatT=0.
 ***** Axes restored to original set *****
 -------------------------------------------------------------------
 Center     Atomic                   Forces (Hartrees/Bohr)
 Number     Number              X              Y              Z
 -------------------------------------------------------------------
      1        6           0.040651301   -0.008642747    0.054420562
      2        1          -0.011552348    0.000386844   -0.001767627
      3        6          -0.058511501    0.001200586   -0.003928238
      4        1           0.000621340   -0.001378742    0.009084182
      5        6           0.046316514   -0.006818659    0.041955518
      6        6          -0.004013917    0.001908583   -0.012358126
      7        6          -0.022972723    0.001944098   -0.011292329
      8        6           0.000225254   -0.002830152    0.018719280
      9        6           0.011066885    0.000733117   -0.005613730
     10        6          -0.021732046    0.009071837   -0.058558459
     11        1           0.006150994   -0.001415413    0.008946764
     12        1           0.011697280    0.000203321   -0.002149356
     13        1           0.004633720    0.001423684   -0.009742386
     14        1          -0.006307704    0.001557334   -0.009875682
     15        7           0.009916957    0.001703044   -0.011955303
     16        1          -0.006190004    0.000953265   -0.005885072
 -------------------------------------------------------------------
 Cartesian Forces:  Max     0.058558459 RMS     0.019615343

 GradGradGradGradGradGradGradGradGradGradGradGradGradGradGradGradGradGrad
 Berny optimization.
 FormGI is forming the generalized inverse of G from B-inverse, IUseBI=4.
 Internal  Forces:  Max     0.049909190 RMS     0.010406791
 Search for a local minimum.
 Step number   1 out of a maximum of   94
 All quantities printed in internal units (Hartrees-Bohrs-Radians)
 Mixed Optimization -- RFO/linear search
 Second derivative matrix not updated -- first step.
 ITU=  0
     Eigenvalues ---    0.01860   0.01895   0.01902   0.02068   0.02080
     Eigenvalues ---    0.02086   0.02127   0.02200   0.02213   0.02278
     Eigenvalues ---    0.02323   0.02358   0.02380   0.16000   0.16000
     Eigenvalues ---    0.16000   0.16000   0.16000   0.16000   0.16000
     Eigenvalues ---    0.22000   0.22203   0.22697   0.24057   0.24673
     Eigenvalues ---    0.37230   0.37230   0.37230   0.37230   0.37230
     Eigenvalues ---    0.37230   0.38960   0.40898   0.41789   0.43284
     Eigenvalues ---    0.43732   0.46001   0.46371   0.47688   0.47929
     Eigenvalues ---    0.52579   0.54391
 RFO step:  Lambda=-2.13467754D-02 EMin= 1.86035355D-02
 Linear search not attempted -- first point.
 Iteration  1 RMS(Cart)=  0.03645608 RMS(Int)=  0.00054333
 Iteration  2 RMS(Cart)=  0.00064125 RMS(Int)=  0.00019657
 Iteration  3 RMS(Cart)=  0.00000030 RMS(Int)=  0.00019657
 Variable       Old X    -DE/DX   Delta X   Delta X   Delta X     New X
                                 (Linear)    (Quad)   (Total)
    R1        2.02201   0.00842   0.00000   0.02138   0.02138   2.04339
    R2        2.65273  -0.03334   0.00000  -0.07780  -0.07822   2.57452
    R3        2.55513   0.03749   0.00000   0.06173   0.06171   2.61685
    R4        2.02201   0.00894   0.00000   0.02270   0.02270   2.04471
    R5        2.62333   0.03329   0.00000   0.06797   0.06773   2.69106
    R6        2.62749   0.00024   0.00000   0.00300   0.00325   2.63074
    R7        2.59248   0.04991   0.00000   0.10643   0.10678   2.69926
    R8        2.66581   0.00846   0.00000   0.01517   0.01533   2.68114
    R9        2.02201   0.01094   0.00000   0.02780   0.02780   2.04981
   R10        2.68523  -0.00746   0.00000  -0.02269  -0.02277   2.66246
   R11        2.02201   0.01188   0.00000   0.03017   0.03017   2.05217
   R12        2.66807  -0.00401   0.00000  -0.01129  -0.01154   2.65653
   R13        2.02201   0.01088   0.00000   0.02763   0.02763   2.04963
   R14        2.62983   0.00958   0.00000   0.02262   0.02247   2.65230
   R15        2.02201   0.01177   0.00000   0.02989   0.02989   2.05190
   R16        2.54075   0.00313   0.00000   0.00836   0.00876   2.54951
   R17        1.88973   0.00852   0.00000   0.01710   0.01710   1.90682
    A1        2.19582   0.00606   0.00000   0.04611   0.04629   2.24211
    A2        2.19582  -0.01035   0.00000  -0.04438  -0.04420   2.15162
    A3        1.89154   0.00428   0.00000  -0.00173  -0.00210   1.88945
    A4        2.21605  -0.00549   0.00000  -0.02163  -0.02135   2.19470
    A5        1.85109   0.00648   0.00000   0.01845   0.01788   1.86897
    A6        2.21605  -0.00099   0.00000   0.00318   0.00347   2.21951
    A7        2.26897   0.01915   0.00000   0.05438   0.05414   2.32311
    A8        1.87795  -0.00198   0.00000   0.00036   0.00023   1.87818
    A9        2.13627  -0.01717   0.00000  -0.05473  -0.05436   2.08190
   A10        2.05096  -0.00005   0.00000   0.00151   0.00201   2.05297
   A11        2.11611  -0.00034   0.00000  -0.00277  -0.00302   2.11309
   A12        2.11611   0.00039   0.00000   0.00126   0.00101   2.11712
   A13        2.09958   0.01236   0.00000   0.03696   0.03711   2.13668
   A14        2.09180  -0.00549   0.00000  -0.01469  -0.01477   2.07704
   A15        2.09181  -0.00687   0.00000  -0.02227  -0.02234   2.06946
   A16        2.10149   0.00424   0.00000   0.00466   0.00438   2.10587
   A17        2.09085  -0.00251   0.00000  -0.00447  -0.00433   2.08652
   A18        2.09085  -0.00173   0.00000  -0.00019  -0.00005   2.09080
   A19        2.05481  -0.00657   0.00000  -0.02278  -0.02315   2.03166
   A20        2.11419   0.00214   0.00000   0.00508   0.00526   2.11945
   A21        2.11419   0.00443   0.00000   0.01770   0.01789   2.13207
   A22        2.12327   0.00719   0.00000   0.03438   0.03402   2.15728
   A23        1.90643  -0.01962   0.00000  -0.06150  -0.06081   1.84562
   A24        2.25349   0.01243   0.00000   0.02712   0.02679   2.28028
   A25        1.89776   0.01084   0.00000   0.04442   0.04480   1.94256
   A26        2.19271  -0.00435   0.00000  -0.01633  -0.01652   2.17619
   A27        2.19271  -0.00649   0.00000  -0.02809  -0.02828   2.16443
    D1        0.00000  -0.00000   0.00000  -0.00000  -0.00000   0.00000
    D2       -3.14159  -0.00000   0.00000  -0.00000  -0.00000  -3.14159
    D3        3.14159   0.00000   0.00000   0.00000   0.00000   3.14159
    D4       -0.00000  -0.00000   0.00000   0.00000   0.00000  -0.00000
    D5        3.14159   0.00000   0.00000   0.00000   0.00000   3.14159
    D6        0.00000   0.00000   0.00000   0.00000   0.00000   0.00000
    D7        0.00000  -0.00000   0.00000  -0.00000  -0.00000  -0.00000
    D8       -3.14159  -0.00000   0.00000  -0.00000  -0.00000  -3.14159
    D9        3.14159   0.00000   0.00000   0.00000   0.00000   3.14159
   D10        0.00000   0.00000   0.00000   0.00000   0.00000   0.00000
   D11       -0.00000  -0.00000   0.00000   0.00000   0.00000  -0.00000
   D12       -3.14159  -0.00000   0.00000  -0.00000  -0.00000  -3.14159
   D13       -3.14159  -0.00000   0.00000  -0.00000  -0.00000  -3.14159
   D14        0.00000   0.00000   0.00000  -0.00000  -0.00000   0.00000
   D15       -0.00000  -0.00000   0.00000  -0.00000  -0.00000  -0.00000
   D16        3.14159   0.00000   0.00000   0.00000   0.00000   3.14159
   D17        3.14159   0.00000   0.00000   0.00000   0.00000   3.14159
   D18       -0.00000  -0.00000   0.00000  -0.00000  -0.00000  -0.00000
   D19       -0.00000  -0.00000   0.00000   0.00000   0.00000  -0.00000
   D20       -3.14159  -0.00000   0.00000  -0.00000  -0.00000  -3.14159
   D21       -0.00000   0.00000   0.00000   0.00000   0.00000   0.00000
   D22       -3.14159   0.00000   0.00000  -0.00000  -0.00000  -3.14159
   D23       -3.14159  -0.00000   0.00000  -0.00000  -0.00000  -3.14159
   D24        0.00000  -0.00000   0.00000  -0.00000  -0.00000   0.00000
   D25        0.00000  -0.00000   0.00000  -0.00000  -0.00000   0.00000
   D26       -3.14159  -0.00000   0.00000  -0.00000  -0.00000  -3.14159
   D27       -3.14159   0.00000   0.00000  -0.00000  -0.00000  -3.14159
   D28        0.00000   0.00000   0.00000  -0.00000  -0.00000   0.00000
   D29       -0.00000   0.00000   0.00000   0.00000   0.00000  -0.00000
   D30        3.14159   0.00000   0.00000   0.00000   0.00000   3.14159
   D31        3.14159   0.00000   0.00000   0.00000   0.00000   3.14159
   D32       -0.00000   0.00000   0.00000   0.00000   0.00000  -0.00000
   D33        0.00000   0.00000   0.00000  -0.00000  -0.00000   0.00000
   D34        3.14159   0.00000   0.00000   0.00000   0.00000   3.14159
   D35        3.14159   0.00000   0.00000  -0.00000  -0.00000   3.14159
   D36       -0.00000   0.00000   0.00000   0.00000   0.00000  -0.00000
   D37        0.00000   0.00000   0.00000   0.00000   0.00000   0.00000
   D38        3.14159   0.00000   0.00000   0.00000   0.00000   3.14159
   D39       -3.14159  -0.00000   0.00000  -0.00000  -0.00000  -3.14159
   D40        0.00000  -0.00000   0.00000  -0.00000  -0.00000   0.00000
         Item               Value     Threshold  Converged?
 Maximum Force            0.049909     0.000450     NO 
 RMS     Force            0.010407     0.000300     NO 
 Maximum Displacement     0.125320     0.001800     NO 
 RMS     Displacement     0.036327     0.001200     NO 
 Predicted change in Energy=-1.124062D-02
 GradGradGradGradGradGradGradGradGradGradGradGradGradGradGradGradGradGrad

                          Input orientation:                          
 ---------------------------------------------------------------------
 Center     Atomic      Atomic             Coordinates (Angstroms)
 Number     Number       Type             X           Y           Z
 ---------------------------------------------------------------------
      1          6           0       -1.334394    2.081652    1.441556
      2          1           0       -2.252401    2.005630    2.007882
      3          6           0       -0.051355    2.000232    1.892388
      4          1           0        0.248790    1.841910    2.919812
      5          6           0        0.800158    2.162080    0.762499
      6          6           0        2.183595    2.171147    0.607449
      7          6           0        2.697746    2.363451   -0.700853
      8          6           0        1.863117    2.541463   -1.821900
      9          6           0        0.464297    2.534904   -1.682384
     10          6           0       -0.032569    2.343874   -0.383714
     11          1           0        2.843139    2.035830    1.457912
     12          1           0        3.773714    2.374430   -0.847444
     13          1           0        2.306357    2.684827   -2.801382
     14          1           0       -0.190752    2.670897   -2.537614
     15          7           0       -1.300951    2.288096    0.072664
     16          1           0       -2.116514    2.385115   -0.513531
 ---------------------------------------------------------------------
                    Distance matrix (angstroms):
                    1          2          3          4          5
     1  C    0.000000
     2  H    1.081315   0.000000
     3  C    1.362376   2.204081   0.000000
     4  H    2.179264   2.667280   1.082013   0.000000
     5  C    2.241405   3.300541   1.424050   2.249559   0.000000
     6  C    3.616627   4.654747   2.583657   3.032967   1.392128
     7  C    4.574656   5.654135   3.796628   4.402114   2.404743
     8  C    4.591911   5.647286   4.213558   5.057594   2.820094
     9  C    3.633143   4.612878   3.651133   4.659066   2.495847
    10  C    2.257237   3.280518   2.301974   3.353270   1.428386
    11  H    4.177816   5.125223   2.927137   2.984192   2.161784
    12  H    5.605177   6.678546   4.719943   5.186607   3.388074
    13  H    5.623291   6.661276   5.297070   6.138090   3.904247
    14  H    4.181976   5.035327   4.482650   5.537501   3.483036
    15  N    1.384775   2.174882   2.226152   3.272160   2.215042
    16  H    2.127478   2.553428   3.193973   4.204471   3.191390
                    6          7          8          9         10
     6  C    0.000000
     7  C    1.418798   0.000000
     8  C    2.478221   1.408915   0.000000
     9  C    2.886458   2.445627   1.405775   0.000000
    10  C    2.433849   2.748741   2.387686   1.403536   0.000000
    11  H    1.084710   2.188319   3.460242   3.971073   3.428728
    12  H    2.164837   1.085964   2.151243   3.416887   3.834549
    13  H    3.449502   2.160715   1.084619   2.160513   3.381115
    14  H    3.972240   3.436805   2.178847   1.085818   2.184319
    15  N    3.527284   4.073522   3.696606   2.501442   1.349143
    16  H    4.448967   4.817951   4.192103   2.837118   2.088391
                   11         12         13         14         15
    11  H    0.000000
    12  H    2.509041   0.000000
    13  H    4.341764   2.463200   0.000000
    14  H    5.056880   4.319902   2.511039   0.000000
    15  N    4.376761   5.158128   4.629277   2.862277   0.000000
    16  H    5.348527   5.899695   4.988574   2.808406   1.009048
                   16
    16  H    0.000000
 Stoichiometry    C8H7N
 Framework group  C1[X(C8H7N)]
 Deg. of freedom    42
 Full point group                 C1      NOp   1
 Largest Abelian subgroup         C1      NOp   1
 Largest concise Abelian subgroup C1      NOp   1
                         Standard orientation:                         
 ---------------------------------------------------------------------
 Center     Atomic      Atomic             Coordinates (Angstroms)
 Number     Number       Type             X           Y           Z
 ---------------------------------------------------------------------
      1          6           0        2.384198   -0.003091    0.000001
      2          1           0        3.460801   -0.103927    0.000004
      3          6           0        1.639944    1.138028    0.000000
      4          1           0        2.030171    2.147224    0.000001
      5          6           0        0.271255    0.744821   -0.000002
      6          6           0       -0.923692    1.459049   -0.000000
      7          6           0       -2.133334    0.717595    0.000001
      8          6           0       -2.155872   -0.691139    0.000000
      9          6           0       -0.958202   -1.427202    0.000001
     10          6           0        0.231800   -0.683020   -0.000002
     11          1           0       -0.927560    2.543753    0.000002
     12          1           0       -3.078620    1.252153    0.000001
     13          1           0       -3.107857   -1.210873   -0.000001
     14          1           0       -0.960828   -2.513017    0.000000
     15          7           0        1.519704   -1.084874   -0.000000
     16          1           0        1.809388   -2.051447    0.000002
 ---------------------------------------------------------------------
 Rotational constants (GHZ):           3.8572616           1.6483328           1.1548346
 Standard basis: 6-31+G(d) (6D, 7F)
 There are   185 symmetry adapted cartesian basis functions of A   symmetry.
 There are   185 symmetry adapted basis functions of A   symmetry.
   185 basis functions,   316 primitive gaussians,   185 cartesian basis functions
    31 alpha electrons       31 beta electrons
       nuclear repulsion energy       400.5895978750 Hartrees.
 NAtoms=   16 NActive=   16 NUniq=   16 SFac= 1.00D+00 NAtFMM=   60 NAOKFM=F Big=F
 Integral buffers will be    131072 words long.
 Raffenetti 1 integral format.
 Two-electron integral symmetry is turned on.
 One-electron integrals computed using PRISM.
 NBasis=   185 RedAO= T EigKep=  1.37D-06  NBF=   185
 NBsUse=   185 1.00D-06 EigRej= -1.00D+00 NBFU=   185
 Initial guess from the checkpoint file:  "/scratch/gfoley1/16945501/Gau-19267.chk"
 B after Tr=    -0.000000   -0.000000   -0.000000
         Rot=    0.999900   -0.000000   -0.000000    0.014162 Ang=   1.62 deg.
 ExpMin= 4.38D-02 ExpMax= 4.17D+03 ExpMxC= 6.27D+02 IAcc=3 IRadAn=         5 AccDes= 0.00D+00
 Harris functional with IExCor=11009 and IRadAn=       5 diagonalized for initial guess.
 HarFok:  IExCor=11009 AccDes= 0.00D+00 IRadAn=         5 IDoV= 1 UseB2=F ITyADJ=14
 ICtDFT=  3500011 ScaDFX=  1.000000  1.000000  1.000000  1.000000
 FoFCou: FMM=F IPFlag=           0 FMFlag=      100000 FMFlg1=           0
         NFxFlg=           0 DoJE=T BraDBF=F KetDBF=T FulRan=T
         wScrn=  0.000000 ICntrl=       500 IOpCl=  0 I1Cent=   200000004 NGrid=           0
         NMat0=    1 NMatS0=      1 NMatT0=    0 NMatD0=    1 NMtDS0=    0 NMtDT0=    0
 Petite list used in FoFCou.
 Requested convergence on RMS density matrix=1.00D-08 within 128 cycles.
 Requested convergence on MAX density matrix=1.00D-06.
 Requested convergence on             energy=1.00D-06.
 No special actions if energy rises.
 SCF Done:  E(RLC-PBE+HF-PBE) =  -362.550983582     A.U. after   17 cycles
            NFock= 17  Conv=0.24D-08     -V/T= 2.0096
 DoSCS=F DFT=T ScalE2(SS,OS)=  1.000000  1.000000
 ExpMin= 4.38D-02 ExpMax= 4.17D+03 ExpMxC= 6.27D+02 IAcc=3 IRadAn=         5 AccDes= 0.00D+00
 HarFok:  IExCor=  205 AccDes= 0.00D+00 IRadAn=         5 IDoV=-2 UseB2=F ITyADJ=14
 ICtDFT= 12500011 ScaDFX=  1.000000  1.000000  1.000000  1.000000
 Range of M.O.s used for correlation:    10   185
 NBasis=   185 NAE=    31 NBE=    31 NFC=     9 NFV=     0
 NROrb=    176 NOA=    22 NOB=    22 NVA=   154 NVB=   154

 **** Warning!!: The largest alpha MO coefficient is  0.20246273D+03

 Orbital symmetries:
       Occupied  (A) (A) (A) (A) (A) (A) (A) (A) (A) (A) (A) (A)
                 (A) (A) (A) (A) (A) (A) (A) (A) (A) (A) (A) (A)
                 (A) (A) (A) (A) (A) (A) (A)
       Virtual   (A) (A) (A) (A) (A) (A) (A) (A) (A) (A) (A) (A)
                 (A) (A) (A) (A) (A) (A) (A) (A) (A) (A) (A) (A)
                 (A) (A) (A) (A) (A) (A) (A) (A) (A) (A) (A) (A)
                 (A) (A) (A) (A) (A) (A) (A) (A) (A) (A) (A) (A)
                 (A) (A) (A) (A) (A) (A) (A) (A) (A) (A) (A) (A)
                 (A) (A) (A) (A) (A) (A) (A) (A) (A) (A) (A) (A)
                 (A) (A) (A) (A) (A) (A) (A) (A) (A) (A) (A) (A)
                 (A) (A) (A) (A) (A) (A) (A) (A) (A) (A) (A) (A)
                 (A) (A) (A) (A) (A) (A) (A) (A) (A) (A) (A) (A)
                 (A) (A) (A) (A) (A) (A) (A) (A) (A) (A) (A) (A)
                 (A) (A) (A) (A) (A) (A) (A) (A) (A) (A) (A) (A)
                 (A) (A) (A) (A) (A) (A) (A) (A) (A) (A) (A) (A)
                 (A) (A) (A) (A) (A) (A) (A) (A) (A) (A)
 Generating guess from densities on rwf.
 Convergence on wavefunction:    0.000001000000000
 Iteration     1 Dimension     6 NMult     0 NNew      6
 CISAX will form     6 AO SS matrices at one time.
 New state      1 was old state      2
 New state      2 was old state      1
 Iteration     2 Dimension    12 NMult     6 NNew      6
 Iteration     3 Dimension    18 NMult    12 NNew      6
 Iteration     4 Dimension    24 NMult    18 NNew      6
 Iteration     5 Dimension    30 NMult    24 NNew      6
 Iteration     6 Dimension    36 NMult    30 NNew      6
 Iteration     7 Dimension    42 NMult    36 NNew      6
 Iteration     8 Dimension    48 NMult    42 NNew      6
 Iteration     9 Dimension    54 NMult    48 NNew      6
 Iteration    10 Dimension    60 NMult    54 NNew      6
 Iteration    11 Dimension    66 NMult    60 NNew      6
 Iteration    12 Dimension    70 NMult    66 NNew      4
 Iteration    13 Dimension    72 NMult    70 NNew      2
 Iteration    14 Dimension    74 NMult    72 NNew      2
 Iteration    15 Dimension    76 NMult    74 NNew      2
 Iteration    16 Dimension    78 NMult    76 NNew      2
 Iteration    17 Dimension    80 NMult    78 NNew      2
 Iteration    18 Dimension    82 NMult    80 NNew      2
 ***********************************************************************
 Excited states from <AA,BB:AA,BB> singles matrix:
 ***********************************************************************
 
 Ground to excited state transition densities written to RWF  633
 Ground to excited state transition electric dipole moments (Au):
       state          X           Y           Z        Dip. S.      Osc.
         1        -0.6991      0.6455     -0.0000      0.9054      0.1185
         2        -0.4385     -0.5298      0.0000      0.4730      0.0589
         3         0.0000      0.0000     -0.1439      0.0207      0.0032
 Ground to excited state transition velocity dipole moments (Au):
       state          X           Y           Z        Dip. S.      Osc.
         1         0.1255     -0.1325      0.0000      0.0333      0.1131
         2         0.0802      0.1046     -0.0000      0.0174      0.0620
         3        -0.0000     -0.0000      0.0245      0.0006      0.0017
 Ground to excited state transition magnetic dipole moments (Au):
       state          X           Y           Z
         1         0.0000      0.0000      0.0214
         2        -0.0000      0.0000     -0.2209
         3         0.0928     -0.0683      0.0000
 Ground to excited state transition velocity quadrupole moments (Au):
       state          XX          YY          ZZ          XY          XZ          YZ
         1         0.2892     -0.1982      0.0207     -0.0284     -0.0000     -0.0000
         2        -0.0424     -0.0694      0.0148     -0.0511     -0.0000      0.0000
         3        -0.0000      0.0000      0.0000      0.0000      0.0884      0.0385
 <0|del|b> * <b|rxdel|0> + <0|del|b> * <b|delr+rdel|0>
 Rotatory Strengths (R) in cgs (10**-40 erg-esu-cm/Gauss)
       state          XX          YY          ZZ    R(velocity)    E-M Angle
         1        -0.0001      0.0002      0.0002      0.0001       90.00
         2         0.0001     -0.0000     -0.0001     -0.0000       90.00
         3         0.0002     -0.0000     -0.0000      0.0000       90.00
 1/2[<0|r|b>*<b|rxdel|0> + (<0|rxdel|b>*<b|r|0>)*]
 Rotatory Strengths (R) in cgs (10**-40 erg-esu-cm/Gauss)
       state          XX          YY          ZZ     R(length)
         1         0.0004     -0.0002      0.0000      0.0001
         2        -0.0001      0.0000      0.0001     -0.0000
         3        -0.0001      0.0000      0.0003      0.0001
  1/2[<0|del|b>*<b|r|0> + (<0|r|b>*<b|del|0>)*] (Au)
       state          X           Y           Z        Dip. S.   Osc.(frdel)
         1        -0.0877     -0.0855     -0.0000      0.1732      0.1155
         2        -0.0352     -0.0554     -0.0000      0.0906      0.0604
         3        -0.0000     -0.0000     -0.0035      0.0035      0.0024

 Excitation energies and oscillator strengths:
 
 Excited State   1:      Singlet-A      5.3399 eV  232.19 nm  f=0.1185  <S**2>=0.000
      30 -> 32        -0.26506
      30 -> 38        -0.20004
      31 -> 32         0.57941
      31 -> 38        -0.18310
 
 Excited State   2:      Singlet-A      5.0803 eV  244.05 nm  f=0.0589  <S**2>=0.000
      30 -> 32        -0.53475
      30 -> 38         0.11443
      31 -> 32        -0.30341
      31 -> 38        -0.27105
 This state for optimization and/or second-order correction.
 Total Energy, E(TD-HF/TD-DFT) =  -362.364286129    
 Copying the excited state density for this state as the 1-particle RhoCI density.
 
 Excited State   3:      Singlet-A      6.2648 eV  197.91 nm  f=0.0032  <S**2>=0.000
      31 -> 33         0.64495
      31 -> 40        -0.12505
 SavETr:  write IOETrn=   770 NScale= 10 NData=  16 NLR=1 NState=    3 LETran=      64.
          IDoAtm=1111111111111111
          Differentiating once with respect to electric field.
                with respect to dipole field.
          Differentiating once with respect to nuclear coordinates.
          There are     1 degrees of freedom in the 1st order CPHF.  IDoFFX=0 NUNeed=     1.
 LinEq1:  Iter=  0 NonCon=     1 RMS=3.73D-03 Max=7.60D-02 NDo=     1
 AX will form     1 AO Fock derivatives at one time.
 LinEq1:  Iter=  1 NonCon=     1 RMS=1.44D-03 Max=4.40D-02 NDo=     1
 LinEq1:  Iter=  2 NonCon=     1 RMS=6.10D-04 Max=1.66D-02 NDo=     1
 LinEq1:  Iter=  3 NonCon=     1 RMS=3.32D-04 Max=1.02D-02 NDo=     1
 LinEq1:  Iter=  4 NonCon=     1 RMS=1.12D-04 Max=2.36D-03 NDo=     1
 LinEq1:  Iter=  5 NonCon=     1 RMS=4.90D-05 Max=1.37D-03 NDo=     1
 LinEq1:  Iter=  6 NonCon=     1 RMS=2.12D-05 Max=5.99D-04 NDo=     1
 LinEq1:  Iter=  7 NonCon=     1 RMS=7.44D-06 Max=1.64D-04 NDo=     1
 LinEq1:  Iter=  8 NonCon=     1 RMS=3.87D-06 Max=1.01D-04 NDo=     1
 LinEq1:  Iter=  9 NonCon=     1 RMS=1.28D-06 Max=2.33D-05 NDo=     1
 LinEq1:  Iter= 10 NonCon=     1 RMS=6.06D-07 Max=1.10D-05 NDo=     1
 LinEq1:  Iter= 11 NonCon=     1 RMS=2.20D-07 Max=4.38D-06 NDo=     1
 LinEq1:  Iter= 12 NonCon=     1 RMS=9.66D-08 Max=1.69D-06 NDo=     1
 LinEq1:  Iter= 13 NonCon=     1 RMS=3.21D-08 Max=5.94D-07 NDo=     1
 LinEq1:  Iter= 14 NonCon=     1 RMS=1.10D-08 Max=1.46D-07 NDo=     1
 LinEq1:  Iter= 15 NonCon=     1 RMS=4.04D-09 Max=9.24D-08 NDo=     1
 LinEq1:  Iter= 16 NonCon=     1 RMS=9.84D-10 Max=1.69D-08 NDo=     1
 LinEq1:  Iter= 17 NonCon=     1 RMS=3.47D-10 Max=4.86D-09 NDo=     1
 LinEq1:  Iter= 18 NonCon=     1 RMS=1.19D-10 Max=1.67D-09 NDo=     1
 LinEq1:  Iter= 19 NonCon=     0 RMS=2.79D-11 Max=5.30D-10 NDo=     1
 Linear equations converged to 1.000D-10 1.000D-09 after    19 iterations.
 End of Minotr F.D. properties file   721 does not exist.
 End of Minotr F.D. properties file   722 does not exist.
 End of Minotr F.D. properties file   788 does not exist.
 Calling FoFJK, ICntrl=  10005127 FMM=F ISym2X=0 I1Cent= 0 IOpClX= 0 NMat=1 NMatS=1 NMatT=0.
 ***** Axes restored to original set *****
 -------------------------------------------------------------------
 Center     Atomic                   Forces (Hartrees/Bohr)
 Number     Number              X              Y              Z
 -------------------------------------------------------------------
      1        6           0.007191510   -0.002561509    0.016463047
      2        1          -0.002165216    0.000697937   -0.004471823
      3        6          -0.009257749    0.001193110   -0.007262758
      4        1           0.000770001    0.000050753   -0.000388823
      5        6           0.009528622   -0.001603531    0.009960959
      6        6           0.002594350    0.000455855   -0.003195620
      7        6          -0.006766733    0.000399933   -0.002183031
      8        6           0.003344898   -0.000727154    0.004583555
      9        6          -0.001137285    0.000406340   -0.002612408
     10        6          -0.011240865    0.000092405    0.000161324
     11        1           0.000926979    0.000112376   -0.000807896
     12        1           0.000445946   -0.000060484    0.000369799
     13        1           0.000444873   -0.000041778    0.000246363
     14        1          -0.000258252   -0.000147421    0.000993685
     15        7           0.006504891    0.001707740   -0.011751548
     16        1          -0.000925970    0.000025429   -0.000104824
 -------------------------------------------------------------------
 Cartesian Forces:  Max     0.016463047 RMS     0.004809620

 GradGradGradGradGradGradGradGradGradGradGradGradGradGradGradGradGradGrad
 Berny optimization.
 Using GEDIIS/GDIIS optimizer.
 FormGI is forming the generalized inverse of G from B-inverse, IUseBI=4.
 Internal  Forces:  Max     0.008332186 RMS     0.002156667
 Search for a local minimum.
 Step number   2 out of a maximum of   94
 All quantities printed in internal units (Hartrees-Bohrs-Radians)
 Mixed Optimization -- RFO/linear search
 Update second derivatives using D2CorX and points    1    2
 DE= -1.18D-02 DEPred=-1.12D-02 R= 1.05D+00
 TightC=F SS=  1.41D+00  RLast= 2.33D-01 DXNew= 5.0454D-01 7.0008D-01
 Trust test= 1.05D+00 RLast= 2.33D-01 DXMaxT set to 5.05D-01
 ITU=  1  0
 Use linear search instead of GDIIS.
     Eigenvalues ---    0.01860   0.01895   0.01900   0.02068   0.02078
     Eigenvalues ---    0.02084   0.02126   0.02193   0.02213   0.02273
     Eigenvalues ---    0.02320   0.02357   0.02380   0.15191   0.16000
     Eigenvalues ---    0.16000   0.16000   0.16000   0.16000   0.16088
     Eigenvalues ---    0.21753   0.22048   0.22696   0.23980   0.25042
     Eigenvalues ---    0.36509   0.37230   0.37230   0.37230   0.37230
     Eigenvalues ---    0.37270   0.37827   0.41042   0.42439   0.43279
     Eigenvalues ---    0.43902   0.46392   0.46441   0.47666   0.47933
     Eigenvalues ---    0.50787   0.56099
 RFO step:  Lambda=-1.15982849D-03 EMin= 1.86041262D-02
 Quartic linear search produced a step of  0.14396.
 Iteration  1 RMS(Cart)=  0.01381489 RMS(Int)=  0.00021181
 Iteration  2 RMS(Cart)=  0.00023240 RMS(Int)=  0.00003054
 Iteration  3 RMS(Cart)=  0.00000001 RMS(Int)=  0.00003054
 Variable       Old X    -DE/DX   Delta X   Delta X   Delta X     New X
                                 (Linear)    (Quad)   (Total)
    R1        2.04339  -0.00055   0.00308  -0.00370  -0.00062   2.04277
    R2        2.57452  -0.00501  -0.01126  -0.00593  -0.01724   2.55727
    R3        2.61685   0.00705   0.00888   0.00854   0.01738   2.63423
    R4        2.04471  -0.00016   0.00327  -0.00262   0.00064   2.04535
    R5        2.69106   0.00080   0.00975  -0.00412   0.00564   2.69670
    R6        2.63074   0.00113   0.00047   0.00296   0.00348   2.63422
    R7        2.69926   0.00724   0.01537   0.00820   0.02364   2.72289
    R8        2.68114  -0.00253   0.00221  -0.00884  -0.00659   2.67455
    R9        2.04981  -0.00008   0.00400  -0.00286   0.00114   2.05095
   R10        2.66246  -0.00501  -0.00328  -0.01281  -0.01609   2.64637
   R11        2.05217   0.00039   0.00434  -0.00163   0.00272   2.05489
   R12        2.65653  -0.00001  -0.00166   0.00047  -0.00124   2.65529
   R13        2.04963  -0.00005   0.00398  -0.00273   0.00125   2.05088
   R14        2.65230  -0.00020   0.00323  -0.00177   0.00143   2.65373
   R15        2.05190  -0.00065   0.00430  -0.00477  -0.00047   2.05143
   R16        2.54951  -0.00833   0.00126  -0.01758  -0.01630   2.53321
   R17        1.90682   0.00081   0.00246   0.00035   0.00281   1.90964
    A1        2.24211   0.00538   0.00666   0.03383   0.04053   2.28264
    A2        2.15162  -0.00481  -0.00636  -0.02975  -0.03608   2.11555
    A3        1.88945  -0.00057  -0.00030  -0.00407  -0.00445   1.88500
    A4        2.19470  -0.00050  -0.00307   0.00098  -0.00207   2.19263
    A5        1.86897   0.00273   0.00257   0.01274   0.01528   1.88425
    A6        2.21951  -0.00223   0.00050  -0.01373  -0.01321   2.20631
    A7        2.32311   0.00614   0.00779   0.01995   0.02767   2.35078
    A8        1.87818  -0.00399   0.00003  -0.01781  -0.01775   1.86043
    A9        2.08190  -0.00215  -0.00783  -0.00213  -0.00992   2.07198
   A10        2.05297  -0.00074   0.00029  -0.00429  -0.00390   2.04907
   A11        2.11309   0.00163  -0.00043   0.01130   0.01082   2.12391
   A12        2.11712  -0.00089   0.00015  -0.00701  -0.00691   2.11021
   A13        2.13668   0.00314   0.00534   0.00858   0.01396   2.15065
   A14        2.07704  -0.00201  -0.00213  -0.00780  -0.00995   2.06709
   A15        2.06946  -0.00113  -0.00322  -0.00078  -0.00402   2.06544
   A16        2.10587   0.00096   0.00063   0.00100   0.00159   2.10746
   A17        2.08652  -0.00100  -0.00062  -0.00399  -0.00459   2.08193
   A18        2.09080   0.00004  -0.00001   0.00299   0.00300   2.09380
   A19        2.03166  -0.00127  -0.00333  -0.00340  -0.00681   2.02485
   A20        2.11945   0.00147   0.00076   0.00822   0.00902   2.12847
   A21        2.13207  -0.00020   0.00257  -0.00482  -0.00221   2.12987
   A22        2.15728   0.00006   0.00490   0.00026   0.00509   2.16237
   A23        1.84562   0.00223  -0.00875   0.01567   0.00701   1.85263
   A24        2.28028  -0.00229   0.00386  -0.01593  -0.01210   2.26818
   A25        1.94256  -0.00040   0.00645  -0.00653  -0.00008   1.94248
   A26        2.17619  -0.00024  -0.00238  -0.00040  -0.00278   2.17341
   A27        2.16443   0.00064  -0.00407   0.00693   0.00286   2.16729
    D1        0.00000  -0.00000  -0.00000  -0.00000  -0.00000   0.00000
    D2       -3.14159  -0.00000  -0.00000  -0.00000  -0.00000  -3.14159
    D3        3.14159   0.00000   0.00000   0.00000   0.00000  -3.14159
    D4       -0.00000   0.00000   0.00000   0.00000   0.00000   0.00000
    D5        3.14159   0.00000   0.00000   0.00000   0.00000   3.14159
    D6        0.00000   0.00000   0.00000   0.00000   0.00000   0.00000
    D7       -0.00000  -0.00000  -0.00000  -0.00000  -0.00000  -0.00000
    D8       -3.14159  -0.00000  -0.00000  -0.00000  -0.00000  -3.14159
    D9        3.14159   0.00000   0.00000   0.00000   0.00000   3.14159
   D10        0.00000  -0.00000   0.00000  -0.00000  -0.00000   0.00000
   D11       -0.00000   0.00000   0.00000   0.00000   0.00000  -0.00000
   D12       -3.14159  -0.00000  -0.00000  -0.00000  -0.00000   3.14159
   D13       -3.14159  -0.00000  -0.00000  -0.00000  -0.00000  -3.14159
   D14        0.00000  -0.00000  -0.00000  -0.00000  -0.00000   0.00000
   D15       -0.00000   0.00000  -0.00000   0.00000   0.00000  -0.00000
   D16        3.14159   0.00000   0.00000   0.00000   0.00000   3.14159
   D17        3.14159   0.00000   0.00000   0.00000   0.00000   3.14159
   D18       -0.00000   0.00000  -0.00000   0.00000   0.00000  -0.00000
   D19       -0.00000  -0.00000   0.00000   0.00000   0.00000  -0.00000
   D20       -3.14159  -0.00000  -0.00000  -0.00000  -0.00000  -3.14159
   D21        0.00000   0.00000   0.00000  -0.00000   0.00000   0.00000
   D22       -3.14159  -0.00000  -0.00000  -0.00000  -0.00000  -3.14159
   D23       -3.14159  -0.00000  -0.00000  -0.00000  -0.00000  -3.14159
   D24        0.00000  -0.00000  -0.00000  -0.00000  -0.00000   0.00000
   D25        0.00000  -0.00000  -0.00000  -0.00000  -0.00000   0.00000
   D26       -3.14159  -0.00000  -0.00000  -0.00000  -0.00000  -3.14159
   D27       -3.14159  -0.00000  -0.00000  -0.00000  -0.00000  -3.14159
   D28        0.00000  -0.00000  -0.00000  -0.00000  -0.00000   0.00000
   D29       -0.00000   0.00000   0.00000   0.00000   0.00000  -0.00000
   D30        3.14159   0.00000   0.00000   0.00000   0.00000  -3.14159
   D31        3.14159   0.00000   0.00000   0.00000   0.00000   3.14159
   D32       -0.00000   0.00000   0.00000   0.00000   0.00000  -0.00000
   D33        0.00000  -0.00000  -0.00000  -0.00000  -0.00000   0.00000
   D34        3.14159   0.00000   0.00000   0.00000   0.00000   3.14159
   D35        3.14159  -0.00000  -0.00000  -0.00000  -0.00000   3.14159
   D36       -0.00000   0.00000   0.00000   0.00000   0.00000  -0.00000
   D37        0.00000  -0.00000   0.00000  -0.00000  -0.00000   0.00000
   D38        3.14159   0.00000   0.00000   0.00000   0.00000   3.14159
   D39       -3.14159  -0.00000  -0.00000  -0.00000  -0.00000  -3.14159
   D40        0.00000  -0.00000  -0.00000  -0.00000  -0.00000   0.00000
         Item               Value     Threshold  Converged?
 Maximum Force            0.008332     0.000450     NO 
 RMS     Force            0.002157     0.000300     NO 
 Maximum Displacement     0.060312     0.001800     NO 
 RMS     Displacement     0.013767     0.001200     NO 
 Predicted change in Energy=-7.524295D-04
 GradGradGradGradGradGradGradGradGradGradGradGradGradGradGradGradGradGrad

                          Input orientation:                          
 ---------------------------------------------------------------------
 Center     Atomic      Atomic             Coordinates (Angstroms)
 Number     Number       Type             X           Y           Z
 ---------------------------------------------------------------------
      1          6           0       -1.333197    2.080657    1.448064
      2          1           0       -2.273919    2.010673    1.975966
      3          6           0       -0.059268    1.999572    1.897305
      4          1           0        0.237640    1.841091    2.926003
      5          6           0        0.812682    2.159456    0.779018
      6          6           0        2.196115    2.170882    0.608346
      7          6           0        2.688936    2.364055   -0.704251
      8          6           0        1.857994    2.540856   -1.817530
      9          6           0        0.459773    2.534380   -1.678608
     10          6           0       -0.028904    2.342690   -0.376116
     11          1           0        2.874888    2.037505    1.444639
     12          1           0        3.765548    2.375897   -0.856597
     13          1           0        2.304857    2.684049   -2.796123
     14          1           0       -0.202579    2.669567   -2.528005
     15          7           0       -1.291749    2.288362    0.070276
     16          1           0       -2.106841    2.385848   -0.519050
 ---------------------------------------------------------------------
                    Distance matrix (angstroms):
                    1          2          3          4          5
     1  C    0.000000
     2  H    1.080989   0.000000
     3  C    1.353251   2.216075   0.000000
     4  H    2.170075   2.690586   1.082354   0.000000
     5  C    2.249140   3.313899   1.427034   2.245345   0.000000
     6  C    3.628954   4.677312   2.603366   3.052199   1.393968
     7  C    4.570594   5.651405   3.801785   4.411472   2.400474
     8  C    4.589073   5.634218   4.215316   5.061257   2.824926
     9  C    3.632724   4.593828   3.652750   4.661806   2.510983
    10  C    2.257758   3.268427   2.299368   3.350617   1.440894
    11  H    4.208308   5.176219   2.969111   3.031187   2.170396
    12  H    5.603199   6.680716   4.728088   5.200021   3.382529
    13  H    5.622512   6.647665   5.299609   6.142205   3.909400
    14  H    4.175433   5.001035   4.478035   5.534109   3.496765
    15  N    1.393973   2.161811   2.222711   3.270208   2.224311
    16  H    2.135697   2.528592   3.190695   4.202587   3.203099
                    6          7          8          9         10
     6  C    0.000000
     7  C    1.415309   0.000000
     8  C    2.477112   1.400398   0.000000
     9  C    2.894335   2.438761   1.405121   0.000000
    10  C    2.439137   2.737661   2.382715   1.404292   0.000000
    11  H    1.085315   2.181500   3.453865   3.979239   3.440973
    12  H    2.156667   1.087402   2.142281   3.410128   3.824897
    13  H    3.444644   2.150777   1.085280   2.162308   3.379260
    14  H    3.979838   3.432241   2.183415   1.085569   2.183492
    15  N    3.531078   4.056042   3.680821   2.487357   1.340520
    16  H    4.453387   4.799402   4.174925   2.820309   2.083294
                   11         12         13         14         15
    11  H    0.000000
    12  H    2.490677   0.000000
    13  H    4.327472   2.447517   0.000000
    14  H    5.064801   4.315771   2.521771   0.000000
    15  N    4.394618   5.142277   4.616100   2.843004   0.000000
    16  H    5.366101   5.882091   4.973637   2.782555   1.010536
                   16
    16  H    0.000000
 Stoichiometry    C8H7N
 Framework group  C1[X(C8H7N)]
 Deg. of freedom    42
 Full point group                 C1      NOp   1
 Largest Abelian subgroup         C1      NOp   1
 Largest concise Abelian subgroup C1      NOp   1
                         Standard orientation:                         
 ---------------------------------------------------------------------
 Center     Atomic      Atomic             Coordinates (Angstroms)
 Number     Number       Type             X           Y           Z
 ---------------------------------------------------------------------
      1          6           0        2.386273   -0.000360    0.000001
      2          1           0        3.457416   -0.145920    0.000002
      3          6           0        1.648304    1.133964    0.000000
      4          1           0        2.041899    2.142216   -0.000000
      5          6           0        0.270462    0.762511   -0.000001
      6          6           0       -0.934035    1.464176   -0.000000
      7          6           0       -2.129356    0.706345    0.000000
      8          6           0       -2.150091   -0.693899    0.000000
      9          6           0       -0.953270   -1.430094    0.000000
     10          6           0        0.232571   -0.677884   -0.000001
     11          1           0       -0.961851    2.549135    0.000001
     12          1           0       -3.078669    1.236673    0.000001
     13          1           0       -3.104419   -1.210708    0.000000
     14          1           0       -0.946532   -2.515642   -0.000000
     15          7           0        1.509954   -1.084437   -0.000000
     16          1           0        1.797334   -2.053249    0.000001
 ---------------------------------------------------------------------
 Rotational constants (GHZ):           3.8501199           1.6502380           1.1551274
 Standard basis: 6-31+G(d) (6D, 7F)
 There are   185 symmetry adapted cartesian basis functions of A   symmetry.
 There are   185 symmetry adapted basis functions of A   symmetry.
[...]
 ! D17   D(3,5,10,9)           180.0            -DE/DX =    0.0                 !
 ! D18   D(3,5,10,15)            0.0            -DE/DX =    0.0                 !
 ! D19   D(6,5,10,9)             0.0            -DE/DX =    0.0                 !
 ! D20   D(6,5,10,15)          180.0            -DE/DX =    0.0                 !
 ! D21   D(5,6,7,8)              0.0            -DE/DX =    0.0                 !
 ! D22   D(5,6,7,12)          -180.0            -DE/DX =    0.0                 !
 ! D23   D(11,6,7,8)           180.0            -DE/DX =    0.0                 !
 ! D24   D(11,6,7,12)            0.0            -DE/DX =    0.0                 !
 ! D25   D(6,7,8,9)              0.0            -DE/DX =    0.0                 !
 ! D26   D(6,7,8,13)          -180.0            -DE/DX =    0.0                 !
 ! D27   D(12,7,8,9)           180.0            -DE/DX =    0.0                 !
 ! D28   D(12,7,8,13)            0.0            -DE/DX =    0.0                 !
 ! D29   D(7,8,9,10)             0.0            -DE/DX =    0.0                 !
 ! D30   D(7,8,9,14)          -180.0            -DE/DX =    0.0                 !
 ! D31   D(13,8,9,10)          180.0            -DE/DX =    0.0                 !
 ! D32   D(13,8,9,14)            0.0            -DE/DX =    0.0                 !
 ! D33   D(8,9,10,5)             0.0            -DE/DX =    0.0                 !
 ! D34   D(8,9,10,15)          180.0            -DE/DX =    0.0                 !
 ! D35   D(14,9,10,5)          180.0            -DE/DX =    0.0                 !
 ! D36   D(14,9,10,15)           0.0            -DE/DX =    0.0                 !
 ! D37   D(5,10,15,1)            0.0            -DE/DX =    0.0                 !
 ! D38   D(5,10,15,16)         180.0            -DE/DX =    0.0                 !
 ! D39   D(9,10,15,1)         -180.0            -DE/DX =    0.0                 !
 ! D40   D(9,10,15,16)           0.0            -DE/DX =    0.0                 !
 --------------------------------------------------------------------------------
 GradGradGradGradGradGradGradGradGradGradGradGradGradGradGradGradGradGrad

                          Input orientation:                          
 ---------------------------------------------------------------------
 Center     Atomic      Atomic             Coordinates (Angstroms)
 Number     Number       Type             X           Y           Z
 ---------------------------------------------------------------------
      1          6           0       -1.334638    2.080226    1.451016
      2          1           0       -2.281445    2.012140    1.966767
      3          6           0       -0.058889    1.999300    1.899081
      4          1           0        0.242166    1.840969    2.926497
      5          6           0        0.813906    2.158784    0.783389
      6          6           0        2.196503    2.170715    0.609426
      7          6           0        2.686337    2.364057   -0.704082
      8          6           0        1.856409    2.541141   -1.819309
      9          6           0        0.459155    2.534353   -1.678389
     10          6           0       -0.027554    2.342205   -0.372996
     11          1           0        2.879620    2.037987    1.441115
     12          1           0        3.762751    2.375623   -0.854594
     13          1           0        2.304336    2.684148   -2.796743
     14          1           0       -0.208175    2.668871   -2.523012
     15          7           0       -1.287352    2.288717    0.067623
     16          1           0       -2.101153    2.386302   -0.522450
 ---------------------------------------------------------------------
                    Distance matrix (angstroms):
                    1          2          3          4          5
     1  C    0.000000
     2  H    1.080314   0.000000
     3  C    1.354565   2.223623   0.000000
     4  H    2.172694   2.705364   1.082260   0.000000
     5  C    2.251252   3.317090   1.425474   2.240716   0.000000
     6  C    3.631173   4.681830   2.603726   3.049096   1.393549
     7  C    4.570913   5.651206   3.800760   4.407800   2.400147
     8  C    4.592412   5.633476   4.217628   5.061492   2.829672
     9  C    3.635533   4.590289   3.654169   4.661850   2.515403
    10  C    2.259231   3.265495   2.298021   3.348230   1.441847
    11  H    4.214481   5.187829   2.974233   3.033371   2.171260
    12  H    5.602363   6.680158   4.725387   5.193942   3.380192
    13  H    5.625861   6.646202   5.301379   6.141577   3.913404
    14  H    4.172328   4.988773   4.474989   5.530405   3.498160
    15  N    1.399815   2.161357   2.224213   3.273082   2.223620
    16  H    2.139112   2.523629   3.191305   4.205207   3.202272
                    6          7          8          9         10
     6  C    0.000000
     7  C    1.415140   0.000000
     8  C    2.480248   1.401381   0.000000
     9  C    2.895636   2.436927   1.404359   0.000000
    10  C    2.437415   2.734099   2.383425   1.406363   0.000000
    11  H    1.084423   2.178429   3.454054   3.979490   3.440234
    12  H    2.153712   1.086948   2.142945   3.408458   3.820925
    13  H    3.446335   2.151188   1.084650   2.162833   3.380708
    14  H    3.980301   3.432144   2.184953   1.084809   2.182178
    15  N    3.527707   4.048630   3.675250   2.481770   1.335700
    16  H    4.449434   4.790985   4.167507   2.813056   2.079445
                   11         12         13         14         15
    11  H    0.000000
    12  H    2.482781   0.000000
    13  H    4.325265   2.448286   0.000000
    14  H    5.064267   4.317160   2.527424   0.000000
    15  N    4.394655   5.134353   4.610984   2.832054   0.000000
    16  H    5.365166   5.873313   4.966835   2.768656   1.009941
                   16
    16  H    0.000000
 Stoichiometry    C8H7N
 Framework group  C1[X(C8H7N)]
 Deg. of freedom    42
 Full point group                 C1      NOp   1
 Largest Abelian subgroup         C1      NOp   1
 Largest concise Abelian subgroup C1      NOp   1
                         Standard orientation:                         
 ---------------------------------------------------------------------
 Center     Atomic      Atomic             Coordinates (Angstroms)
 Number     Number       Type             X           Y           Z
 ---------------------------------------------------------------------
      1          6           0        2.388946   -0.002036    0.000000
      2          1           0        3.457323   -0.162187   -0.000000
      3          6           0        1.649997    1.133217    0.000000
      4          1           0        2.040565    2.142545   -0.000000
      5          6           0        0.272686    0.765805   -0.000000
      6          6           0       -0.932429    1.465574    0.000000
      7          6           0       -2.126726    0.706445   -0.000000
      8          6           0       -2.150925   -0.694727    0.000000
      9          6           0       -0.954418   -1.429979    0.000000
     10          6           0        0.232422   -0.675480   -0.000000
     11          1           0       -0.965384    2.549496    0.000000
     12          1           0       -3.074203    1.239121   -0.000000
     13          1           0       -3.105929   -1.208959   -0.000000
     14          1           0       -0.941934   -2.514716   -0.000000
     15          7           0        1.503420   -1.086161   -0.000000
     16          1           0        1.788304   -2.055089    0.000000
 ---------------------------------------------------------------------
 Rotational constants (GHZ):           3.8463914           1.6513255           1.1553240

 **********************************************************************

            Population analysis using the SCF Density.

 **********************************************************************

 Orbital symmetries:
       Occupied  (A) (A) (A) (A) (A) (A) (A) (A) (A) (A) (A) (A)
                 (A) (A) (A) (A) (A) (A) (A) (A) (A) (A) (A) (A)
                 (A) (A) (A) (A) (A) (A) (A)
       Virtual   (A) (A) (A) (A) (A) (A) (A) (A) (A) (A) (A) (A)
                 (A) (A) (A) (A) (A) (A) (A) (A) (A) (A) (A) (A)
                 (A) (A) (A) (A) (A) (A) (A) (A) (A) (A) (A) (A)
                 (A) (A) (A) (A) (A) (A) (A) (A) (A) (A) (A) (A)
                 (A) (A) (A) (A) (A) (A) (A) (A) (A) (A) (A) (A)
                 (A) (A) (A) (A) (A) (A) (A) (A) (A) (A) (A) (A)
                 (A) (A) (A) (A) (A) (A) (A) (A) (A) (A) (A) (A)
                 (A) (A) (A) (A) (A) (A) (A) (A) (A) (A) (A) (A)
                 (A) (A) (A) (A) (A) (A) (A) (A) (A) (A) (A) (A)
                 (A) (A) (A) (A) (A) (A) (A) (A) (A) (A) (A) (A)
                 (A) (A) (A) (A) (A) (A) (A) (A) (A) (A) (A) (A)
                 (A) (A) (A) (A) (A) (A) (A) (A) (A) (A) (A) (A)
                 (A) (A) (A) (A) (A) (A) (A) (A) (A) (A)
 The electronic state is 1-A.
 Alpha  occ. eigenvalues --  -14.28474 -10.17322 -10.17112 -10.14134 -10.13872
 Alpha  occ. eigenvalues --  -10.13775 -10.13517 -10.12907 -10.12578  -1.17024
 Alpha  occ. eigenvalues --   -1.01785  -0.96542  -0.90227  -0.89243  -0.79013
 Alpha  occ. eigenvalues --   -0.75135  -0.73978  -0.69158  -0.63441  -0.61469
 Alpha  occ. eigenvalues --   -0.58288  -0.57444  -0.56960  -0.55071  -0.52960
 Alpha  occ. eigenvalues --   -0.48130  -0.47407  -0.46547  -0.41287  -0.32672
 Alpha  occ. eigenvalues --   -0.31546
 Alpha virt. eigenvalues --    0.05289   0.05528   0.07251   0.07690   0.08896
 Alpha virt. eigenvalues --    0.09340   0.09949   0.11471   0.11644   0.11791
 Alpha virt. eigenvalues --    0.12333   0.12712   0.14656   0.15572   0.15654
 Alpha virt. eigenvalues --    0.15880   0.17733   0.18822   0.20306   0.20366
 Alpha virt. eigenvalues --    0.21429   0.21928   0.22656   0.23265   0.23744
 Alpha virt. eigenvalues --    0.25271   0.25392   0.25548   0.26639   0.27156
 Alpha virt. eigenvalues --    0.27399   0.28570   0.29103   0.29846   0.30431
 Alpha virt. eigenvalues --    0.31078   0.31480   0.32183   0.32903   0.33599
 Alpha virt. eigenvalues --    0.34271   0.35048   0.37519   0.37945   0.39889
 Alpha virt. eigenvalues --    0.40592   0.41233   0.42328   0.44381   0.47069
 Alpha virt. eigenvalues --    0.47512   0.50587   0.54720   0.57635   0.62954
 Alpha virt. eigenvalues --    0.69426   0.73516   0.78442   0.78806   0.81559
 Alpha virt. eigenvalues --    0.82849   0.83682   0.85471   0.85792   0.86006
 Alpha virt. eigenvalues --    0.87034   0.88020   0.89494   0.91293   0.92039
 Alpha virt. eigenvalues --    0.93806   0.97315   1.01495   1.02354   1.03616
 Alpha virt. eigenvalues --    1.06227   1.07067   1.07965   1.08248   1.11061
 Alpha virt. eigenvalues --    1.12373   1.15082   1.17298   1.18984   1.21338
 Alpha virt. eigenvalues --    1.23497   1.24522   1.29325   1.30876   1.33492
 Alpha virt. eigenvalues --    1.35369   1.37136   1.37177   1.44705   1.46160
 Alpha virt. eigenvalues --    1.47901   1.50270   1.53678   1.54521   1.57334
 Alpha virt. eigenvalues --    1.60786   1.60918   1.63826   1.64171   1.65947
 Alpha virt. eigenvalues --    1.73112   1.77719   1.93753   1.97870   2.02863
 Alpha virt. eigenvalues --    2.03891   2.05551   2.08361   2.13625   2.14952
 Alpha virt. eigenvalues --    2.15412   2.20250   2.21039   2.27840   2.29676
 Alpha virt. eigenvalues --    2.29968   2.35169   2.38245   2.38772   2.42019
 Alpha virt. eigenvalues --    2.42082   2.45420   2.52571   2.56343   2.58978
 Alpha virt. eigenvalues --    2.69638   2.71489   2.76427   2.79306   2.79745
 Alpha virt. eigenvalues --    2.83212   2.86897   2.94804   2.98450   2.99289
 Alpha virt. eigenvalues --    3.10998   3.12149   3.26012   3.38729   3.56089
 Alpha virt. eigenvalues --    4.27240   4.38450   4.41918   4.45867   4.49568
 Alpha virt. eigenvalues --    4.52853   4.61228   4.65084   4.90994
          Condensed to atoms (all electrons):
               1          2          3          4          5          6
     1  C    5.922856   0.297121  -1.303723  -0.016260   1.518959   0.808392
     2  H    0.297121   0.448674   0.071470  -0.000339  -0.104641  -0.023039
     3  C   -1.303723   0.071470  10.846536   0.284752  -3.750974  -3.049396
     4  H   -0.016260  -0.000339   0.284752   0.455467   0.004090  -0.021554
     5  C    1.518959  -0.104641  -3.750974   0.004090  12.792826  -0.059384
     6  C    0.808392  -0.023039  -3.049396  -0.021554  -0.059384  11.094825
     7  C   -0.065522   0.001711   0.067658   0.001417   0.010273   0.043191
     8  C    0.042833  -0.000506  -0.223353   0.000530  -0.690397   0.801007
     9  C   -0.980468   0.037183   2.420736   0.004866  -3.135976  -2.594509
    10  C   -0.635771   0.099203   1.371851   0.046448  -2.909545  -0.644669
    11  H    0.003553  -0.000001  -0.027519   0.001084   0.108848   0.190406
    12  H    0.000351  -0.000000   0.006377  -0.000001   0.021586  -0.005084
    13  H    0.000993  -0.000000   0.000764   0.000000   0.018435  -0.012860
    14  H    0.005524   0.000002  -0.001479   0.000001  -0.003728  -0.012063
    15  N    0.620160  -0.059669  -0.711880   0.005033   0.698898   0.167213
    16  H   -0.000134  -0.002213  -0.026351  -0.000078   0.196980   0.031930
               7          8          9         10         11         12
     1  C   -0.065522   0.042833  -0.980468  -0.635771   0.003553   0.000351
     2  H    0.001711  -0.000506   0.037183   0.099203  -0.000001  -0.000000
     3  C    0.067658  -0.223353   2.420736   1.371851  -0.027519   0.006377
     4  H    0.001417   0.000530   0.004866   0.046448   0.001084  -0.000001
     5  C    0.010273  -0.690397  -3.135976  -2.909545   0.108848   0.021586
     6  C    0.043191   0.801007  -2.594509  -0.644669   0.190406  -0.005084
     7  C    5.650003   0.249079   0.385502  -0.587536   0.035528   0.261968
     8  C    0.249079   5.671407   0.142991   0.139404  -0.002103   0.033956
     9  C    0.385502   0.142991  11.238933  -0.906629  -0.021022   0.005790
    10  C   -0.587536   0.139404  -0.906629  11.236860   0.016769  -0.010859
    11  H    0.035528  -0.002103  -0.021022   0.016769   0.469252  -0.002723
    12  H    0.261968   0.033956   0.005790  -0.010859  -0.002723   0.480108
    13  H    0.036357   0.249780   0.022297  -0.000744  -0.000101  -0.003429
    14  H    0.001374   0.059821   0.192055   0.067943   0.000012  -0.000115
    15  N   -0.023539   0.003184  -0.498700  -0.212255  -0.000580   0.000218
    16  H   -0.004384  -0.006582  -0.170599  -0.064653   0.000003  -0.000000
              13         14         15         16
     1  C    0.000993   0.005524   0.620160  -0.000134
     2  H   -0.000000   0.000002  -0.059669  -0.002213
     3  C    0.000764  -0.001479  -0.711880  -0.026351
     4  H    0.000000   0.000001   0.005033  -0.000078
     5  C    0.018435  -0.003728   0.698898   0.196980
     6  C   -0.012860  -0.012063   0.167213   0.031930
     7  C    0.036357   0.001374  -0.023539  -0.004384
     8  C    0.249780   0.059821   0.003184  -0.006582
     9  C    0.022297   0.192055  -0.498700  -0.170599
    10  C   -0.000744   0.067943  -0.212255  -0.064653
    11  H   -0.000101   0.000012  -0.000580   0.000003
    12  H   -0.003429  -0.000115   0.000218  -0.000000
    13  H    0.470876  -0.002283  -0.000493  -0.000001
    14  H   -0.002283   0.475124  -0.005926   0.001804
    15  N   -0.000493  -0.005926   7.213169   0.288497
    16  H   -0.000001   0.001804   0.288497   0.317445
 Mulliken charges:
               1
     1  C   -0.218863
     2  H    0.235042
     3  C    0.024530
     4  H    0.234544
     5  C    1.283750
     6  C   -0.714406
     7  C   -0.063080
     8  C   -0.471050
     9  C   -0.142451
    10  C   -1.005816
    11  H    0.228595
    12  H    0.211856
    13  H    0.220410
    14  H    0.221934
    15  N   -0.483331
    16  H    0.438337
 Sum of Mulliken charges =  -0.00000
 Mulliken charges with hydrogens summed into heavy atoms:
               1
     1  C    0.016178
     3  C    0.259074
     5  C    1.283750
     6  C   -0.485811
     7  C    0.148776
     8  C   -0.250640
     9  C    0.079483
    10  C   -1.005816
    15  N   -0.044994
 Electronic spatial extent (au):  <R**2>=           1004.5941
 Charge=             -0.0000 electrons
 Dipole moment (field-independent basis, Debye):
    X=              1.5901    Y=             -1.5587    Z=             -0.0000  Tot=              2.2267
 Quadrupole moment (field-independent basis, Debye-Ang):
   XX=            -44.2500   YY=            -43.0832   ZZ=            -58.7211
   XY=             -2.8928   XZ=              0.0000   YZ=             -0.0000
 Traceless Quadrupole moment (field-independent basis, Debye-Ang):
   XX=              4.4348   YY=              5.6016   ZZ=            -10.0363
   XY=             -2.8928   XZ=              0.0000   YZ=             -0.0000
 Octapole moment (field-independent basis, Debye-Ang**2):
  XXX=             15.1264  YYY=            -10.0795  ZZZ=             -0.0000  XYY=              7.5802
  XXY=             -8.4524  XXZ=             -0.0000  XZZ=              2.3621  YZZ=             -1.9192
  YYZ=              0.0000  XYZ=             -0.0000
 Hexadecapole moment (field-independent basis, Debye-Ang**3):
 XXXX=           -787.9255 YYYY=           -360.0032 ZZZZ=            -70.0971 XXXY=            -18.2786
 XXXZ=             -0.0000 YYYX=            -18.5335 YYYZ=              0.0000 ZZZX=             -0.0000
 ZZZY=              0.0000 XXYY=           -192.8968 XXZZ=           -186.6893 YYZZ=            -93.2599
 XXYZ=             -0.0000 YYXZ=              0.0000 ZZXY=             -3.3764
 N-N= 4.005918231004D+02 E-N=-1.642732631225D+03  KE= 3.591007092690D+02
 1\1\GINC-COMET-04-45\FOpt\RLC-PBEPBE TD-FC\6-31+G(d)\C8H7N1\GFOLEY1\13
 -Jun-2018\0\\# opt td=(root=2) LC-PBEPBE/6-31+g(d) geom=connectivity\\
 Title Card Required\\0,1\C,-1.334637833,2.0802261751,1.4510164167\H,-2
 .2814449406,2.0121399509,1.9667668685\C,-0.058889284,1.9992999933,1.89
 90813859\H,0.2421658791,1.8409693291,2.9264973353\C,0.8139056338,2.158
 7838908,0.7833885724\C,2.1965025759,2.1707154148,0.6094257971\C,2.6863
 366293,2.3640566408,-0.704082328\C,1.8564092567,2.5411409274,-1.819309
 0421\C,0.4591545651,2.5343533566,-1.6783894411\C,-0.027554261,2.342205
 1905,-0.3729962354\H,2.8796196525,2.0379874436,1.4411154669\H,3.762751
 3886,2.3756228845,-0.8545939843\H,2.3043361612,2.6841480257,-2.7967427
 548\H,-0.2081747643,2.6688710185,-2.5230121667\N,-1.2873516196,2.28871
 70689,0.0676229167\H,-2.1011525398,2.3863020287,-0.5224503874\\Version
 =ES64L-G16RevB.01\State=1-A\HF=-362.5498044\RMSD=3.560e-09\RMSF=1.176e
 -04\Dipole=-0.866934,0.0011993,0.0516148\PG=C01 [X(C8H7N1)]\\@


 I WOULD TAKE COUNSEL OF MYSELF.
 I WOULD STOP AND LOOK WITHIN
 AND LOOKING WITHIN, LOOK BACK, ALSO
 THAT I MAY LOOK AHEAD WITH CLEARER UNDERSTANDING
 OF THE WAY I HAVE BEEN MOVING, AND IN WHAT DIRECTION.
 I NEED TO KNOW IF I AM GOING FORWARD OR RETREATING,
 WHETHER I HAVE BEEN WASTING, OR ENJOYING
 THE PRECIOUS MOMENTS OF LIFE.  THERE HAVE BEEN FRICTIONS,
 ANNOYANCES AND SOMETIMES WRATH,
 BUT WERE THEY BECAUSE I WAS RIGHT AND OTHERS WRONG.....
 HAVE I HAD MY THOUGHTS TOO SHARPLY FOCUSED
 ON THAT WHICH PLEASED ME, SERVED MY SELF-ESTEEM,
 UNDERGIRDED MY SECURITY,
 OF WHICH I DID NOT INQUIRE WHETHER IT SERVED OR HAMPERED OTHERS.....
 HAVE I BEEN TRYING TO STOP THE CLOCK
 TO HOLD THE WORLD
 IN PERPETUATION OF WHAT WAS AN IS ALREADY SLIPPING AWAY.....
 HAVE I BEEN CRITICAL OF OTHERS FOR WHAT REALLY NEEDED CHANGING IN ME...
 LET ME INDEED TAKE COUNSEL OF MYSELF
 AND SET MY DIRECTIONS STRAIGHT.

                          R.T. WESTON AS ADAPTED BY D. OSBORN 1967
 Job cpu time:       0 days  1 hours 56 minutes 19.0 seconds.
 Elapsed time:       0 days  1 hours 56 minutes 17.9 seconds.
 File lengths (MBytes):  RWF=    209 Int=      0 D2E=      0 Chk=      8 Scr=      1
 Normal termination of Gaussian 16 at Wed Jun 13 08:42:22 2018.
