
Running Job 1 of 1 indole-tddft-M06-1.in
qchem indole-tddft-M06-1.in_53932.0 /scratch/scaparas/job_3318802/qchem53932/ 0
/cm/shared/apps/spack/cpu/opt/spack/linux-centos8-zen2/gcc-10.2.0/qchem-5.3-5qddma6gy34jvefiv7mbcb7qm253n45r/exe/qcprog.exe_s indole-tddft-M06-1.in_53932.0 /scratch/scaparas/job_3318802/qchem53932/
                  Welcome to Q-Chem
     A Quantum Leap Into The Future Of Chemistry


 Q-Chem 5.3, Q-Chem, Inc., Pleasanton, CA (2020)

 License issued to: University of California, San Diego (site)

 Yihan Shao,  Zhengting Gan,  E. Epifanovsky,  A. T. B. Gilbert,  M. Wormit,  
 J. Kussmann,  A. W. Lange,  A. Behn,  Jia Deng,  Xintian Feng,  D. Ghosh,  
 M. Goldey,  P. R. Horn,  L. D. Jacobson,  I. Kaliman,  T. Kus,  A. Landau,  
 Jie Liu,  E. I. Proynov,  R. M. Richard,  R. P. Steele,  E. J. Sundstrom,  
 H. L. Woodcock III,  P. M. Zimmerman,  D. Zuev,  B. Alam,  B. Albrecht,  
 A. Aldossary,  E. Alguire,  S. A. Baeppler,  D. Barton,  Z. Benda,  
 Y. A. Bernard,  E. J. Berquist,  K. B. Bravaya,  H. Burton,  K. Carter-Fenk,  
 D. Casanova,  Chun-Min Chang,  Yunqing Chen,  A. Chien,  K. D. Closser,  
 M. P. Coons,  S. Coriani,  S. Dasgupta,  A. L. Dempwolff,  M. Diedenhofen,  
 Hainam Do,  R. G. Edgar,  Po-Tung Fang,  S. Faraji,  S. Fatehi,  
 Qingguo Feng,  J. Fosso-Tande,  J. Gayvert,  Qinghui Ge,  A. Ghysels,  
 G. Gidofalvi,  J. Gomes,  J. Gonthier,  S. Gulania,  A. Gunina,  D. Hait,  
 M. W. D. Hanson-Heine,  S. Hammes-Schiffer,  P. H. P. Harbach,  
 A. W. Hauser,  M. F. Herbst,  J. E. Herr,  E. G. Hohenstein,  Z. C. Holden,  
 S. Houck,  Kerwin Hui,  B. C. Huynh,  M. Ivanov,  T.-C. Jagau,  Hyunjun Ji,  
 B. Kaduk,  K. Khistyaev,  Jaehoon Kim,  P. Klunzinger,  K. Koh,  
 D. Kosenkov,  L. Koulias,  T. Kowalczyk,  C. M. Krauter,  A. Kunitsa,  
 Ka Un Lao,  A. Laurent,  K. V. Lawler,  Joonho Lee,  D. Lefrancois,  
 S. Lehtola,  D. S. Levine,  Yi-Pei Li,  You-Sheng Lin,  Fenglai Liu,  
 Kuan-Yu Liu,  E. Livshits,  M. Loipersberger,  A. Luenser,  P. Manohar,  
 E. Mansoor,  S. F. Manzer,  Shan-Ping Mao,  Yuezhi Mao,  N. Mardirossian,  
 A. V. Marenich,  T. Markovich,  L. A. Martinez-Martinez,  S. A. Maurer,  
 N. J. Mayhall,  S. C. McKenzie,  J.-M. Mewes,  P. Morgante,  A. F. Morrison,  
 J. W. Mullinax,  K. Nanda,  T. S. Nguyen-Beck,  R. Olivares-Amaya,  
 K. J. Oosterbaan,  J. A. Parkhill,  S. K. Paul,  F. Pavosevic,  Zheng Pei,  
 T. M. Perrine,  F. Plasser,  P. Pokhilko,  S. Prager,  A. Prociuk,  
 E. Ramos,  B. Rana,  D. R. Rehn,  F. Rob,  E. Rossomme,  M. Scheurer,  
 M. Schneider,  N. Sergueev,  S. M. Sharada,  S. Sharma,  W. Skomorowski,  
 D. W. Small,  T. Stauch,  C. J. Stein,  T. Stein,  Yu-Chuan Su,  
 S. P. Veccham,  Zhen Tao,  A. J. W. Thom,  A. Tkatchenko,  T. Tsuchimochi,  
 N. M. Tubman,  L. Vogt,  M. L. Vidal,  O. Vydrov,  M. A. Watson,  J. Wenzel,  
 M. de Wergifosse,  T. A. Wesolowski,  A. White,  J. Witte,  A. Yamada,  
 Jun Yang,  K. Yao,  S. Yeganeh,  S. R. Yost,  Zhi-Qiang You,  A. Zech,  
 Igor Ying Zhang,  Xing Zhang,  Yan Zhao,  Ying Zhu,  B. R. Brooks,  
 G. K. L. Chan,  C. J. Cramer,  M. S. Gordon,  W. J. Hehre,  A. Klamt,  
 M. W. Schmidt,  C. D. Sherrill,  D. G. Truhlar,  A. Aspuru-Guzik,  R. Baer,  
 A. T. Bell,  N. A. Besley,  Jeng-Da Chai,  A. E. DePrince, III,  
 R. A. DiStasio Jr.,  A. Dreuw,  B. D. Dunietz,  T. R. Furlani,  
 Chao-Ping Hsu,  Yousung Jung,  Jing Kong,  D. S. Lambrecht,  WanZhen Liang,  
 C. Ochsenfeld,  V. A. Rassolov,  L. V. Slipchenko,  J. E. Subotnik,  
 T. Van Voorhis,  J. M. Herbert,  A. I. Krylov,  P. M. W. Gill,  M. Head-Gordon

 Contributors to earlier versions of Q-Chem not listed above: 
 R. D. Adamson,  B. Austin,  J. Baker,  G. J. O. Beran,  K. Brandhorst,  
 S. T. Brown,  E. F. C. Byrd,  A. K. Chakraborty,  C.-L. Cheng,  
 Siu Hung Chien,  D. M. Chipman,  D. L. Crittenden,  H. Dachsel,  
 R. J. Doerksen,  A. D. Dutoi,  L. Fusti-Molnar,  W. A. Goddard III,  
 A. Golubeva-Zadorozhnaya,  S. R. Gwaltney,  G. Hawkins,  A. Heyden,  
 S. Hirata,  G. Kedziora,  F. J. Keil,  C. Kelley,  Jihan Kim,  R. A. King,  
 R. Z. Khaliullin,  P. P. Korambath,  W. Kurlancheek,  A. M. Lee,  M. S. Lee,  
 S. V. Levchenko,  Ching Yeh Lin,  D. Liotard,  R. C. Lochan,  I. Lotan,  
 P. E. Maslen,  N. Nair,  D. P. O'Neill,  D. Neuhauser,  E. Neuscamman,  
 C. M. Oana,  R. Olson,  B. Peters,  R. Peverati,  P. A. Pieniazek,  
 Y. M. Rhee,  J. Ritchie,  M. A. Rohrdanz,  E. Rosta,  N. J. Russ,  
 H. F. Schaefer III,  N. E. Schultz,  N. Shenvi,  A. C. Simmonett,  A. Sodt,  
 D. Stuck,  K. S. Thanthiriwatte,  V. Vanovschi,  Tao Wang,  A. Warshel,  
 C. F. Williams,  Q. Wu,  X. Xu,  W. Zhang

 Please cite Q-Chem as follows:
 Y. Shao et al., Mol. Phys. 113, 184-215 (2015)
 DOI: 10.1080/00268976.2014.952696

 Q-Chem 5.3.1 for Intel X86 EM64T Linux

 Parts of Q-Chem use Armadillo 9.800.1 (Horizon Scraper).
 http://arma.sourceforge.net/

 Q-Chem begins on Wed Jun  9 08:28:47 2021  

Host: 
0

     Scratch files written to /scratch/scaparas/job_3318802/qchem53932//
 Aug2920 |scratch|qcdevops|jenkins|workspace|build_RNUM    
Processing $rem in /cm/shared/apps/spack/cpu/opt/spack/linux-centos8-zen2/gcc-10.2.0/qchem-5.3-5qddma6gy34jvefiv7mbcb7qm253n45r/config/preferences:
Processing $rem in /home/scaparas/.qchemrc:

Checking the input file for inconsistencies... 	...done.

--------------------------------------------------------------
User input:
--------------------------------------------------------------
$molecule
0 1
C         2.1665374654   -0.6554056232    0.0000000000
C         2.1169746126    0.7536230414    0.0000000000
C         0.9078293763    1.4297941068    0.0000000000
C        -0.2602955279    0.6603427264    0.0000000000
N        -1.5823227859    1.0465645945    0.0000000000
H        -1.9138448994    1.9970952131    0.0000000000
C        -2.3831006726   -0.0753467300    0.0000000000
C        -1.6031102305   -1.1965127142    0.0000000000
C        -0.2354025284   -0.7544080528    0.0000000000
C         1.0061117308   -1.4110304737    0.0000000000
H         3.1323502333   -1.1522732729    0.0000000000
H         3.0445811710    1.3187694778    0.0000000000
H         0.8711978004    2.5159935936    0.0000000000
H        -3.4599415153    0.0224367365    0.0000000000
H        -1.9589772753   -2.2174458375    0.0000000000
H         1.0526344532   -2.4968312448    0.0000000000
$end

$rem
BASIS  =  6-31+G*
GUI  =  2
JOB_TYPE  =  Optimization
METHOD  = M06 
SCF_CONVERGENCE  =  8
THRESH = 12
CIS_N_ROOTS  = 3
CIS_SINGLETS = true
CIS_TRIPLETS = false
CIS_STATE_DERIV = 1
$end
--------------------------------------------------------------
 ----------------------------------------------------------------
             Standard Nuclear Orientation (Angstroms)
    I     Atom           X                Y                Z
 ----------------------------------------------------------------
    1      C       2.1545809193    -0.6917179572    -0.0000000000
    2      C       2.1305971189     0.7179781205     0.0000000000
    3      C       0.9339220871     1.4159812583     0.0000000000
    4      C      -0.2479743579     0.6678555924     0.0000000000
    5      N      -1.5627747859     1.0780058536     0.0000000000
    6      H      -1.8769921819     2.0343963579     0.0000000000
    7      C      -2.3837811130    -0.0291882824    -0.0000000000
    8      C      -1.6242659160    -1.1643248026    -0.0000000000
    9      C      -0.2487601923    -0.7471139518    -0.0000000000
   10      C       0.9806332983    -1.4261590938    -0.0000000000
   11      H       3.1112175340    -1.2060312385    -0.0000000000
   12      H       3.0683071256     1.2661973878     0.0000000000
   13      H       0.9170087673     2.5026666484     0.0000000000
   14      H      -3.4586700515     0.0881214642    -0.0000000000
   15      H      -1.9986021312    -2.1786315579    -0.0000000000
   16      H       1.0074433715    -2.5126253373    -0.0000000000
 ----------------------------------------------------------------
 Molecular Point Group                 Cs    NOp =  2
 Largest Abelian Subgroup              Cs    NOp =  2
 Nuclear Repulsion Energy =         400.72813817 hartrees
 There are       31 alpha and       31 beta electrons
 Requested basis set is 6-31+G(d)
 There are 59 shells and 185 basis functions

 Total QAlloc Memory Limit   8000 MB
 Mega-Array Size       188 MB
 MEM_STATIC part       192 MB
 A cutoff of  1.0D-12 yielded   1657 shell pairs
 There are     17105 function pairs
 Smallest overlap matrix eigenvalue = 1.29E-06

 Scale SEOQF with 1.000000e-01/1.000000e-01/1.000000e-01

 Standard Electronic Orientation quadrupole field applied
 Nucleus-field energy     =     0.0000000117 hartrees
 Guess from superposition of atomic densities
 Warning:  Energy on first SCF cycle will be non-variational
 SAD guess density has 62.000000 electrons

 -----------------------------------------------------------------------
  General SCF calculation program by
  Eric Jon Sundstrom, Paul Horn, Yuezhi Mao, Dmitri Zuev, Alec White,
  David Stuck, Shaama M.S., Shane Yost, Joonho Lee, David Small,
  Daniel Levine, Susi Lehtola, Hugh Burton, Evgeny Epifanovsky,
  Bang C. Huynh
 -----------------------------------------------------------------------
 Exchange:     0.2700 Hartree-Fock + 1.0000 M06
 Correlation:  1.0000 M06
 Using SG-3 standard quadrature grid
 using 4 threads for integral computing
 -------------------------------------------------------
 OpenMP Integral computing Module                
 Release: version 1.0, May 2013, Q-Chem Inc. Pittsburgh 
 -------------------------------------------------------
 A restricted SCF calculation will be
 performed using DIIS
 SCF converges when DIIS error is below 1.0e-08
 ---------------------------------------
  Cycle       Energy         DIIS error
 ---------------------------------------
    1    -366.0863221918      5.60e-02  
    2    -363.4252404143      4.88e-03  
    3    -363.3872654322      5.78e-03  
    4    -363.5426228525      1.17e-03  
    5    -363.5477030709      4.72e-04  
    6    -363.5486309286      1.15e-04  
    7    -363.5486763058      5.48e-05  
    8    -363.5486891400      1.06e-05  
    9    -363.5486894721      6.06e-06  
   10    -363.5486896271      9.29e-07  
   11    -363.5486896295      5.66e-07  
   12    -363.5486896308      9.32e-08  
   13    -363.5486896308      4.98e-08  
   14    -363.5486896308      1.18e-08  
   15    -363.5486896308      6.06e-09  Convergence criterion met
 ---------------------------------------
 SCF time:   CPU 263.07s  wall 67.00s 
 SCF   energy in the final basis set =     -363.5486896308
 Total energy in the final basis set =     -363.5486896308
 
 Direct TDDFT/TDA calculation will be performed
 Exchange:     0.2700 Hartree-Fock + 1.0000 M06
 Correlation:  1.0000 M06
 Using SG-3 standard quadrature grid
 Singlet excitation energies requested
 CIS energy converged when residual is below 10e- 6
 ---------------------------------------------------
 Iter    Rts Conv    Rts Left    Ttl Dev     Max Dev
 ---------------------------------------------------
   1         0           3      0.002075    0.001758
   2         0           3      0.000710    0.000638
   3         0           3      0.000242    0.000209
   4         0           3      0.000101    0.000087
   5         1           2      0.000046    0.000038
   6         1           2      0.000023    0.000018
   7         1           2      0.000086    0.000083
   8         2           1      0.000026    0.000025
   9         2           1      0.000024    0.000024
  10         2           1      0.000026    0.000026
  11         2           1      0.000012    0.000011
  12         2           1      0.000004    0.000004
  13         2           1      0.000002    0.000001
  14         3           0      0.000001    0.000000    Roots Converged
 ---------------------------------------------------
 
 ---------------------------------------------------
         TDDFT/TDA Excitation Energies              
 ---------------------------------------------------

 Excited state   1: excitation energy (eV) =    4.2324
 Total energy for state  1:                  -363.39315077 au
    Multiplicity: Singlet
    Trans. Mom.:  0.0000 X  -0.0000 Y   0.0914 Z
    Strength   :     0.0008662679
    D(   31) --> V(    1) amplitude =  0.9956

 Excited state   2: excitation energy (eV) =    4.7101
 Total energy for state  2:                  -363.37559775 au
    Multiplicity: Singlet
    Trans. Mom.:  0.0000 X  -0.0000 Y   0.0861 Z
    Strength   :     0.0008551901
    D(   30) --> V(    1) amplitude =  0.9870

 Excited state   3: excitation energy (eV) =    4.8304
 Total energy for state  3:                  -363.37117576 au
    Multiplicity: Singlet
    Trans. Mom.:  0.0000 X  -0.0000 Y   0.0277 Z
    Strength   :     0.0000910303
    D(   31) --> V(    3) amplitude =  0.9904
 
 ---------------------------------------------------
 Calculating Relaxed Density
 ---------------------------------------------------
 Iter    Rts Conv    Rts Left    Ttl Dev     Max Dev
 ---------------------------------------------------
   1         0           3      0.003455    0.001289
   2         0           3      0.001088    0.000391
   3         0           3      0.000201    0.000079
   4         0           3      0.000064    0.000023
   5         0           3      0.000016    0.000006
   6         0           3      0.000004    0.000001
   7         3           0      0.000000    0.000000    Roots Converged
 ---------------------------------------------------
  SETman timing summary (seconds)
  CPU time              1130.57s
  System time              0.00s
  Wall time              284.21s
 
 --------------------------------------------------------------
             Orbital Energies (a.u.) and Symmetries
 --------------------------------------------------------------
 
 Alpha MOs, Restricted
 -- Occupied --                  
-14.459 -10.294 -10.293 -10.263 -10.258 -10.258 -10.258 -10.253
  1 A'    2 A'    3 A'    4 A'    5 A'    6 A'    7 A'    8 A'                 
-10.249  -0.999  -0.854  -0.797  -0.749  -0.730  -0.637  -0.606
  9 A'   10 A'   11 A'   12 A'   13 A'   14 A'   15 A'   16 A'                 
 -0.594  -0.552  -0.493  -0.482  -0.449  -0.440  -0.440  -0.423
 17 A'   18 A'   19 A'   20 A'   21 A'   22 A'    1 A"   23 A'                 
 -0.402  -0.367  -0.349  -0.347  -0.293  -0.236  -0.220
 24 A'   25 A'    2 A"   26 A'    3 A"    4 A"    5 A"                         
 -- Virtual --                   
 -0.032  -0.015  -0.013  -0.009   0.003   0.006   0.021   0.029
 27 A'    6 A"   28 A'   29 A'   30 A'   31 A'    7 A"   32 A'                 
  0.030   0.034   0.040   0.043   0.065   0.068   0.070   0.070
 33 A'    8 A"    9 A"   34 A'   10 A"   35 A'   11 A"   36 A'                 
  0.096   0.100   0.110   0.117   0.120   0.123   0.132   0.135
 37 A'   12 A"   13 A"   38 A'   39 A'   14 A"   40 A'   15 A"                 
  0.151   0.157   0.161   0.166   0.175   0.176   0.181   0.190
 41 A'   16 A"   42 A'   43 A'   44 A'   45 A'   46 A'   47 A'                 
  0.192   0.200   0.207   0.215   0.215   0.221   0.235   0.238
 17 A"   48 A'   49 A'   50 A'   18 A"   51 A'   52 A'   53 A'                 
  0.247   0.250   0.258   0.270   0.281   0.293   0.297   0.308
 54 A'   55 A'   56 A'   57 A'   58 A'   59 A'   60 A'   61 A'                 
  0.324   0.352   0.355   0.389   0.432   0.437   0.505   0.572
 62 A'   63 A'   64 A'   65 A'   66 A'   67 A'   68 A'   69 A'                 
  0.620   0.653   0.662   0.681   0.700   0.700   0.716   0.720
 70 A'   19 A"   71 A'   20 A"   21 A"   72 A'   22 A"   73 A'                 
  0.728   0.733   0.744   0.759   0.772   0.784   0.801   0.836
 74 A'   23 A"   75 A'   24 A"   25 A"   76 A'   77 A'   26 A"                 
  0.866   0.874   0.881   0.902   0.905   0.923   0.956   0.956
 78 A'   79 A'   80 A'   81 A'   82 A'   83 A'   84 A'   27 A"                 
  0.983   1.006   1.026   1.041   1.085   1.101   1.107   1.156
 85 A'   86 A'   87 A'   88 A'   89 A'   90 A'   91 A'   92 A'                 
  1.167   1.190   1.212   1.239   1.245   1.290   1.324   1.341
 93 A'   94 A'   95 A'   96 A'   28 A"   97 A'   29 A"   98 A'                 
  1.346   1.391   1.406   1.417   1.461   1.463   1.495   1.504
 30 A"   99 A'  100 A'   31 A"   32 A"   33 A"   34 A"   35 A"                 
  1.515   1.560   1.618   1.773   1.824   1.856   1.873   1.881
101 A'  102 A'  103 A'  104 A'  105 A'  106 A'  107 A'   36 A"                 
  1.893   1.935   1.944   1.993   2.049   2.073   2.113   2.148
108 A'  109 A'  110 A'   37 A"  111 A'  112 A'  113 A'  114 A'                 
  2.153   2.158   2.233   2.241   2.249   2.260   2.293   2.363
115 A'   38 A"   39 A"   40 A"   41 A"  116 A'  117 A'   42 A"                 
  2.389   2.410   2.513   2.544   2.611   2.635   2.647   2.669
 43 A"  118 A'  119 A'   44 A"  120 A'  121 A'   45 A"  122 A'                 
  2.714   2.785   2.809   2.836   2.924   2.951   3.059   3.223
123 A'  124 A'  125 A'  126 A'  127 A'  128 A'  129 A'  130 A'                 
  3.401   4.135   4.219   4.250   4.286   4.323   4.363   4.443
131 A'  132 A'  133 A'  134 A'  135 A'  136 A'  137 A'  138 A'                 
  4.484   4.749
139 A'  140 A'                                                                 
 
 Beta MOs, Restricted
 -- Occupied --                  
-14.459 -10.294 -10.293 -10.263 -10.258 -10.258 -10.258 -10.253
  1 A'    2 A'    3 A'    4 A'    5 A'    6 A'    7 A'    8 A'                 
-10.249  -0.999  -0.854  -0.797  -0.749  -0.730  -0.637  -0.606
  9 A'   10 A'   11 A'   12 A'   13 A'   14 A'   15 A'   16 A'                 
 -0.594  -0.552  -0.493  -0.482  -0.449  -0.440  -0.440  -0.423
 17 A'   18 A'   19 A'   20 A'   21 A'   22 A'    1 A"   23 A'                 
 -0.402  -0.367  -0.349  -0.347  -0.293  -0.236  -0.220
 24 A'   25 A'    2 A"   26 A'    3 A"    4 A"    5 A"                         
 -- Virtual --                   
 -0.032  -0.015  -0.013  -0.009   0.003   0.006   0.021   0.029
 27 A'    6 A"   28 A'   29 A'   30 A'   31 A'    7 A"   32 A'                 
  0.030   0.034   0.040   0.043   0.065   0.068   0.070   0.070
 33 A'    8 A"    9 A"   34 A'   10 A"   35 A'   11 A"   36 A'                 
  0.096   0.100   0.110   0.117   0.120   0.123   0.132   0.135
 37 A'   12 A"   13 A"   38 A'   39 A'   14 A"   40 A'   15 A"                 
  0.151   0.157   0.161   0.166   0.175   0.176   0.181   0.190
 41 A'   16 A"   42 A'   43 A'   44 A'   45 A'   46 A'   47 A'                 
  0.192   0.200   0.207   0.215   0.215   0.221   0.235   0.238
 17 A"   48 A'   49 A'   50 A'   18 A"   51 A'   52 A'   53 A'                 
  0.247   0.250   0.258   0.270   0.281   0.293   0.297   0.308
 54 A'   55 A'   56 A'   57 A'   58 A'   59 A'   60 A'   61 A'                 
  0.324   0.352   0.355   0.389   0.432   0.437   0.505   0.572
 62 A'   63 A'   64 A'   65 A'   66 A'   67 A'   68 A'   69 A'                 
  0.620   0.653   0.662   0.681   0.700   0.700   0.716   0.720
 70 A'   19 A"   71 A'   20 A"   21 A"   72 A'   22 A"   73 A'                 
  0.728   0.733   0.744   0.759   0.772   0.784   0.801   0.836
 74 A'   23 A"   75 A'   24 A"   25 A"   76 A'   77 A'   26 A"                 
  0.866   0.874   0.881   0.902   0.905   0.923   0.956   0.956
 78 A'   79 A'   80 A'   81 A'   82 A'   83 A'   84 A'   27 A"                 
  0.983   1.006   1.026   1.041   1.085   1.101   1.107   1.156
 85 A'   86 A'   87 A'   88 A'   89 A'   90 A'   91 A'   92 A'                 
  1.167   1.190   1.212   1.239   1.245   1.290   1.324   1.341
 93 A'   94 A'   95 A'   96 A'   28 A"   97 A'   29 A"   98 A'                 
  1.346   1.391   1.406   1.417   1.461   1.463   1.495   1.504
 30 A"   99 A'  100 A'   31 A"   32 A"   33 A"   34 A"   35 A"                 
  1.515   1.560   1.618   1.773   1.824   1.856   1.873   1.881
101 A'  102 A'  103 A'  104 A'  105 A'  106 A'  107 A'   36 A"                 
  1.893   1.935   1.944   1.993   2.049   2.073   2.113   2.148
108 A'  109 A'  110 A'   37 A"  111 A'  112 A'  113 A'  114 A'                 
  2.153   2.158   2.233   2.241   2.249   2.260   2.293   2.363
115 A'   38 A"   39 A"   40 A"   41 A"  116 A'  117 A'   42 A"                 
  2.389   2.410   2.513   2.544   2.611   2.635   2.647   2.669
 43 A"  118 A'  119 A'   44 A"  120 A'  121 A'   45 A"  122 A'                 
  2.714   2.785   2.809   2.836   2.924   2.951   3.059   3.223
123 A'  124 A'  125 A'  126 A'  127 A'  128 A'  129 A'  130 A'                 
  3.401   4.135   4.219   4.250   4.286   4.323   4.363   4.443
131 A'  132 A'  133 A'  134 A'  135 A'  136 A'  137 A'  138 A'                 
  4.484   4.749
139 A'  140 A'                                                                 
 --------------------------------------------------------------
 
          Ground-State Mulliken Net Atomic Charges

     Atom                 Charge (a.u.)
  ----------------------------------------
      1 C                    -0.017270
      2 C                    -0.446646
      3 C                     0.176823
      4 C                    -1.268686
      5 N                    -0.456639
      6 H                     0.415629
      7 C                    -0.206532
      8 C                     0.160471
      9 C                     0.966987
     10 C                    -0.465630
     11 H                     0.183499
     12 H                     0.185194
     13 H                     0.182803
     14 H                     0.199892
     15 H                     0.201085
     16 H                     0.189022
  ----------------------------------------
  Sum of atomic charges =     0.000000

 -----------------------------------------------------------------
                    Cartesian Multipole Moments
 -----------------------------------------------------------------
    Charge (ESU x 10^10)
                -0.0000
    Dipole Moment (Debye)
         X      -1.4616      Y       1.5324      Z      -0.0000
       Tot       2.1177
    Quadrupole Moments (Debye-Ang)
        XX     -45.0971     XY      -3.1393     YY     -44.2189
        XZ       0.0000     YZ       0.0000     ZZ     -58.4359
    Octopole Moments (Debye-Ang^2)
       XXX     -14.4396    XXY       8.2094    XYY      -8.0747
       YYY      10.4491    XXZ      -0.0000    XYZ      -0.0000
       YYZ       0.0000    XZZ      -2.0571    YZZ       1.9600
       ZZZ      -0.0000
    Hexadecapole Moments (Debye-Ang^3)
      XXXX    -809.2505   XXXY     -21.5894   XXYY    -194.5016
      XYYY     -19.6130   YYYY    -366.3839   XXXZ       0.0000
      XXYZ       0.0000   XYYZ       0.0000   YYYZ      -0.0000
      XXZZ    -187.2921   XYZZ      -3.8547   YYZZ     -92.6661
      XZZZ       0.0000   YZZZ      -0.0000   ZZZZ     -71.6027
 -----------------------------------------------------------------
 Calculating analytic gradient of the CIS energy
 CIS relaxed dipole moment
            1
    1   2.7743615
    2  -2.9451400
    3  -0.0000000
	Magnitude:	 4.046 au	10.284 Debye
 CIS 1 State Energy is -363.3931507733
 Gradient of the state energy (including CIS Excitation Energy)
            1           2           3           4           5           6
    1  -0.0085985  -0.0134884   0.0316983  -0.0099117   0.0216737   0.0114692
    2  -0.0139247   0.0263681  -0.0032722  -0.0049242   0.0506515  -0.0180843
    3   0.0000000   0.0000000  -0.0000000  -0.0000000  -0.0000000  -0.0000000
            7           8           9          10          11          12
    1  -0.0082017  -0.0438656   0.0106891   0.0045112  -0.0006950  -0.0006578
    2  -0.0674373   0.0214813   0.0015192   0.0051854   0.0007850  -0.0005438
    3  -0.0000000   0.0000000   0.0000000  -0.0000000   0.0000000  -0.0000000
           13          14          15          16
    1   0.0010993   0.0036038   0.0012556  -0.0005815
    2   0.0006697  -0.0031921   0.0023798   0.0023387
    3  -0.0000000  -0.0000000   0.0000000  -0.0000000
 Gradient time:  CPU 75.72 s  wall 19.10 s
 Geometry Optimization Parameters
   NAtoms,    NIC,     NZ,  NCons,   NDum,   NFix, NCnnct, MaxDiis
       16     116       0       0       0       0       0       0


** GEOMETRY OPTIMIZATION IN DELOCALIZED INTERNAL COORDINATES **
   Searching for a Minimum

   Optimization Cycle:   1

                       Coordinates (Angstroms)
     ATOM                X               Y               Z
      1  C         2.1545809193   -0.6917179572    0.0000000000
      2  C         2.1305971189    0.7179781205    0.0000000000
      3  C         0.9339220871    1.4159812583    0.0000000000
      4  C        -0.2479743579    0.6678555924    0.0000000000
      5  N        -1.5627747859    1.0780058536    0.0000000000
      6  H        -1.8769921819    2.0343963579    0.0000000000
      7  C        -2.3837811130   -0.0291882824    0.0000000000
      8  C        -1.6242659160   -1.1643248026    0.0000000000
      9  C        -0.2487601923   -0.7471139518    0.0000000000
     10  C         0.9806332983   -1.4261590938    0.0000000000
     11  H         3.1112175340   -1.2060312385    0.0000000000
     12  H         3.0683071256    1.2661973878    0.0000000000
     13  H         0.9170087673    2.5026666484    0.0000000000
     14  H        -3.4586700515    0.0881214642    0.0000000000
     15  H        -1.9986021312   -2.1786315579    0.0000000000
     16  H         1.0074433715   -2.5126253373    0.0000000000
   Point Group: cs    Number of degrees of freedom:    29


   Energy is   -363.393150773


 Attempting to generate delocalized internal coordinates
 Initial Hessian constructed with Jon Baker's OPTIMIZE code

 29 Hessian modes will be used to form the next step
  Hessian Eigenvalues:
     0.160000    0.160000    0.160000    0.160000    0.160000    0.160000
     0.160000    0.220000    0.221874    0.226615    0.240154    0.246535
     0.351831    0.351854    0.352547    0.352641    0.358411    0.358524
     0.370243    0.381736    0.421745    0.429383    0.450758    0.465320
     0.465358    0.471677    0.475377    0.478120    0.507735

 Minimum search - taking simple RFO step
 Searching for Lamda that Minimizes Along All modes
 Value Taken    Lamda =  -0.01299244
 Step Taken.  Stepsize is  0.171524

                             Maximum     Tolerance    Cnvgd?
         Gradient           0.038883      0.000300      NO
         Displacement       0.103145      0.001200      NO
         Energy change     *********      0.000001      NO


 New Cartesian Coordinates Obtained by Inverse Iteration

 Displacement from previous Coordinates is:  0.248242
 ----------------------------------------------------------------
             Standard Nuclear Orientation (Angstroms)
    I     Atom           X                Y                Z
 ----------------------------------------------------------------
    1      C       2.1713773421    -0.7028023475     0.0000000000
    2      C       2.1220517931     0.6927619137     0.0000000000
    3      C       0.9034958280     1.4028545596     0.0000000000
    4      C      -0.2610469779     0.6653096135     0.0000000000
    5      N      -1.5819325758     1.0786255817     0.0000000000
    6      H      -1.9322651711     2.0468504634     0.0000000000
    7      C      -2.3701906027     0.0096669325     0.0000000000
    8      C      -1.5849561268    -1.1557030997     0.0000000000
    9      C      -0.2335867164    -0.7489574851     0.0000000000
   10      C       0.9934801513    -1.4405920656     0.0000000000
   11      H       3.1329720817    -1.2108427259     0.0000000000
   12      H       3.0551986968     1.2510891004     0.0000000000
   13      H       0.8791200116     2.4884489476     0.0000000000
   14      H      -3.4489522368     0.1421801165     0.0000000000
   15      H      -1.9621989694    -2.1729819987     0.0000000000
   16      H       1.0193229649    -2.5304970449     0.0000000000
 ----------------------------------------------------------------
 Molecular Point Group                 Cs    NOp =  2
 Largest Abelian Subgroup              Cs    NOp =  2
 Nuclear Repulsion Energy =         401.43001239 hartrees
 There are       31 alpha and       31 beta electrons
 Applying Cartesian multipole field
    Component          Value
    ---------          -----
     (2,0,0)        1.00000E-11
     (0,2,0)        2.00000E-11
     (0,0,2)       -3.00000E-11
 Nucleus-field energy     =     0.0000000117 hartrees
 Requested basis set is 6-31+G(d)
 There are 59 shells and 185 basis functions
 A cutoff of  1.0D-12 yielded   1658 shell pairs
 There are     17111 function pairs
 Smallest overlap matrix eigenvalue = 1.19E-06
 Guess MOs from SCF MO coefficient file

 -----------------------------------------------------------------------
  General SCF calculation program by
  Eric Jon Sundstrom, Paul Horn, Yuezhi Mao, Dmitri Zuev, Alec White,
  David Stuck, Shaama M.S., Shane Yost, Joonho Lee, David Small,
  Daniel Levine, Susi Lehtola, Hugh Burton, Evgeny Epifanovsky,
  Bang C. Huynh
 -----------------------------------------------------------------------
 Exchange:     0.2700 Hartree-Fock + 1.0000 M06
 Correlation:  1.0000 M06
 Using SG-3 standard quadrature grid
 using 4 threads for integral computing
 -------------------------------------------------------
 OpenMP Integral computing Module                
 Release: version 1.0, May 2013, Q-Chem Inc. Pittsburgh 
 -------------------------------------------------------
 A restricted SCF calculation will be
 performed using DIIS
 SCF converges when DIIS error is below 1.0e-08
 ---------------------------------------
  Cycle       Energy         DIIS error
 ---------------------------------------
    1    -363.5390787906      8.04e-04  
    2    -363.5429942036      1.83e-04  
    3    -363.5430698030      1.40e-04  
    4    -363.5431378707      5.42e-05  
    5    -363.5431492685      1.78e-05  
    6    -363.5431507498      7.73e-06  
    7    -363.5431510314      2.44e-06  
    8    -363.5431510589      1.01e-06  
    9    -363.5431510632      4.20e-07  
   10    -363.5431510641      8.86e-08  
   11    -363.5431510641      4.47e-08  
   12    -363.5431510641      9.84e-09  Convergence criterion met
 ---------------------------------------
 SCF time:   CPU 223.07s  wall 56.00s 
 SCF   energy in the final basis set =     -363.5431510641
 Total energy in the final basis set =     -363.5431510641
 
 Direct TDDFT/TDA calculation will be performed
 Exchange:     0.2700 Hartree-Fock + 1.0000 M06
 Correlation:  1.0000 M06
 Using SG-3 standard quadrature grid
 Singlet excitation energies requested
 CIS energy converged when residual is below 10e- 6
 ---------------------------------------------------
 Iter    Rts Conv    Rts Left    Ttl Dev     Max Dev
 ---------------------------------------------------
   1         0           3      0.002098    0.001786
   2         0           3      0.000540    0.000476
   3         0           3      0.000150    0.000130
   4         0           3      0.000091    0.000081
   5         1           2      0.000041    0.000037
   6         1           2      0.000027    0.000023
   7         1           2      0.000022    0.000019
   8         1           2      0.000015    0.000013
   9         2           1      0.000006    0.000005
  10         2           1      0.000003    0.000002
  11         3           0      0.000001    0.000001    Roots Converged
 ---------------------------------------------------
 
 ---------------------------------------------------
         TDDFT/TDA Excitation Energies              
 ---------------------------------------------------

 Excited state   1: excitation energy (eV) =    3.8765
 Total energy for state  1:                  -363.40069396 au
    Multiplicity: Singlet
    Trans. Mom.:  0.0000 X  -0.0000 Y   0.0918 Z
    Strength   :     0.0008008874
    D(   31) --> V(    1) amplitude =  0.9960

 Excited state   2: excitation energy (eV) =    4.5748
 Total energy for state  2:                  -363.37503135 au
    Multiplicity: Singlet
    Trans. Mom.:  0.0000 X   0.0000 Y   0.0277 Z
    Strength   :     0.0000862446
    D(   31) --> V(    3) amplitude =  0.9931

 Excited state   3: excitation energy (eV) =    4.6091
 Total energy for state  3:                  -363.37376900 au
    Multiplicity: Singlet
    Trans. Mom.:  0.9352 X  -0.6450 Y  -0.0000 Z
    Strength   :     0.1457380222
    D(   30) --> V(    7) amplitude =  0.2289
    D(   31) --> V(    2) amplitude =  0.9186
 
 ---------------------------------------------------
 Calculating Relaxed Density
 ---------------------------------------------------
 Iter    Rts Conv    Rts Left    Ttl Dev     Max Dev
 ---------------------------------------------------
   1         0           3      0.002873    0.001293
   2         0           3      0.001027    0.000419
   3         0           3      0.000201    0.000082
   4         0           3      0.000060    0.000026
   5         0           3      0.000016    0.000006
   6         0           3      0.000004    0.000001
   7         3           0      0.000000    0.000000    Roots Converged
 ---------------------------------------------------
  SETman timing summary (seconds)
  CPU time              1097.09s
  System time              0.00s
  Wall time              276.03s
 
 --------------------------------------------------------------
             Orbital Energies (a.u.) and Symmetries
 --------------------------------------------------------------
 
 Alpha MOs, Restricted
 -- Occupied --                  
-14.466 -10.295 -10.291 -10.263 -10.258 -10.257 -10.257 -10.254
  1 A'    2 A'    3 A'    4 A'    5 A'    6 A'    7 A'    8 A'                 
-10.246  -1.011  -0.856  -0.794  -0.756  -0.722  -0.640  -0.608
  9 A'   10 A'   11 A'   12 A'   13 A'   14 A'   15 A'   16 A'                 
 -0.593  -0.553  -0.492  -0.482  -0.452  -0.446  -0.442  -0.415
 17 A'   18 A'   19 A'   20 A'   21 A'    1 A"   22 A'   23 A'                 
 -0.401  -0.367  -0.352  -0.347  -0.290  -0.243  -0.210
 24 A'   25 A'    2 A"   26 A'    3 A"    4 A"    5 A"                         
 -- Virtual --                   
 -0.035  -0.017  -0.013  -0.008   0.003   0.007   0.022   0.029
 27 A'    6 A"   28 A'   29 A'   30 A'   31 A'    7 A"   32 A'                 
  0.030   0.035   0.040   0.042   0.065   0.068   0.070   0.070
 33 A'    8 A"    9 A"   34 A'   10 A"   35 A'   11 A"   36 A'                 
  0.095   0.101   0.110   0.116   0.119   0.124   0.131   0.136
 37 A'   12 A"   13 A"   38 A'   39 A'   14 A"   40 A'   15 A"                 
  0.150   0.157   0.159   0.166   0.176   0.176   0.183   0.191
 41 A'   16 A"   42 A'   43 A'   44 A'   45 A'   46 A'   47 A'                 
  0.193   0.201   0.209   0.213   0.215   0.220   0.233   0.238
 17 A"   48 A'   49 A'   18 A"   50 A'   51 A'   52 A'   53 A'                 
  0.247   0.253   0.256   0.272   0.278   0.293   0.300   0.310
 54 A'   55 A'   56 A'   57 A'   58 A'   59 A'   60 A'   61 A'                 
  0.327   0.349   0.356   0.391   0.428   0.440   0.511   0.574
 62 A'   63 A'   64 A'   65 A'   66 A'   67 A'   68 A'   69 A'                 
  0.620   0.654   0.663   0.679   0.701   0.708   0.714   0.720
 70 A'   19 A"   71 A'   20 A"   21 A"   72 A'   22 A"   73 A'                 
  0.729   0.736   0.752   0.759   0.773   0.783   0.802   0.836
 74 A'   23 A"   75 A'   24 A"   25 A"   76 A'   77 A'   26 A"                 
  0.859   0.871   0.882   0.904   0.909   0.925   0.954   0.959
 78 A'   79 A'   80 A'   81 A'   82 A'   83 A'   27 A"   84 A'                 
  0.983   1.002   1.025   1.026   1.081   1.101   1.107   1.163
 85 A'   86 A'   87 A'   88 A'   89 A'   90 A'   91 A'   92 A'                 
  1.166   1.189   1.213   1.234   1.244   1.302   1.319   1.339
 93 A'   94 A'   95 A'   96 A'   28 A"   97 A'   29 A"   98 A'                 
  1.350   1.393   1.409   1.417   1.461   1.466   1.495   1.505
 30 A"   99 A'  100 A'   31 A"   32 A"   33 A"   34 A"   35 A"                 
  1.521   1.563   1.622   1.755   1.822   1.861   1.875   1.887
101 A'  102 A'  103 A'  104 A'  105 A'  106 A'  107 A'  108 A'                 
  1.888   1.941   1.950   1.996   2.043   2.075   2.118   2.141
 36 A"  109 A'  110 A'   37 A"  111 A'  112 A'  113 A'  114 A'                 
  2.151   2.161   2.230   2.242   2.253   2.282   2.302   2.363
 38 A"  115 A'   39 A"   40 A"   41 A"  116 A'  117 A'   42 A"                 
  2.403   2.421   2.513   2.554   2.616   2.627   2.650   2.666
 43 A"  118 A'  119 A'   44 A"  120 A'  121 A'   45 A"  122 A'                 
  2.709   2.790   2.810   2.838   2.922   2.957   3.059   3.237
123 A'  124 A'  125 A'  126 A'  127 A'  128 A'  129 A'  130 A'                 
  3.404   4.147   4.219   4.248   4.279   4.326   4.368   4.445
131 A'  132 A'  133 A'  134 A'  135 A'  136 A'  137 A'  138 A'                 
  4.485   4.754
139 A'  140 A'                                                                 
 
 Beta MOs, Restricted
 -- Occupied --                  
-14.466 -10.295 -10.291 -10.263 -10.258 -10.257 -10.257 -10.254
  1 A'    2 A'    3 A'    4 A'    5 A'    6 A'    7 A'    8 A'                 
-10.246  -1.011  -0.856  -0.794  -0.756  -0.722  -0.640  -0.608
  9 A'   10 A'   11 A'   12 A'   13 A'   14 A'   15 A'   16 A'                 
 -0.593  -0.553  -0.492  -0.482  -0.452  -0.446  -0.442  -0.415
 17 A'   18 A'   19 A'   20 A'   21 A'    1 A"   22 A'   23 A'                 
 -0.401  -0.367  -0.352  -0.347  -0.290  -0.243  -0.210
 24 A'   25 A'    2 A"   26 A'    3 A"    4 A"    5 A"                         
 -- Virtual --                   
 -0.035  -0.017  -0.013  -0.008   0.003   0.007   0.022   0.029
 27 A'    6 A"   28 A'   29 A'   30 A'   31 A'    7 A"   32 A'                 
  0.030   0.035   0.040   0.042   0.065   0.068   0.070   0.070
 33 A'    8 A"    9 A"   34 A'   10 A"   35 A'   11 A"   36 A'                 
  0.095   0.101   0.110   0.116   0.119   0.124   0.131   0.136
 37 A'   12 A"   13 A"   38 A'   39 A'   14 A"   40 A'   15 A"                 
  0.150   0.157   0.159   0.166   0.176   0.176   0.183   0.191
 41 A'   16 A"   42 A'   43 A'   44 A'   45 A'   46 A'   47 A'                 
  0.193   0.201   0.209   0.213   0.215   0.220   0.233   0.238
 17 A"   48 A'   49 A'   18 A"   50 A'   51 A'   52 A'   53 A'                 
  0.247   0.253   0.256   0.272   0.278   0.293   0.300   0.310
 54 A'   55 A'   56 A'   57 A'   58 A'   59 A'   60 A'   61 A'                 
  0.327   0.349   0.356   0.391   0.428   0.440   0.511   0.574
 62 A'   63 A'   64 A'   65 A'   66 A'   67 A'   68 A'   69 A'                 
  0.620   0.654   0.663   0.679   0.701   0.708   0.714   0.720
 70 A'   19 A"   71 A'   20 A"   21 A"   72 A'   22 A"   73 A'                 
  0.729   0.736   0.752   0.759   0.773   0.783   0.802   0.836
 74 A'   23 A"   75 A'   24 A"   25 A"   76 A'   77 A'   26 A"                 
  0.859   0.871   0.882   0.904   0.909   0.925   0.954   0.959
 78 A'   79 A'   80 A'   81 A'   82 A'   83 A'   27 A"   84 A'                 
  0.983   1.002   1.025   1.026   1.081   1.101   1.107   1.163
 85 A'   86 A'   87 A'   88 A'   89 A'   90 A'   91 A'   92 A'                 
  1.166   1.189   1.213   1.234   1.244   1.302   1.319   1.339
 93 A'   94 A'   95 A'   96 A'   28 A"   97 A'   29 A"   98 A'                 
  1.350   1.393   1.409   1.417   1.461   1.466   1.495   1.505
 30 A"   99 A'  100 A'   31 A"   32 A"   33 A"   34 A"   35 A"                 
  1.521   1.563   1.622   1.755   1.822   1.861   1.875   1.887
101 A'  102 A'  103 A'  104 A'  105 A'  106 A'  107 A'  108 A'                 
  1.888   1.941   1.950   1.996   2.043   2.075   2.118   2.141
 36 A"  109 A'  110 A'   37 A"  111 A'  112 A'  113 A'  114 A'                 
  2.151   2.161   2.230   2.242   2.253   2.282   2.302   2.363
 38 A"  115 A'   39 A"   40 A"   41 A"  116 A'  117 A'   42 A"                 
  2.403   2.421   2.513   2.554   2.616   2.627   2.650   2.666
 43 A"  118 A'  119 A'   44 A"  120 A'  121 A'   45 A"  122 A'                 
  2.709   2.790   2.810   2.838   2.922   2.957   3.059   3.237
123 A'  124 A'  125 A'  126 A'  127 A'  128 A'  129 A'  130 A'                 
  3.404   4.147   4.219   4.248   4.279   4.326   4.368   4.445
131 A'  132 A'  133 A'  134 A'  135 A'  136 A'  137 A'  138 A'                 
  4.485   4.754
139 A'  140 A'                                                                 
 --------------------------------------------------------------
 
          Ground-State Mulliken Net Atomic Charges

     Atom                 Charge (a.u.)
  ----------------------------------------
      1 C                    -0.032408
      2 C                    -0.449980
      3 C                     0.141238
      4 C                    -1.289740
      5 N                    -0.416999
      6 H                     0.418951
      7 C                    -0.193810
      8 C                     0.060773
      9 C                     0.991716
     10 C                    -0.364149
     11 H                     0.186444
     12 H                     0.181980
     13 H                     0.181314
     14 H                     0.198368
     15 H                     0.196227
     16 H                     0.190075
  ----------------------------------------
  Sum of atomic charges =     0.000000

 -----------------------------------------------------------------
                    Cartesian Multipole Moments
 -----------------------------------------------------------------
    Charge (ESU x 10^10)
                -0.0000
    Dipole Moment (Debye)
         X      -1.5559      Y       1.7597      Z      -0.0000
       Tot       2.3489
    Quadrupole Moments (Debye-Ang)
        XX     -45.0296     XY      -4.1926     YY     -44.2637
        XZ       0.0000     YZ      -0.0000     ZZ     -58.4885
    Octopole Moments (Debye-Ang^2)
       XXX     -14.9953    XXY       9.6963    XYY      -8.6790
       YYY      11.5407    XXZ      -0.0000    XYZ       0.0000
       YYZ       0.0000    XZZ      -2.2149    YZZ       2.2961
       ZZZ      -0.0000
    Hexadecapole Moments (Debye-Ang^3)
      XXXX    -806.4467   XXXY     -23.0844   XXYY    -193.0576
      XYYY     -16.6179   YYYY    -365.9598   XXXZ       0.0000
      XXYZ      -0.0000   XYYZ       0.0000   YYYZ      -0.0000
      XXZZ    -186.9806   XYZZ      -1.9448   YYZZ     -92.8290
      XZZZ       0.0000   YZZZ      -0.0000   ZZZZ     -71.9492
 -----------------------------------------------------------------
 Calculating analytic gradient of the CIS energy
 CIS relaxed dipole moment
            1
    1   2.8137175
    2  -2.9100797
    3   0.0000000
	Magnitude:	 4.048 au	10.289 Debye
 CIS 1 State Energy is -363.4006939613
 Gradient of the state energy (including CIS Excitation Energy)
            1           2           3           4           5           6
    1   0.0018597  -0.0013552   0.0050637  -0.0123063   0.0052060   0.0025030
    2  -0.0004587   0.0015249  -0.0005449  -0.0085116   0.0143229  -0.0045236
    3   0.0000000  -0.0000000   0.0000000  -0.0000000   0.0000000  -0.0000000
            7           8           9          10          11          12
    1  -0.0013430  -0.0111309   0.0105355  -0.0014676   0.0002759   0.0003872
    2  -0.0177879   0.0129241   0.0023309   0.0016261   0.0001248  -0.0011267
    3   0.0000000  -0.0000000   0.0000000  -0.0000000  -0.0000000   0.0000000
           13          14          15          16
    1  -0.0013521   0.0012719   0.0012316   0.0006205
    2  -0.0001016   0.0008011  -0.0002874  -0.0003123
    3  -0.0000000  -0.0000000   0.0000000   0.0000000
 Gradient time:  CPU 76.36 s  wall 19.22 s
 Geometry Optimization Parameters
   NAtoms,    NIC,     NZ,  NCons,   NDum,   NFix, NCnnct, MaxDiis
       16     116       0       0       0       0       0       0

 Cartesian Hessian Update
 Hessian updated using BFGS update


** GEOMETRY OPTIMIZATION IN DELOCALIZED INTERNAL COORDINATES **
   Searching for a Minimum

   Optimization Cycle:   2

                       Coordinates (Angstroms)
     ATOM                X               Y               Z
      1  C         2.1713773421   -0.7028023475    0.0000000000
      2  C         2.1220517931    0.6927619137    0.0000000000
      3  C         0.9034958280    1.4028545596    0.0000000000
      4  C        -0.2610469779    0.6653096135    0.0000000000
      5  N        -1.5819325758    1.0786255817    0.0000000000
      6  H        -1.9322651711    2.0468504634    0.0000000000
      7  C        -2.3701906027    0.0096669325    0.0000000000
      8  C        -1.5849561268   -1.1557030997    0.0000000000
      9  C        -0.2335867164   -0.7489574851    0.0000000000
     10  C         0.9934801513   -1.4405920656    0.0000000000
     11  H         3.1329720817   -1.2108427259    0.0000000000
     12  H         3.0551986968    1.2510891004    0.0000000000
     13  H         0.8791200116    2.4884489476    0.0000000000
     14  H        -3.4489522368    0.1421801165    0.0000000000
     15  H        -1.9621989694   -2.1729819987    0.0000000000
     16  H         1.0193229649   -2.5304970449    0.0000000000
   Point Group: cs    Number of degrees of freedom:    29


   Energy is   -363.400693961

 Hessian updated using BFGS update

 24 Hessian modes will be used to form the next step
  Hessian Eigenvalues:
     0.157241    0.162580    0.219748    0.221919    0.224920    0.242138
     0.254018    0.351828    0.351863    0.352295    0.352677    0.354468
     0.358594    0.363572    0.371327    0.408842    0.423205    0.441973
     0.452609    0.465428    0.472151    0.476636    0.482701    0.500221

 Minimum search - taking simple RFO step
 Searching for Lamda that Minimizes Along All modes
 Value Taken    Lamda =  -0.00133159
 Step Taken.  Stepsize is  0.071783

                             Maximum     Tolerance    Cnvgd?
         Gradient           0.010919      0.000300      NO
         Displacement       0.039966      0.001200      NO
         Energy change     -0.007543      0.000001      NO


 New Cartesian Coordinates Obtained by Inverse Iteration

 Displacement from previous Coordinates is:  0.072060
 ----------------------------------------------------------------
             Standard Nuclear Orientation (Angstroms)
    I     Atom           X                Y                Z
 ----------------------------------------------------------------
    1      C       2.1654735001    -0.7033127249     0.0000000000
    2      C       2.1213561775     0.6922537774     0.0000000000
    3      C       0.9047965085     1.4107983891     0.0000000000
    4      C      -0.2529221656     0.6737436993     0.0000000000
    5      N      -1.5824379850     1.0732656773     0.0000000000
    6      H      -1.9487903914     2.0446134099     0.0000000000
    7      C      -2.3618913487     0.0154026417     0.0000000000
    8      C      -1.5745862640    -1.1664813910     0.0000000000
    9      C      -0.2365854929    -0.7487877662     0.0000000000
   10      C       0.9891204700    -1.4431586214     0.0000000000
   11      H       3.1254100411    -1.2140166456     0.0000000000
   12      H       3.0527729450     1.2544669160     0.0000000000
   13      H       0.8927639814     2.4966529362     0.0000000000
   14      H      -3.4435023873     0.1444439527     0.0000000000
   15      H      -1.9591090697    -2.1816213339     0.0000000000
   16      H       1.0100209734    -2.5328524552     0.0000000000
 ----------------------------------------------------------------
 Molecular Point Group                 Cs    NOp =  2
 Largest Abelian Subgroup              Cs    NOp =  2
 Nuclear Repulsion Energy =         401.46303827 hartrees
 There are       31 alpha and       31 beta electrons
 Applying Cartesian multipole field
    Component          Value
    ---------          -----
     (2,0,0)        1.00000E-11
     (0,2,0)        2.00000E-11
     (0,0,2)       -3.00000E-11
 Nucleus-field energy     =     0.0000000117 hartrees
 Requested basis set is 6-31+G(d)
 There are 59 shells and 185 basis functions
 A cutoff of  1.0D-12 yielded   1658 shell pairs
 There are     17111 function pairs
 Smallest overlap matrix eigenvalue = 1.20E-06
 Guess MOs from SCF MO coefficient file

 -----------------------------------------------------------------------
  General SCF calculation program by
  Eric Jon Sundstrom, Paul Horn, Yuezhi Mao, Dmitri Zuev, Alec White,
  David Stuck, Shaama M.S., Shane Yost, Joonho Lee, David Small,
  Daniel Levine, Susi Lehtola, Hugh Burton, Evgeny Epifanovsky,
  Bang C. Huynh
 -----------------------------------------------------------------------
 Exchange:     0.2700 Hartree-Fock + 1.0000 M06
 Correlation:  1.0000 M06
 Using SG-3 standard quadrature grid
 using 4 threads for integral computing
 -------------------------------------------------------
 OpenMP Integral computing Module                
 Release: version 1.0, May 2013, Q-Chem Inc. Pittsburgh 
 -------------------------------------------------------
 A restricted SCF calculation will be
 performed using DIIS
 SCF converges when DIIS error is below 1.0e-08
 ---------------------------------------
  Cycle       Energy         DIIS error
 ---------------------------------------
    1    -363.5397596885      3.38e-04  
    2    -363.5404110925      7.27e-05  
    3    -363.5403978931      9.28e-05  
    4    -363.5404369659      1.78e-05  
    5    -363.5404382648      6.15e-06  
    6    -363.5404384387      2.46e-06  
    7    -363.5404384665      1.04e-06  
    8    -363.5404384717      3.35e-07  
    9    -363.5404384722      1.65e-07  
   10    -363.5404384723      5.49e-08  
   11    -363.5404384723      2.15e-08  
   12    -363.5404384723      3.27e-09  Convergence criterion met
 ---------------------------------------
 SCF time:   CPU 227.39s  wall 57.00s 
 SCF   energy in the final basis set =     -363.5404384723
 Total energy in the final basis set =     -363.5404384723
 
 Direct TDDFT/TDA calculation will be performed
 Exchange:     0.2700 Hartree-Fock + 1.0000 M06
 Correlation:  1.0000 M06
 Using SG-3 standard quadrature grid
 Singlet excitation energies requested
 CIS energy converged when residual is below 10e- 6
 ---------------------------------------------------
 Iter    Rts Conv    Rts Left    Ttl Dev     Max Dev
 ---------------------------------------------------
   1         0           3      0.002105    0.001792
   2         0           3      0.000527    0.000464
   3         0           3      0.000151    0.000131
   4         0           3      0.000092    0.000083
   5         1           2      0.000042    0.000038
   6         1           2      0.000028    0.000024
   7         1           2      0.000022    0.000019
   8         2           1      0.000013    0.000012
   9         2           1      0.000007    0.000006
  10         2           1      0.000003    0.000002
  11         3           0      0.000002    0.000001    Roots Converged
 ---------------------------------------------------
 
 ---------------------------------------------------
         TDDFT/TDA Excitation Energies              
 ---------------------------------------------------

 Excited state   1: excitation energy (eV) =    3.7837
 Total energy for state  1:                  -363.40138892 au
    Multiplicity: Singlet
    Trans. Mom.:  0.0000 X   0.0000 Y  -0.0913 Z
    Strength   :     0.0007721745
    D(   31) --> V(    1) amplitude =  0.9961

 Excited state   2: excitation energy (eV) =    4.5026
 Total energy for state  2:                  -363.37496915 au
    Multiplicity: Singlet
    Trans. Mom.: -0.0000 X   0.0000 Y   0.0276 Z
    Strength   :     0.0000837946
    D(   31) --> V(    3) amplitude =  0.9933

 Excited state   3: excitation energy (eV) =    4.5583
 Total energy for state  3:                  -363.37292302 au
    Multiplicity: Singlet
    Trans. Mom.:  0.9856 X  -0.6482 Y   0.0000 Z
    Strength   :     0.1554190148
    D(   30) --> V(    7) amplitude =  0.2236
    D(   31) --> V(    2) amplitude =  0.9180
 
 ---------------------------------------------------
 Calculating Relaxed Density
 ---------------------------------------------------
 Iter    Rts Conv    Rts Left    Ttl Dev     Max Dev
 ---------------------------------------------------
   1         0           3      0.002939    0.001326
   2         0           3      0.001047    0.000425
   3         0           3      0.000207    0.000085
   4         0           3      0.000062    0.000027
   5         0           3      0.000017    0.000007
   6         0           3      0.000004    0.000002
   7         3           0      0.000000    0.000000    Roots Converged
 ---------------------------------------------------
  SETman timing summary (seconds)
  CPU time              1050.00s
  System time              0.00s
  Wall time              263.86s
 
 --------------------------------------------------------------
             Orbital Energies (a.u.) and Symmetries
 --------------------------------------------------------------
 
 Alpha MOs, Restricted
 -- Occupied --                  
-14.468 -10.296 -10.291 -10.264 -10.257 -10.257 -10.257 -10.254
  1 A'    2 A'    3 A'    4 A'    5 A'    6 A'    7 A'    8 A'                 
-10.246  -1.013  -0.856  -0.793  -0.756  -0.720  -0.640  -0.608
  9 A'   10 A'   11 A'   12 A'   13 A'   14 A'   15 A'   16 A'                 
 -0.592  -0.553  -0.492  -0.481  -0.453  -0.447  -0.443  -0.414
 17 A'   18 A'   19 A'   20 A'   21 A'    1 A"   22 A'   23 A'                 
 -0.399  -0.365  -0.352  -0.348  -0.291  -0.244  -0.208
 24 A'   25 A'    2 A"   26 A'    3 A"    4 A"    5 A"                         
 -- Virtual --                   
 -0.035  -0.017  -0.013  -0.008   0.003   0.007   0.022   0.029
 27 A'    6 A"   28 A'   29 A'   30 A'   31 A'    7 A"   32 A'                 
  0.030   0.035   0.040   0.042   0.065   0.068   0.070   0.070
 33 A'    8 A"    9 A"   34 A'   10 A"   35 A'   36 A'   11 A"                 
  0.095   0.101   0.110   0.116   0.119   0.124   0.131   0.136
 37 A'   12 A"   13 A"   38 A'   39 A'   14 A"   40 A'   15 A"                 
  0.149   0.157   0.159   0.166   0.175   0.176   0.183   0.191
 41 A'   16 A"   42 A'   43 A'   44 A'   45 A'   46 A'   47 A'                 
  0.194   0.200   0.209   0.212   0.215   0.220   0.233   0.238
 17 A"   48 A'   49 A'   18 A"   50 A'   51 A'   52 A'   53 A'                 
  0.246   0.254   0.256   0.272   0.278   0.292   0.301   0.311
 54 A'   55 A'   56 A'   57 A'   58 A'   59 A'   60 A'   61 A'                 
  0.328   0.349   0.355   0.392   0.427   0.440   0.513   0.573
 62 A'   63 A'   64 A'   65 A'   66 A'   67 A'   68 A'   69 A'                 
  0.618   0.654   0.663   0.679   0.701   0.706   0.714   0.719
 70 A'   19 A"   71 A'   20 A"   21 A"   72 A'   22 A"   73 A'                 
  0.732   0.737   0.755   0.759   0.774   0.783   0.803   0.837
 74 A'   23 A"   75 A'   24 A"   25 A"   76 A'   77 A'   26 A"                 
  0.856   0.870   0.882   0.903   0.910   0.925   0.953   0.959
 78 A'   79 A'   80 A'   81 A'   82 A'   83 A'   27 A"   84 A'                 
  0.984   1.001   1.023   1.027   1.081   1.101   1.107   1.162
 85 A'   86 A'   87 A'   88 A'   89 A'   90 A'   91 A'   92 A'                 
  1.168   1.188   1.214   1.234   1.245   1.307   1.317   1.340
 93 A'   94 A'   95 A'   96 A'   28 A"   97 A'   29 A"   98 A'                 
  1.352   1.391   1.408   1.419   1.463   1.464   1.495   1.505
 30 A"   99 A'  100 A'   31 A"   32 A"   33 A"   34 A"   35 A"                 
  1.521   1.552   1.624   1.753   1.819   1.861   1.873   1.884
101 A'  102 A'  103 A'  104 A'  105 A'  106 A'  107 A'  108 A'                 
  1.888   1.946   1.951   1.998   2.044   2.071   2.114   2.138
 36 A"  109 A'  110 A'   37 A"  111 A'  112 A'  113 A'  114 A'                 
  2.146   2.168   2.223   2.242   2.260   2.287   2.307   2.366
 38 A"  115 A'   39 A"   40 A"   41 A"  116 A'  117 A'   42 A"                 
  2.408   2.425   2.507   2.555   2.615   2.625   2.649   2.665
 43 A"  118 A'  119 A'   44 A"  120 A'  121 A'   45 A"  122 A'                 
  2.708   2.790   2.810   2.837   2.922   2.959   3.062   3.236
123 A'  124 A'  125 A'  126 A'  127 A'  128 A'  129 A'  130 A'                 
  3.403   4.147   4.219   4.250   4.275   4.326   4.369   4.445
131 A'  132 A'  133 A'  134 A'  135 A'  136 A'  137 A'  138 A'                 
  4.485   4.752
139 A'  140 A'                                                                 
 
 Beta MOs, Restricted
 -- Occupied --                  
-14.468 -10.296 -10.291 -10.264 -10.257 -10.257 -10.257 -10.254
  1 A'    2 A'    3 A'    4 A'    5 A'    6 A'    7 A'    8 A'                 
-10.246  -1.013  -0.856  -0.793  -0.756  -0.720  -0.640  -0.608
  9 A'   10 A'   11 A'   12 A'   13 A'   14 A'   15 A'   16 A'                 
 -0.592  -0.553  -0.492  -0.481  -0.453  -0.447  -0.443  -0.414
 17 A'   18 A'   19 A'   20 A'   21 A'    1 A"   22 A'   23 A'                 
 -0.399  -0.365  -0.352  -0.348  -0.291  -0.244  -0.208
 24 A'   25 A'    2 A"   26 A'    3 A"    4 A"    5 A"                         
 -- Virtual --                   
 -0.035  -0.017  -0.013  -0.008   0.003   0.007   0.022   0.029
 27 A'    6 A"   28 A'   29 A'   30 A'   31 A'    7 A"   32 A'                 
  0.030   0.035   0.040   0.042   0.065   0.068   0.070   0.070
 33 A'    8 A"    9 A"   34 A'   10 A"   35 A'   36 A'   11 A"                 
  0.095   0.101   0.110   0.116   0.119   0.124   0.131   0.136
 37 A'   12 A"   13 A"   38 A'   39 A'   14 A"   40 A'   15 A"                 
  0.149   0.157   0.159   0.166   0.175   0.176   0.183   0.191
 41 A'   16 A"   42 A'   43 A'   44 A'   45 A'   46 A'   47 A'                 
  0.194   0.200   0.209   0.212   0.215   0.220   0.233   0.238
 17 A"   48 A'   49 A'   18 A"   50 A'   51 A'   52 A'   53 A'                 
  0.246   0.254   0.256   0.272   0.278   0.292   0.301   0.311
 54 A'   55 A'   56 A'   57 A'   58 A'   59 A'   60 A'   61 A'                 
  0.328   0.349   0.355   0.392   0.427   0.440   0.513   0.573
 62 A'   63 A'   64 A'   65 A'   66 A'   67 A'   68 A'   69 A'                 
  0.618   0.654   0.663   0.679   0.701   0.706   0.714   0.719
 70 A'   19 A"   71 A'   20 A"   21 A"   72 A'   22 A"   73 A'                 
  0.732   0.737   0.755   0.759   0.774   0.783   0.803   0.837
 74 A'   23 A"   75 A'   24 A"   25 A"   76 A'   77 A'   26 A"                 
  0.856   0.870   0.882   0.903   0.910   0.925   0.953   0.959
 78 A'   79 A'   80 A'   81 A'   82 A'   83 A'   27 A"   84 A'                 
  0.984   1.001   1.023   1.027   1.081   1.101   1.107   1.162
 85 A'   86 A'   87 A'   88 A'   89 A'   90 A'   91 A'   92 A'                 
  1.168   1.188   1.214   1.234   1.245   1.307   1.317   1.340
 93 A'   94 A'   95 A'   96 A'   28 A"   97 A'   29 A"   98 A'                 
  1.352   1.391   1.408   1.419   1.463   1.464   1.495   1.505
 30 A"   99 A'  100 A'   31 A"   32 A"   33 A"   34 A"   35 A"                 
  1.521   1.552   1.624   1.753   1.819   1.861   1.873   1.884
101 A'  102 A'  103 A'  104 A'  105 A'  106 A'  107 A'  108 A'                 
  1.888   1.946   1.951   1.998   2.044   2.071   2.114   2.138
 36 A"  109 A'  110 A'   37 A"  111 A'  112 A'  113 A'  114 A'                 
  2.146   2.168   2.223   2.242   2.260   2.287   2.307   2.366
 38 A"  115 A'   39 A"   40 A"   41 A"  116 A'  117 A'   42 A"                 
  2.408   2.425   2.507   2.555   2.615   2.625   2.649   2.665
 43 A"  118 A'  119 A'   44 A"  120 A'  121 A'   45 A"  122 A'                 
  2.708   2.790   2.810   2.837   2.922   2.959   3.062   3.236
123 A'  124 A'  125 A'  126 A'  127 A'  128 A'  129 A'  130 A'                 
  3.403   4.147   4.219   4.250   4.275   4.326   4.369   4.445
131 A'  132 A'  133 A'  134 A'  135 A'  136 A'  137 A'  138 A'                 
  4.485   4.752
139 A'  140 A'                                                                 
 --------------------------------------------------------------
 
          Ground-State Mulliken Net Atomic Charges

     Atom                 Charge (a.u.)
  ----------------------------------------
      1 C                    -0.035514
      2 C                    -0.443814
      3 C                     0.164787
      4 C                    -1.254412
      5 N                    -0.404533
      6 H                     0.418802
      7 C                    -0.203630
      8 C                     0.098739
      9 C                     0.916709
     10 C                    -0.392263
     11 H                     0.185757
     12 H                     0.181264
     13 H                     0.183579
     14 H                     0.197469
     15 H                     0.197122
     16 H                     0.189939
  ----------------------------------------
  Sum of atomic charges =     0.000000

 -----------------------------------------------------------------
                    Cartesian Multipole Moments
 -----------------------------------------------------------------
    Charge (ESU x 10^10)
                -0.0000
    Dipole Moment (Debye)
         X      -1.6196      Y       1.8173      Z       0.0000
       Tot       2.4342
    Quadrupole Moments (Debye-Ang)
        XX     -45.0663     XY      -4.2487     YY     -44.1792
        XZ      -0.0000     YZ       0.0000     ZZ     -58.5204
    Octopole Moments (Debye-Ang^2)
       XXX     -15.7381    XXY       9.9819    XYY      -8.8313
       YYY      11.6662    XXZ       0.0000    XYZ      -0.0000
       YYZ      -0.0000    XZZ      -2.2993    YZZ       2.3508
       ZZZ       0.0000
    Hexadecapole Moments (Debye-Ang^3)
      XXXX    -805.0673   XXXY     -24.0384   XXYY    -192.1870
      XYYY     -16.6234   YYYY    -367.3174   XXXZ       0.0000
      XXYZ       0.0000   XYYZ      -0.0000   YYYZ       0.0000
      XXZZ    -186.5027   XYZZ      -2.2575   YYZZ     -93.2878
      XZZZ       0.0000   YZZZ       0.0000   ZZZZ     -72.0967
 -----------------------------------------------------------------
 Calculating analytic gradient of the CIS energy
 CIS relaxed dipole moment
            1
    1   2.8058389
    2  -2.8962367
    3  -0.0000000
	Magnitude:	 4.032 au	10.250 Debye
 CIS 1 State Energy is -363.4013889200
 Gradient of the state energy (including CIS Excitation Energy)
            1           2           3           4           5           6
    1   0.0009582  -0.0000395  -0.0001745  -0.0024807   0.0005274  -0.0002004
    2   0.0009851  -0.0008150   0.0001452  -0.0007330  -0.0016444  -0.0000371
    3  -0.0000000   0.0000000   0.0000000   0.0000000  -0.0000000   0.0000000
            7           8           9          10          11          12
    1   0.0028992  -0.0012694   0.0018191  -0.0018830  -0.0001359   0.0001464
    2  -0.0004136   0.0024202   0.0005290  -0.0002521  -0.0000624   0.0000231
    3  -0.0000000   0.0000000  -0.0000000   0.0000000   0.0000000  -0.0000000
           13          14          15          16
    1  -0.0004010  -0.0000952   0.0002617   0.0000676
    2   0.0001323   0.0006504  -0.0007465  -0.0001813
    3  -0.0000000   0.0000000  -0.0000000   0.0000000
 Gradient time:  CPU 72.54 s  wall 18.23 s
 Geometry Optimization Parameters
   NAtoms,    NIC,     NZ,  NCons,   NDum,   NFix, NCnnct, MaxDiis
       16     116       0       0       0       0       0       0

 Cartesian Hessian Update
 Hessian updated using BFGS update


** GEOMETRY OPTIMIZATION IN DELOCALIZED INTERNAL COORDINATES **
   Searching for a Minimum

   Optimization Cycle:   3

                       Coordinates (Angstroms)
     ATOM                X               Y               Z
      1  C         2.1654735001   -0.7033127249    0.0000000000
      2  C         2.1213561775    0.6922537774    0.0000000000
      3  C         0.9047965085    1.4107983891    0.0000000000
      4  C        -0.2529221656    0.6737436993    0.0000000000
      5  N        -1.5824379850    1.0732656773    0.0000000000
      6  H        -1.9487903914    2.0446134099    0.0000000000
      7  C        -2.3618913487    0.0154026417    0.0000000000
      8  C        -1.5745862640   -1.1664813910    0.0000000000
      9  C        -0.2365854929   -0.7487877662    0.0000000000
     10  C         0.9891204700   -1.4431586214    0.0000000000
     11  H         3.1254100411   -1.2140166456    0.0000000000
     12  H         3.0527729450    1.2544669160    0.0000000000
     13  H         0.8927639814    2.4966529362    0.0000000000
     14  H        -3.4435023873    0.1444439527    0.0000000000
     15  H        -1.9591090697   -2.1816213339    0.0000000000
     16  H         1.0100209734   -2.5328524552    0.0000000000
   Point Group: cs    Number of degrees of freedom:    29


   Energy is   -363.401388920

 Hessian updated using BFGS update

 25 Hessian modes will be used to form the next step
  Hessian Eigenvalues:
     0.151307    0.160546    0.161528    0.219966    0.221688    0.228281
     0.239433    0.248936    0.349677    0.351940    0.352575    0.352762
     0.353093    0.359089    0.360784    0.371357    0.411590    0.426107
     0.442662    0.452500    0.467020    0.474308    0.478138    0.483447
     0.505088

 Minimum search - taking simple RFO step
 Searching for Lamda that Minimizes Along All modes
 Value Taken    Lamda =  -0.00005223
 Step Taken.  Stepsize is  0.013559

                             Maximum     Tolerance    Cnvgd?
         Gradient           0.001793      0.000300      NO
         Displacement       0.005933      0.001200      NO
         Energy change     -0.000695      0.000001      NO


 New Cartesian Coordinates Obtained by Inverse Iteration

 Displacement from previous Coordinates is:  0.019433
 ----------------------------------------------------------------
             Standard Nuclear Orientation (Angstroms)
    I     Atom           X                Y                Z
 ----------------------------------------------------------------
    1      C       2.1657740266    -0.7035155998     0.0000000000
    2      C       2.1225560489     0.6923718255     0.0000000000
    3      C       0.9065257323     1.4112861477     0.0000000000
    4      C      -0.2518885283     0.6751484642     0.0000000000
    5      N      -1.5840113552     1.0743527725     0.0000000000
    6      H      -1.9499310945     2.0462228824     0.0000000000
    7      C      -2.3648556836     0.0152541116     0.0000000000
    8      C      -1.5749559354    -1.1678336632     0.0000000000
    9      C      -0.2376045488    -0.7488621030     0.0000000000
   10      C       0.9900414082    -1.4426143416     0.0000000000
   11      H       3.1260212553    -1.2139542803     0.0000000000
   12      H       3.0537728470     1.2545461519     0.0000000000
   13      H       0.8981612798     2.4969559185     0.0000000000
   14      H      -3.4468890171     0.1392709538     0.0000000000
   15      H      -1.9617374554    -2.1811729666     0.0000000000
   16      H       1.0109105129    -2.5320458120     0.0000000000
 ----------------------------------------------------------------
 Molecular Point Group                 Cs    NOp =  2
 Largest Abelian Subgroup              Cs    NOp =  2
 Nuclear Repulsion Energy =         401.23055913 hartrees
 There are       31 alpha and       31 beta electrons
 Applying Cartesian multipole field
    Component          Value
    ---------          -----
     (2,0,0)        1.00000E-11
     (0,2,0)        2.00000E-11
     (0,0,2)       -3.00000E-11
 Nucleus-field energy     =     0.0000000117 hartrees
 Requested basis set is 6-31+G(d)
 There are 59 shells and 185 basis functions
 A cutoff of  1.0D-12 yielded   1658 shell pairs
 There are     17111 function pairs
 Smallest overlap matrix eigenvalue = 1.21E-06
 Guess MOs from SCF MO coefficient file

 -----------------------------------------------------------------------
  General SCF calculation program by
  Eric Jon Sundstrom, Paul Horn, Yuezhi Mao, Dmitri Zuev, Alec White,
  David Stuck, Shaama M.S., Shane Yost, Joonho Lee, David Small,
  Daniel Levine, Susi Lehtola, Hugh Burton, Evgeny Epifanovsky,
  Bang C. Huynh
 -----------------------------------------------------------------------
 Exchange:     0.2700 Hartree-Fock + 1.0000 M06
 Correlation:  1.0000 M06
 Using SG-3 standard quadrature grid
 using 4 threads for integral computing
 -------------------------------------------------------
 OpenMP Integral computing Module                
 Release: version 1.0, May 2013, Q-Chem Inc. Pittsburgh 
 -------------------------------------------------------
 A restricted SCF calculation will be
 performed using DIIS
 SCF converges when DIIS error is below 1.0e-08
 ---------------------------------------
  Cycle       Energy         DIIS error
 ---------------------------------------
    1    -363.5405104754      5.99e-05  
    2    -363.5405263786      2.19e-05  
    3    -363.5405250739      2.75e-05  
    4    -363.5405283823      3.60e-06  
    5    -363.5405284384      1.21e-06  
    6    -363.5405284444      4.23e-07  
    7    -363.5405284452      1.51e-07  
    8    -363.5405284454      4.39e-08  
    9    -363.5405284454      1.85e-08  
   10    -363.5405284454      9.68e-09  Convergence criterion met
 ---------------------------------------
 SCF time:   CPU 182.71s  wall 45.00s 
 SCF   energy in the final basis set =     -363.5405284454
 Total energy in the final basis set =     -363.5405284454
 
 Direct TDDFT/TDA calculation will be performed
 Exchange:     0.2700 Hartree-Fock + 1.0000 M06
 Correlation:  1.0000 M06
 Using SG-3 standard quadrature grid
 Singlet excitation energies requested
 CIS energy converged when residual is below 10e- 6
 ---------------------------------------------------
 Iter    Rts Conv    Rts Left    Ttl Dev     Max Dev
 ---------------------------------------------------
   1         0           3      0.002108    0.001795
   2         0           3      0.000529    0.000466
   3         0           3      0.000152    0.000133
   4         0           3      0.000092    0.000083
   5         1           2      0.000042    0.000038
   6         1           2      0.000028    0.000024
   7         1           2      0.000022    0.000019
   8         2           1      0.000013    0.000012
   9         2           1      0.000007    0.000006
  10         2           1      0.000003    0.000002
  11         3           0      0.000002    0.000001    Roots Converged
 ---------------------------------------------------
 
 ---------------------------------------------------
         TDDFT/TDA Excitation Energies              
 ---------------------------------------------------

 Excited state   1: excitation energy (eV) =    3.7854
 Total energy for state  1:                  -363.40141677 au
    Multiplicity: Singlet
    Trans. Mom.:  0.0000 X  -0.0000 Y  -0.0916 Z
    Strength   :     0.0007780747
    D(   31) --> V(    1) amplitude =  0.9961

 Excited state   2: excitation energy (eV) =    4.4998
 Total energy for state  2:                  -363.37516256 au
    Multiplicity: Singlet
    Trans. Mom.:  0.0000 X  -0.0000 Y   0.0283 Z
    Strength   :     0.0000885132
    D(   31) --> V(    3) amplitude =  0.9934

 Excited state   3: excitation energy (eV) =    4.5557
 Total energy for state  3:                  -363.37311114 au
    Multiplicity: Singlet
    Trans. Mom.: -0.9971 X   0.6465 Y   0.0000 Z
    Strength   :     0.1576180654
    D(   30) --> V(    7) amplitude =  0.2240
    D(   31) --> V(    2) amplitude =  0.9175
 
 ---------------------------------------------------
 Calculating Relaxed Density
 ---------------------------------------------------
 Iter    Rts Conv    Rts Left    Ttl Dev     Max Dev
 ---------------------------------------------------
   1         0           3      0.002943    0.001330
   2         0           3      0.001049    0.000425
   3         0           3      0.000207    0.000085
   4         0           3      0.000062    0.000027
   5         0           3      0.000017    0.000007
   6         0           3      0.000004    0.000002
   7         3           0      0.000000    0.000000    Roots Converged
 ---------------------------------------------------
  SETman timing summary (seconds)
  CPU time              1050.96s
  System time              0.00s
  Wall time              264.14s
 
 --------------------------------------------------------------
             Orbital Energies (a.u.) and Symmetries
 --------------------------------------------------------------
 
 Alpha MOs, Restricted
 -- Occupied --                  
-14.468 -10.297 -10.292 -10.264 -10.257 -10.257 -10.257 -10.254
  1 A'    2 A'    3 A'    4 A'    5 A'    6 A'    7 A'    8 A'                 
-10.246  -1.012  -0.856  -0.793  -0.756  -0.720  -0.640  -0.608
  9 A'   10 A'   11 A'   12 A'   13 A'   14 A'   15 A'   16 A'                 
 -0.592  -0.553  -0.492  -0.481  -0.453  -0.447  -0.443  -0.414
 17 A'   18 A'   19 A'   20 A'   21 A'    1 A"   22 A'   23 A'                 
 -0.399  -0.365  -0.352  -0.348  -0.291  -0.244  -0.208
 24 A'   25 A'    2 A"   26 A'    3 A"    4 A"    5 A"                         
 -- Virtual --                   
 -0.035  -0.017  -0.013  -0.008   0.003   0.007   0.022   0.029
 27 A'    6 A"   28 A'   29 A'   30 A'   31 A'    7 A"   32 A'                 
  0.030   0.035   0.040   0.042   0.065   0.068   0.070   0.070
 33 A'    8 A"    9 A"   34 A'   10 A"   35 A'   36 A'   11 A"                 
  0.095   0.101   0.110   0.116   0.119   0.124   0.131   0.136
 37 A'   12 A"   13 A"   38 A'   39 A'   14 A"   40 A'   15 A"                 
  0.149   0.157   0.159   0.166   0.174   0.176   0.183   0.191
 41 A'   16 A"   42 A'   43 A'   44 A'   45 A'   46 A'   47 A'                 
  0.194   0.200   0.209   0.212   0.215   0.220   0.233   0.238
 17 A"   48 A'   49 A'   18 A"   50 A'   51 A'   52 A'   53 A'                 
  0.245   0.254   0.256   0.272   0.278   0.292   0.301   0.311
 54 A'   55 A'   56 A'   57 A'   58 A'   59 A'   60 A'   61 A'                 
  0.327   0.349   0.354   0.391   0.427   0.439   0.512   0.573
 62 A'   63 A'   64 A'   65 A'   66 A'   67 A'   68 A'   69 A'                 
  0.617   0.654   0.662   0.679   0.702   0.706   0.714   0.718
 70 A'   19 A"   71 A'   20 A"   21 A"   72 A'   22 A"   73 A'                 
  0.732   0.737   0.754   0.759   0.773   0.783   0.803   0.836
 74 A'   23 A"   75 A'   24 A"   25 A"   76 A'   77 A'   26 A"                 
  0.856   0.870   0.882   0.902   0.911   0.925   0.953   0.958
 78 A'   79 A'   80 A'   81 A'   82 A'   83 A'   27 A"   84 A'                 
  0.984   1.001   1.023   1.026   1.081   1.101   1.107   1.161
 85 A'   86 A'   87 A'   88 A'   89 A'   90 A'   91 A'   92 A'                 
  1.168   1.188   1.213   1.234   1.245   1.307   1.318   1.340
 93 A'   94 A'   95 A'   96 A'   28 A"   97 A'   29 A"   98 A'                 
  1.352   1.392   1.407   1.419   1.463   1.464   1.495   1.505
 30 A"   99 A'  100 A'   31 A"   32 A"   33 A"   34 A"   35 A"                 
  1.520   1.551   1.624   1.753   1.818   1.860   1.873   1.883
101 A'  102 A'  103 A'  104 A'  105 A'  106 A'  107 A'  108 A'                 
  1.887   1.946   1.950   1.998   2.042   2.070   2.114   2.137
 36 A"  109 A'  110 A'   37 A"  111 A'  112 A'  113 A'  114 A'                 
  2.145   2.166   2.222   2.242   2.259   2.285   2.306   2.365
 38 A"  115 A'   39 A"   40 A"   41 A"  116 A'  117 A'   42 A"                 
  2.406   2.424   2.505   2.553   2.615   2.625   2.648   2.664
 43 A"  118 A'  119 A'   44 A"  120 A'  121 A'   45 A"  122 A'                 
  2.708   2.788   2.809   2.836   2.922   2.957   3.060   3.234
123 A'  124 A'  125 A'  126 A'  127 A'  128 A'  129 A'  130 A'                 
  3.402   4.146   4.219   4.250   4.275   4.325   4.369   4.444
131 A'  132 A'  133 A'  134 A'  135 A'  136 A'  137 A'  138 A'                 
  4.485   4.751
139 A'  140 A'                                                                 
 
 Beta MOs, Restricted
 -- Occupied --                  
-14.468 -10.297 -10.292 -10.264 -10.257 -10.257 -10.257 -10.254
  1 A'    2 A'    3 A'    4 A'    5 A'    6 A'    7 A'    8 A'                 
-10.246  -1.012  -0.856  -0.793  -0.756  -0.720  -0.640  -0.608
  9 A'   10 A'   11 A'   12 A'   13 A'   14 A'   15 A'   16 A'                 
 -0.592  -0.553  -0.492  -0.481  -0.453  -0.447  -0.443  -0.414
 17 A'   18 A'   19 A'   20 A'   21 A'    1 A"   22 A'   23 A'                 
 -0.399  -0.365  -0.352  -0.348  -0.291  -0.244  -0.208
 24 A'   25 A'    2 A"   26 A'    3 A"    4 A"    5 A"                         
 -- Virtual --                   
 -0.035  -0.017  -0.013  -0.008   0.003   0.007   0.022   0.029
 27 A'    6 A"   28 A'   29 A'   30 A'   31 A'    7 A"   32 A'                 
  0.030   0.035   0.040   0.042   0.065   0.068   0.070   0.070
 33 A'    8 A"    9 A"   34 A'   10 A"   35 A'   36 A'   11 A"                 
  0.095   0.101   0.110   0.116   0.119   0.124   0.131   0.136
 37 A'   12 A"   13 A"   38 A'   39 A'   14 A"   40 A'   15 A"                 
  0.149   0.157   0.159   0.166   0.174   0.176   0.183   0.191
 41 A'   16 A"   42 A'   43 A'   44 A'   45 A'   46 A'   47 A'                 
  0.194   0.200   0.209   0.212   0.215   0.220   0.233   0.238
 17 A"   48 A'   49 A'   18 A"   50 A'   51 A'   52 A'   53 A'                 
  0.245   0.254   0.256   0.272   0.278   0.292   0.301   0.311
 54 A'   55 A'   56 A'   57 A'   58 A'   59 A'   60 A'   61 A'                 
  0.327   0.349   0.354   0.391   0.427   0.439   0.512   0.573
 62 A'   63 A'   64 A'   65 A'   66 A'   67 A'   68 A'   69 A'                 
  0.617   0.654   0.662   0.679   0.702   0.706   0.714   0.718
 70 A'   19 A"   71 A'   20 A"   21 A"   72 A'   22 A"   73 A'                 
  0.732   0.737   0.754   0.759   0.773   0.783   0.803   0.836
 74 A'   23 A"   75 A'   24 A"   25 A"   76 A'   77 A'   26 A"                 
  0.856   0.870   0.882   0.902   0.911   0.925   0.953   0.958
 78 A'   79 A'   80 A'   81 A'   82 A'   83 A'   27 A"   84 A'                 
  0.984   1.001   1.023   1.026   1.081   1.101   1.107   1.161
 85 A'   86 A'   87 A'   88 A'   89 A'   90 A'   91 A'   92 A'                 
  1.168   1.188   1.213   1.234   1.245   1.307   1.318   1.340
 93 A'   94 A'   95 A'   96 A'   28 A"   97 A'   29 A"   98 A'                 
  1.352   1.392   1.407   1.419   1.463   1.464   1.495   1.505
 30 A"   99 A'  100 A'   31 A"   32 A"   33 A"   34 A"   35 A"                 
  1.520   1.551   1.624   1.753   1.818   1.860   1.873   1.883
101 A'  102 A'  103 A'  104 A'  105 A'  106 A'  107 A'  108 A'                 
  1.887   1.946   1.950   1.998   2.042   2.070   2.114   2.137
 36 A"  109 A'  110 A'   37 A"  111 A'  112 A'  113 A'  114 A'                 
  2.145   2.166   2.222   2.242   2.259   2.285   2.306   2.365
 38 A"  115 A'   39 A"   40 A"   41 A"  116 A'  117 A'   42 A"                 
  2.406   2.424   2.505   2.553   2.615   2.625   2.648   2.664
 43 A"  118 A'  119 A'   44 A"  120 A'  121 A'   45 A"  122 A'                 
  2.708   2.788   2.809   2.836   2.922   2.957   3.060   3.234
123 A'  124 A'  125 A'  126 A'  127 A'  128 A'  129 A'  130 A'                 
  3.402   4.146   4.219   4.250   4.275   4.325   4.369   4.444
131 A'  132 A'  133 A'  134 A'  135 A'  136 A'  137 A'  138 A'                 
  4.485   4.751
139 A'  140 A'                                                                 
 --------------------------------------------------------------
 
          Ground-State Mulliken Net Atomic Charges

     Atom                 Charge (a.u.)
  ----------------------------------------
      1 C                    -0.032754
[...]
  0.245   0.254   0.256   0.272   0.278   0.292   0.301   0.311
 54 A'   55 A'   56 A'   57 A'   58 A'   59 A'   60 A'   61 A'                 
  0.327   0.349   0.355   0.391   0.427   0.439   0.512   0.573
 62 A'   63 A'   64 A'   65 A'   66 A'   67 A'   68 A'   69 A'                 
  0.618   0.654   0.663   0.679   0.702   0.706   0.714   0.719
 70 A'   19 A"   71 A'   20 A"   21 A"   72 A'   22 A"   73 A'                 
  0.732   0.737   0.754   0.759   0.774   0.783   0.803   0.836
 74 A'   23 A"   75 A'   24 A"   25 A"   76 A'   77 A'   26 A"                 
  0.856   0.870   0.882   0.902   0.911   0.925   0.953   0.959
 78 A'   79 A'   80 A'   81 A'   82 A'   83 A'   27 A"   84 A'                 
  0.984   1.001   1.024   1.026   1.081   1.101   1.107   1.161
 85 A'   86 A'   87 A'   88 A'   89 A'   90 A'   91 A'   92 A'                 
  1.168   1.188   1.213   1.234   1.245   1.307   1.318   1.340
 93 A'   94 A'   95 A'   96 A'   28 A"   97 A'   29 A"   98 A'                 
  1.352   1.392   1.407   1.419   1.463   1.464   1.495   1.505
 30 A"   99 A'  100 A'   31 A"   32 A"   33 A"   34 A"   35 A"                 
  1.520   1.552   1.624   1.752   1.818   1.860   1.873   1.883
101 A'  102 A'  103 A'  104 A'  105 A'  106 A'  107 A'  108 A'                 
  1.887   1.946   1.950   1.998   2.042   2.071   2.114   2.137
 36 A"  109 A'  110 A'   37 A"  111 A'  112 A'  113 A'  114 A'                 
  2.145   2.166   2.222   2.242   2.259   2.285   2.306   2.365
 38 A"  115 A'   39 A"   40 A"   41 A"  116 A'  117 A'   42 A"                 
  2.406   2.424   2.505   2.553   2.615   2.625   2.648   2.664
 43 A"  118 A'  119 A'   44 A"  120 A'  121 A'   45 A"  122 A'                 
  2.708   2.788   2.809   2.836   2.922   2.957   3.061   3.234
123 A'  124 A'  125 A'  126 A'  127 A'  128 A'  129 A'  130 A'                 
  3.402   4.146   4.219   4.250   4.274   4.325   4.369   4.444
131 A'  132 A'  133 A'  134 A'  135 A'  136 A'  137 A'  138 A'                 
  4.485   4.751
139 A'  140 A'                                                                 
 --------------------------------------------------------------
 
          Ground-State Mulliken Net Atomic Charges

     Atom                 Charge (a.u.)
  ----------------------------------------
      1 C                    -0.032405
      2 C                    -0.443257
      3 C                     0.164215
      4 C                    -1.250857
      5 N                    -0.405749
      6 H                     0.418742
      7 C                    -0.205355
      8 C                     0.104809
      9 C                     0.911287
     10 C                    -0.397321
     11 H                     0.185789
     12 H                     0.181275
     13 H                     0.183888
     14 H                     0.197845
     15 H                     0.197260
     16 H                     0.189831
  ----------------------------------------
  Sum of atomic charges =     0.000000

 -----------------------------------------------------------------
                    Cartesian Multipole Moments
 -----------------------------------------------------------------
    Charge (ESU x 10^10)
                -0.0000
    Dipole Moment (Debye)
         X      -1.6166      Y       1.8132      Z       0.0000
       Tot       2.4292
    Quadrupole Moments (Debye-Ang)
        XX     -45.0284     XY      -4.2038     YY     -44.1807
        XZ       0.0000     YZ       0.0000     ZZ     -58.5361
    Octopole Moments (Debye-Ang^2)
       XXX     -15.8230    XXY       9.8875    XYY      -8.8037
       YYY      11.6997    XXZ      -0.0000    XYZ       0.0000
       YYZ      -0.0000    XZZ      -2.2638    YZZ       2.3349
       ZZZ       0.0000
    Hexadecapole Moments (Debye-Ang^3)
      XXXX    -805.5183   XXXY     -23.7304   XXYY    -192.3094
      XYYY     -16.5929   YYYY    -367.5074   XXXZ       0.0000
      XXYZ      -0.0000   XYYZ       0.0000   YYYZ       0.0000
      XXZZ    -186.7542   XYZZ      -2.2807   YYZZ     -93.3382
      XZZZ       0.0000   YZZZ      -0.0000   ZZZZ     -72.1379
 -----------------------------------------------------------------
 Calculating analytic gradient of the CIS energy
 CIS relaxed dipole moment
            1
    1   2.8003004
    2  -2.8960919
    3   0.0000000
	Magnitude:	 4.029 au	10.239 Debye
 CIS 1 State Energy is -363.4014189627
 Gradient of the state energy (including CIS Excitation Energy)
            1           2           3           4           5           6
    1   0.0001053   0.0001130  -0.0001203   0.0000805   0.0000703  -0.0000753
    2   0.0002433  -0.0002048   0.0000345   0.0000924  -0.0000480   0.0000751
    3   0.0000000  -0.0000000   0.0000000  -0.0000000   0.0000000   0.0000000
            7           8           9          10          11          12
    1  -0.0001112  -0.0000623   0.0001178  -0.0002238  -0.0000003  -0.0000178
    2  -0.0000240  -0.0000893  -0.0000532  -0.0000772  -0.0000082   0.0000217
    3   0.0000000  -0.0000000   0.0000000  -0.0000000  -0.0000000   0.0000000
           13          14          15          16
    1   0.0000099   0.0000079   0.0000771   0.0000291
    2  -0.0000063   0.0000233   0.0000041   0.0000167
    3   0.0000000   0.0000000  -0.0000000   0.0000000
 Gradient time:  CPU 74.59 s  wall 18.76 s
 Geometry Optimization Parameters
   NAtoms,    NIC,     NZ,  NCons,   NDum,   NFix, NCnnct, MaxDiis
       16     116       0       0       0       0       0       0

 Cartesian Hessian Update
 Hessian updated using BFGS update


** GEOMETRY OPTIMIZATION IN DELOCALIZED INTERNAL COORDINATES **
   Searching for a Minimum

   Optimization Cycle:   5

                       Coordinates (Angstroms)
     ATOM                X               Y               Z
      1  C         2.1656110202   -0.7036927179    0.0000000000
      2  C         2.1222794885    0.6925808304    0.0000000000
      3  C         0.9064458690    1.4110612404    0.0000000000
      4  C        -0.2519701783    0.6749618408    0.0000000000
      5  N        -1.5842291448    1.0746512766    0.0000000000
      6  H        -1.9493512324    2.0464049772    0.0000000000
      7  C        -2.3645589692    0.0155002855    0.0000000000
      8  C        -1.5746295889   -1.1678200551    0.0000000000
      9  C        -0.2378031083   -0.7491013664    0.0000000000
     10  C         0.9903885580   -1.4425688992    0.0000000000
     11  H         3.1260554216   -1.2137925483    0.0000000000
     12  H         3.0533367435    1.2549378148    0.0000000000
     13  H         0.8987061877    2.4967284710    0.0000000000
     14  H        -3.4465200167    0.1380349366    0.0000000000
     15  H        -1.9630352934   -2.1804698051    0.0000000000
     16  H         1.0111637358   -2.5320058196    0.0000000000
   Point Group: cs    Number of degrees of freedom:    29


   Energy is   -363.401418963

 Hessian updated using BFGS update

 27 Hessian modes will be used to form the next step
  Hessian Eigenvalues:
     0.114562    0.156772    0.160223    0.160390    0.162222    0.220137
     0.222048    0.229949    0.237320    0.248483    0.350063    0.351946
     0.352050    0.352592    0.352787    0.358415    0.360199    0.368507
     0.398426    0.413277    0.426971    0.445959    0.463721    0.469278
     0.479825    0.483485    0.549711

 Minimum search - taking simple RFO step
 Searching for Lamda that Minimizes Along All modes
 Value Taken    Lamda =  -0.00000048
 Step Taken.  Stepsize is  0.001706

                             Maximum     Tolerance    Cnvgd?
         Gradient           0.000213      0.000300     YES
         Displacement       0.000798      0.001200     YES
         Energy change     -0.000002      0.000001      NO

 Final energy is   -363.401418962672     


 ******************************
 **  OPTIMIZATION CONVERGED  **
 ******************************

                       Coordinates (Angstroms)
     ATOM                X               Y               Z
      1  C         2.1656110202   -0.7036927179    0.0000000000
      2  C         2.1222794885    0.6925808304    0.0000000000
      3  C         0.9064458690    1.4110612404    0.0000000000
      4  C        -0.2519701783    0.6749618408    0.0000000000
      5  N        -1.5842291448    1.0746512766    0.0000000000
      6  H        -1.9493512324    2.0464049772    0.0000000000
      7  C        -2.3645589692    0.0155002855    0.0000000000
      8  C        -1.5746295889   -1.1678200551    0.0000000000
      9  C        -0.2378031083   -0.7491013664    0.0000000000
     10  C         0.9903885580   -1.4425688992    0.0000000000
     11  H         3.1260554216   -1.2137925483    0.0000000000
     12  H         3.0533367435    1.2549378148    0.0000000000
     13  H         0.8987061877    2.4967284710    0.0000000000
     14  H        -3.4465200167    0.1380349366    0.0000000000
     15  H        -1.9630352934   -2.1804698051    0.0000000000
     16  H         1.0111637358   -2.5320058196    0.0000000000

Z-matrix Print:
$molecule
0 1
C 
C  1 1.372505
H  2 1.085695 1 122.024899
N  1 1.390923 2 130.866941 3 -0.000000 0
H  4 1.038084 1 127.292675 2 -0.000000 0
C  4 1.315567 1 109.681235 2 -180.000000 0
H  6 1.088878 4 119.919591 1 -180.000000 0
C  2 1.412255 1 116.986260 3 -180.000000 0
H  8 1.087710 2 118.287707 1 -180.000000 0
C  8 1.396946 2 122.357918 1 -0.000000 0
H  10 1.087500 8 119.750664 2 -180.000000 0
C  10 1.388195 8 120.380529 2 -0.000000 0
H  12 1.089635 10 121.065580 8 -180.000000 0
C  12 1.410444 10 118.391790 8 -0.000000 0
C  14 1.400868 12 133.158330 10 -180.000000 0
H  15 1.084582 14 128.376026 12 -0.000000 0
$end

 
 --------------------------------------------------------------
             Orbital Energies (a.u.) and Symmetries
 --------------------------------------------------------------
 
 Alpha MOs, Restricted
 -- Occupied --                  
-14.468 -10.297 -10.292 -10.264 -10.257 -10.257 -10.257 -10.254
  1 A'    2 A'    3 A'    4 A'    5 A'    6 A'    7 A'    8 A'                 
-10.246  -1.012  -0.856  -0.793  -0.756  -0.720  -0.640  -0.608
  9 A'   10 A'   11 A'   12 A'   13 A'   14 A'   15 A'   16 A'                 
 -0.592  -0.553  -0.492  -0.481  -0.453  -0.447  -0.443  -0.414
 17 A'   18 A'   19 A'   20 A'   21 A'    1 A"   22 A'   23 A'                 
 -0.399  -0.365  -0.352  -0.348  -0.291  -0.244  -0.208
 24 A'   25 A'    2 A"   26 A'    3 A"    4 A"    5 A"                         
 -- Virtual --                   
 -0.035  -0.017  -0.013  -0.008   0.003   0.007   0.022   0.029
 27 A'    6 A"   28 A'   29 A'   30 A'   31 A'    7 A"   32 A'                 
  0.030   0.035   0.040   0.042   0.065   0.068   0.070   0.070
 33 A'    8 A"    9 A"   34 A'   10 A"   35 A'   36 A'   11 A"                 
  0.095   0.101   0.110   0.116   0.119   0.124   0.131   0.136
 37 A'   12 A"   13 A"   38 A'   39 A'   14 A"   40 A'   15 A"                 
  0.149   0.157   0.159   0.166   0.174   0.176   0.183   0.191
 41 A'   16 A"   42 A'   43 A'   44 A'   45 A'   46 A'   47 A'                 
  0.194   0.200   0.209   0.212   0.215   0.220   0.233   0.238
 17 A"   48 A'   49 A'   18 A"   50 A'   51 A'   52 A'   53 A'                 
  0.245   0.254   0.256   0.272   0.278   0.292   0.301   0.311
 54 A'   55 A'   56 A'   57 A'   58 A'   59 A'   60 A'   61 A'                 
  0.327   0.349   0.355   0.391   0.427   0.439   0.512   0.573
 62 A'   63 A'   64 A'   65 A'   66 A'   67 A'   68 A'   69 A'                 
  0.618   0.654   0.663   0.679   0.702   0.706   0.714   0.719
 70 A'   19 A"   71 A'   20 A"   21 A"   72 A'   22 A"   73 A'                 
  0.732   0.737   0.754   0.759   0.774   0.783   0.803   0.836
 74 A'   23 A"   75 A'   24 A"   25 A"   76 A'   77 A'   26 A"                 
  0.856   0.870   0.882   0.902   0.911   0.925   0.953   0.959
 78 A'   79 A'   80 A'   81 A'   82 A'   83 A'   27 A"   84 A'                 
  0.984   1.001   1.024   1.026   1.081   1.101   1.107   1.161
 85 A'   86 A'   87 A'   88 A'   89 A'   90 A'   91 A'   92 A'                 
  1.168   1.188   1.213   1.234   1.245   1.307   1.318   1.340
 93 A'   94 A'   95 A'   96 A'   28 A"   97 A'   29 A"   98 A'                 
  1.352   1.392   1.407   1.419   1.463   1.464   1.495   1.505
 30 A"   99 A'  100 A'   31 A"   32 A"   33 A"   34 A"   35 A"                 
  1.520   1.552   1.624   1.752   1.818   1.860   1.873   1.883
101 A'  102 A'  103 A'  104 A'  105 A'  106 A'  107 A'  108 A'                 
  1.887   1.946   1.950   1.998   2.042   2.071   2.114   2.137
 36 A"  109 A'  110 A'   37 A"  111 A'  112 A'  113 A'  114 A'                 
  2.145   2.166   2.222   2.242   2.259   2.285   2.306   2.365
 38 A"  115 A'   39 A"   40 A"   41 A"  116 A'  117 A'   42 A"                 
  2.406   2.424   2.505   2.553   2.615   2.625   2.648   2.664
 43 A"  118 A'  119 A'   44 A"  120 A'  121 A'   45 A"  122 A'                 
  2.708   2.788   2.809   2.836   2.922   2.957   3.061   3.234
123 A'  124 A'  125 A'  126 A'  127 A'  128 A'  129 A'  130 A'                 
  3.402   4.146   4.219   4.250   4.274   4.325   4.369   4.444
131 A'  132 A'  133 A'  134 A'  135 A'  136 A'  137 A'  138 A'                 
  4.485   4.751
139 A'  140 A'                                                                 
 
 Beta MOs, Restricted
 -- Occupied --                  
-14.468 -10.297 -10.292 -10.264 -10.257 -10.257 -10.257 -10.254
  1 A'    2 A'    3 A'    4 A'    5 A'    6 A'    7 A'    8 A'                 
-10.246  -1.012  -0.856  -0.793  -0.756  -0.720  -0.640  -0.608
  9 A'   10 A'   11 A'   12 A'   13 A'   14 A'   15 A'   16 A'                 
 -0.592  -0.553  -0.492  -0.481  -0.453  -0.447  -0.443  -0.414
 17 A'   18 A'   19 A'   20 A'   21 A'    1 A"   22 A'   23 A'                 
 -0.399  -0.365  -0.352  -0.348  -0.291  -0.244  -0.208
 24 A'   25 A'    2 A"   26 A'    3 A"    4 A"    5 A"                         
 -- Virtual --                   
 -0.035  -0.017  -0.013  -0.008   0.003   0.007   0.022   0.029
 27 A'    6 A"   28 A'   29 A'   30 A'   31 A'    7 A"   32 A'                 
  0.030   0.035   0.040   0.042   0.065   0.068   0.070   0.070
 33 A'    8 A"    9 A"   34 A'   10 A"   35 A'   36 A'   11 A"                 
  0.095   0.101   0.110   0.116   0.119   0.124   0.131   0.136
 37 A'   12 A"   13 A"   38 A'   39 A'   14 A"   40 A'   15 A"                 
  0.149   0.157   0.159   0.166   0.174   0.176   0.183   0.191
 41 A'   16 A"   42 A'   43 A'   44 A'   45 A'   46 A'   47 A'                 
  0.194   0.200   0.209   0.212   0.215   0.220   0.233   0.238
 17 A"   48 A'   49 A'   18 A"   50 A'   51 A'   52 A'   53 A'                 
  0.245   0.254   0.256   0.272   0.278   0.292   0.301   0.311
 54 A'   55 A'   56 A'   57 A'   58 A'   59 A'   60 A'   61 A'                 
  0.327   0.349   0.355   0.391   0.427   0.439   0.512   0.573
 62 A'   63 A'   64 A'   65 A'   66 A'   67 A'   68 A'   69 A'                 
  0.618   0.654   0.663   0.679   0.702   0.706   0.714   0.719
 70 A'   19 A"   71 A'   20 A"   21 A"   72 A'   22 A"   73 A'                 
  0.732   0.737   0.754   0.759   0.774   0.783   0.803   0.836
 74 A'   23 A"   75 A'   24 A"   25 A"   76 A'   77 A'   26 A"                 
  0.856   0.870   0.882   0.902   0.911   0.925   0.953   0.959
 78 A'   79 A'   80 A'   81 A'   82 A'   83 A'   27 A"   84 A'                 
  0.984   1.001   1.024   1.026   1.081   1.101   1.107   1.161
 85 A'   86 A'   87 A'   88 A'   89 A'   90 A'   91 A'   92 A'                 
  1.168   1.188   1.213   1.234   1.245   1.307   1.318   1.340
 93 A'   94 A'   95 A'   96 A'   28 A"   97 A'   29 A"   98 A'                 
  1.352   1.392   1.407   1.419   1.463   1.464   1.495   1.505
 30 A"   99 A'  100 A'   31 A"   32 A"   33 A"   34 A"   35 A"                 
  1.520   1.552   1.624   1.752   1.818   1.860   1.873   1.883
101 A'  102 A'  103 A'  104 A'  105 A'  106 A'  107 A'  108 A'                 
  1.887   1.946   1.950   1.998   2.042   2.071   2.114   2.137
 36 A"  109 A'  110 A'   37 A"  111 A'  112 A'  113 A'  114 A'                 
  2.145   2.166   2.222   2.242   2.259   2.285   2.306   2.365
 38 A"  115 A'   39 A"   40 A"   41 A"  116 A'  117 A'   42 A"                 
  2.406   2.424   2.505   2.553   2.615   2.625   2.648   2.664
 43 A"  118 A'  119 A'   44 A"  120 A'  121 A'   45 A"  122 A'                 
  2.708   2.788   2.809   2.836   2.922   2.957   3.061   3.234
123 A'  124 A'  125 A'  126 A'  127 A'  128 A'  129 A'  130 A'                 
  3.402   4.146   4.219   4.250   4.274   4.325   4.369   4.444
131 A'  132 A'  133 A'  134 A'  135 A'  136 A'  137 A'  138 A'                 
  4.485   4.751
139 A'  140 A'                                                                 
 --------------------------------------------------------------
 
          Ground-State Mulliken Net Atomic Charges

     Atom                 Charge (a.u.)
  ----------------------------------------
      1 C                    -0.032405
      2 C                    -0.443257
      3 C                     0.164215
      4 C                    -1.250857
      5 N                    -0.405749
      6 H                     0.418742
      7 C                    -0.205355
      8 C                     0.104809
      9 C                     0.911287
     10 C                    -0.397321
     11 H                     0.185789
     12 H                     0.181275
     13 H                     0.183888
     14 H                     0.197845
     15 H                     0.197260
     16 H                     0.189831
  ----------------------------------------
  Sum of atomic charges =     0.000000

 -----------------------------------------------------------------
                    Cartesian Multipole Moments
 -----------------------------------------------------------------
    Charge (ESU x 10^10)
                -0.0000
    Dipole Moment (Debye)
         X      -1.6166      Y       1.8132      Z       0.0000
       Tot       2.4292
    Quadrupole Moments (Debye-Ang)
        XX     -45.0284     XY      -4.2038     YY     -44.1807
        XZ       0.0000     YZ       0.0000     ZZ     -58.5361
    Octopole Moments (Debye-Ang^2)
       XXX     -15.8230    XXY       9.8875    XYY      -8.8037
       YYY      11.6997    XXZ      -0.0000    XYZ       0.0000
       YYZ      -0.0000    XZZ      -2.2638    YZZ       2.3349
       ZZZ       0.0000
    Hexadecapole Moments (Debye-Ang^3)
      XXXX    -805.5183   XXXY     -23.7304   XXYY    -192.3094
      XYYY     -16.5929   YYYY    -367.5074   XXXZ       0.0000
      XXYZ      -0.0000   XYYZ       0.0000   YYYZ       0.0000
      XXZZ    -186.7542   XYZZ      -2.2807   YYZZ     -93.3382
      XZZZ       0.0000   YZZZ      -0.0000   ZZZZ     -72.1379
 -----------------------------------------------------------------
Archival summary:
1\1\exp-1-30\OPT\ProcedureUnspecified\6-31+G*\187\scaparas\WedJun908:57:232021WedJun908:57:232021\0\\#,OPT,ProcedureUnspecified,6-31+G*,\\0,1\C\C,1,1.37251\H,2,1.08569,1,122.025\N,1,1.39092,2,130.867,3,-0,0\H,4,1.03808,1,127.293,2,-0,0\C,4,1.31557,1,109.681,2,-180,0\H,6,1.08888,4,119.92,1,-180,0\C,2,1.41226,1,116.986,3,-180,0\H,8,1.08771,2,118.288,1,-180,0\C,8,1.39695,2,122.358,1,-0,0\H,10,1.0875,8,119.751,2,-180,0\C,10,1.3882,8,120.381,2,-0,0\H,12,1.08963,10,121.066,8,-180,0\C,12,1.41044,10,118.392,8,-0,0\C,14,1.40087,12,133.158,10,-180,0\H,15,1.08458,14,128.376,12,-0,0\\\@

 Total job time:  1716.03s(wall), 6822.51s(cpu) 
 Wed Jun  9 08:57:23 2021

        *************************************************************
        *                                                           *
        *  Thank you very much for using Q-Chem.  Have a nice day.  *
        *                                                           *
        *************************************************************


