 Entering Gaussian System, Link 0=/opt/gaussian/16.B.01/g16/g16
 Initial command:
 /opt/gaussian/16.B.01/g16/l1.exe "/scratch/gfoley1/16922764/Gau-22270.inp" -scrdir="/scratch/gfoley1/16922764/"
 Entering Link 1 = /opt/gaussian/16.B.01/g16/l1.exe PID=     22271.
  
 Copyright (c) 1988-2017, Gaussian, Inc.  All Rights Reserved.
  
 This is part of the Gaussian(R) 16 program.  It is based on
 the Gaussian(R) 09 system (copyright 2009, Gaussian, Inc.),
 the Gaussian(R) 03 system (copyright 2003, Gaussian, Inc.),
 the Gaussian(R) 98 system (copyright 1998, Gaussian, Inc.),
 the Gaussian(R) 94 system (copyright 1995, Gaussian, Inc.),
 the Gaussian 92(TM) system (copyright 1992, Gaussian, Inc.),
 the Gaussian 90(TM) system (copyright 1990, Gaussian, Inc.),
 the Gaussian 88(TM) system (copyright 1988, Gaussian, Inc.),
 the Gaussian 86(TM) system (copyright 1986, Carnegie Mellon
 University), and the Gaussian 82(TM) system (copyright 1983,
 Carnegie Mellon University). Gaussian is a federally registered
 trademark of Gaussian, Inc.
  
 This software contains proprietary and confidential information,
 including trade secrets, belonging to Gaussian, Inc.
  
 This software is provided under written license and may be
 used, copied, transmitted, or stored only in accord with that
 written license.
  
 The following legend is applicable only to US Government
 contracts under FAR:
  
                    RESTRICTED RIGHTS LEGEND
  
 Use, reproduction and disclosure by the US Government is
 subject to restrictions as set forth in subparagraphs (a)
 and (c) of the Commercial Computer Software - Restricted
 Rights clause in FAR 52.227-19.
  
 Gaussian, Inc.
 340 Quinnipiac St., Bldg. 40, Wallingford CT 06492
  
  
 ---------------------------------------------------------------
 Warning -- This program may not be used in any manner that
 competes with the business of Gaussian, Inc. or will provide
 assistance to any competitor of Gaussian, Inc.  The licensee
 of this program is prohibited from giving any competitor of
 Gaussian, Inc. access to this program.  By using this program,
 the user acknowledges that Gaussian, Inc. is engaged in the
 business of creating and licensing software in the field of
 computational chemistry and represents and warrants to the
 licensee that it is not a competitor of Gaussian, Inc. and that
 it will not use this program in any manner prohibited above.
 ---------------------------------------------------------------
  

 Cite this work as:
 Gaussian 16, Revision B.01,
 M. J. Frisch, G. W. Trucks, H. B. Schlegel, G. E. Scuseria, 
 M. A. Robb, J. R. Cheeseman, G. Scalmani, V. Barone, 
 G. A. Petersson, H. Nakatsuji, X. Li, M. Caricato, A. V. Marenich, 
 J. Bloino, B. G. Janesko, R. Gomperts, B. Mennucci, H. P. Hratchian, 
 J. V. Ortiz, A. F. Izmaylov, J. L. Sonnenberg, D. Williams-Young, 
 F. Ding, F. Lipparini, F. Egidi, J. Goings, B. Peng, A. Petrone, 
 T. Henderson, D. Ranasinghe, V. G. Zakrzewski, J. Gao, N. Rega, 
 G. Zheng, W. Liang, M. Hada, M. Ehara, K. Toyota, R. Fukuda, 
 J. Hasegawa, M. Ishida, T. Nakajima, Y. Honda, O. Kitao, H. Nakai, 
 T. Vreven, K. Throssell, J. A. Montgomery, Jr., J. E. Peralta, 
 F. Ogliaro, M. J. Bearpark, J. J. Heyd, E. N. Brothers, K. N. Kudin, 
 V. N. Staroverov, T. A. Keith, R. Kobayashi, J. Normand, 
 K. Raghavachari, A. P. Rendell, J. C. Burant, S. S. Iyengar, 
 J. Tomasi, M. Cossi, J. M. Millam, M. Klene, C. Adamo, R. Cammi, 
 J. W. Ochterski, R. L. Martin, K. Morokuma, O. Farkas, 
 J. B. Foresman, and D. J. Fox, Gaussian, Inc., Wallingford CT, 2016.
 
 ******************************************
 Gaussian 16:  ES64L-G16RevB.01 20-Dec-2017
                12-Jun-2018 
 ******************************************
 -------------------------------------------------------
 # opt td=(root=1) LC-PBEPBE/6-31+g(d) geom=connectivity
 -------------------------------------------------------
 1/18=20,19=15,26=3,38=1,57=2/1,3;
 2/9=110,12=2,17=6,18=5,40=1/2;
 3/5=1,6=6,7=11,11=9,25=1,30=1,71=1,74=1001009/1,2,3,8;
 4//1;
 5/5=2,38=5/2;
 8/6=1,10=2,107=1/1;
 9/8=1,15=2,42=1,70=2/14;
 10/5=4,28=1/2;
 6/7=2,8=2,9=2,10=2/1;
 7/12=6,13=5,14=1/1,2,3,16;
 1/18=20,19=15,26=3/3(2);
 2/9=110/2;
 99//99;
 2/9=110/2;
 3/5=1,6=6,7=11,11=9,25=1,30=1,71=1,74=1001009/1,2,3,8;
 4/5=5,16=3,69=1/1;
 5/5=2,38=5/2;
 8/6=1,10=2,107=1/1;
 9/8=1,15=2,42=1,49=4,70=2/14;
 10/5=4,28=1/2;
 7/12=6,13=5,14=1/1,2,3,16;
 1/18=20,19=15,26=3/3(-8);
 2/9=110/2;
 6/7=2,8=2,9=2,10=2/1;
 99/9=10/99;
 -------------------
 Title Card Required
 -------------------
 Symbolic Z-matrix:
 Charge =  0 Multiplicity = 1
 C                    -1.33996   2.08881   1.39456 
 H                    -2.21558   2.00585   2.00391 
 C                    -0.01363   2.0067    1.84698 
 H                     0.31448   1.85125   2.8535 
 C                     0.78597   2.16808   0.72372 
 C                     2.17136   2.17152   0.60581 
 C                     2.71529   2.36042  -0.68201 
 C                     1.85973   2.53856  -1.80247 
 C                     0.45733   2.52849  -1.63947 
 C                    -0.044     2.33966  -0.35507 
 H                     2.8014    2.03595   1.45997 
 H                     3.77686   2.3696   -0.81571 
 H                     2.2809    2.68121  -2.7757 
 H                    -0.19771   2.66151  -2.47501 
 N                    -1.32264   2.29058   0.0577 
 H                    -2.12783   2.38732  -0.52738 
 

 GradGradGradGradGradGradGradGradGradGradGradGradGradGradGradGradGradGrad
 Berny optimization.
 Initialization pass.
                           ----------------------------
                           !    Initial Parameters    !
                           ! (Angstroms and Degrees)  !
 --------------------------                            --------------------------
 ! Name  Definition              Value          Derivative Info.                !
 --------------------------------------------------------------------------------
 ! R1    R(1,2)                  1.07           estimate D2E/DX2                !
 ! R2    R(1,3)                  1.4038         estimate D2E/DX2                !
 ! R3    R(1,15)                 1.3521         estimate D2E/DX2                !
 ! R4    R(3,4)                  1.07           estimate D2E/DX2                !
 ! R5    R(3,5)                  1.3882         estimate D2E/DX2                !
 ! R6    R(5,6)                  1.3904         estimate D2E/DX2                !
 ! R7    R(5,10)                 1.3719         estimate D2E/DX2                !
 ! R8    R(6,7)                  1.4107         estimate D2E/DX2                !
 ! R9    R(6,11)                 1.07           estimate D2E/DX2                !
 ! R10   R(7,8)                  1.421          estimate D2E/DX2                !
 ! R11   R(7,12)                 1.07           estimate D2E/DX2                !
 ! R12   R(8,9)                  1.4119         estimate D2E/DX2                !
 ! R13   R(8,13)                 1.07           estimate D2E/DX2                !
 ! R14   R(9,10)                 1.3916         estimate D2E/DX2                !
 ! R15   R(9,14)                 1.07           estimate D2E/DX2                !
 ! R16   R(10,15)                1.3445         estimate D2E/DX2                !
 ! R17   R(15,16)                1.0            estimate D2E/DX2                !
 ! A1    A(2,1,3)              125.8112         estimate D2E/DX2                !
 ! A2    A(2,1,15)             125.8112         estimate D2E/DX2                !
 ! A3    A(3,1,15)             108.3775         estimate D2E/DX2                !
 ! A4    A(1,3,4)              126.9701         estimate D2E/DX2                !
 ! A5    A(1,3,5)              106.0599         estimate D2E/DX2                !
 ! A6    A(4,3,5)              126.9701         estimate D2E/DX2                !
 ! A7    A(3,5,6)              130.0024         estimate D2E/DX2                !
 ! A8    A(3,5,10)             107.5986         estimate D2E/DX2                !
 ! A9    A(6,5,10)             122.399          estimate D2E/DX2                !
 ! A10   A(5,6,7)              117.5116         estimate D2E/DX2                !
 ! A11   A(5,6,11)             121.2442         estimate D2E/DX2                !
 ! A12   A(7,6,11)             121.2442         estimate D2E/DX2                !
 ! A13   A(6,7,8)              120.2968         estimate D2E/DX2                !
 ! A14   A(6,7,12)             119.8516         estimate D2E/DX2                !
 ! A15   A(8,7,12)             119.8516         estimate D2E/DX2                !
 ! A16   A(7,8,9)              120.4065         estimate D2E/DX2                !
 ! A17   A(7,8,13)             119.7968         estimate D2E/DX2                !
 ! A18   A(9,8,13)             119.7968         estimate D2E/DX2                !
 ! A19   A(8,9,10)             117.732          estimate D2E/DX2                !
 ! A20   A(8,9,14)             121.134          estimate D2E/DX2                !
 ! A21   A(10,9,14)            121.134          estimate D2E/DX2                !
 ! A22   A(5,10,9)             121.6541         estimate D2E/DX2                !
 ! A23   A(5,10,15)            109.2304         estimate D2E/DX2                !
 ! A24   A(9,10,15)            129.1154         estimate D2E/DX2                !
 ! A25   A(1,15,10)            108.7335         estimate D2E/DX2                !
 ! A26   A(1,15,16)            125.6332         estimate D2E/DX2                !
 ! A27   A(10,15,16)           125.6332         estimate D2E/DX2                !
 ! D1    D(2,1,3,4)              0.0002         estimate D2E/DX2                !
 ! D2    D(2,1,3,5)           -179.9998         estimate D2E/DX2                !
 ! D3    D(15,1,3,4)           180.0            estimate D2E/DX2                !
 ! D4    D(15,1,3,5)             0.0            estimate D2E/DX2                !
 ! D5    D(2,1,15,10)          179.9998         estimate D2E/DX2                !
 ! D6    D(2,1,15,16)            0.0            estimate D2E/DX2                !
 ! D7    D(3,1,15,10)            0.0            estimate D2E/DX2                !
 ! D8    D(3,1,15,16)         -179.9998         estimate D2E/DX2                !
 ! D9    D(1,3,5,6)            179.9998         estimate D2E/DX2                !
 ! D10   D(1,3,5,10)             0.0            estimate D2E/DX2                !
 ! D11   D(4,3,5,6)             -0.0002         estimate D2E/DX2                !
 ! D12   D(4,3,5,10)          -180.0            estimate D2E/DX2                !
 ! D13   D(3,5,6,7)           -179.9998         estimate D2E/DX2                !
 ! D14   D(3,5,6,11)             0.0001         estimate D2E/DX2                !
 ! D15   D(10,5,6,7)             0.0            estimate D2E/DX2                !
 ! D16   D(10,5,6,11)          179.9998         estimate D2E/DX2                !
 ! D17   D(3,5,10,9)           179.9998         estimate D2E/DX2                !
 ! D18   D(3,5,10,15)            0.0            estimate D2E/DX2                !
 ! D19   D(6,5,10,9)             0.0            estimate D2E/DX2                !
 ! D20   D(6,5,10,15)         -179.9998         estimate D2E/DX2                !
 ! D21   D(5,6,7,8)              0.0            estimate D2E/DX2                !
 ! D22   D(5,6,7,12)          -180.0            estimate D2E/DX2                !
 ! D23   D(11,6,7,8)          -179.9998         estimate D2E/DX2                !
 ! D24   D(11,6,7,12)            0.0002         estimate D2E/DX2                !
 ! D25   D(6,7,8,9)              0.0001         estimate D2E/DX2                !
 ! D26   D(6,7,8,13)          -179.9998         estimate D2E/DX2                !
 ! D27   D(12,7,8,9)          -180.0            estimate D2E/DX2                !
 ! D28   D(12,7,8,13)            0.0001         estimate D2E/DX2                !
 ! D29   D(7,8,9,10)            -0.0001         estimate D2E/DX2                !
 ! D30   D(7,8,9,14)           180.0            estimate D2E/DX2                !
 ! D31   D(13,8,9,10)          179.9998         estimate D2E/DX2                !
 ! D32   D(13,8,9,14)           -0.0001         estimate D2E/DX2                !
 ! D33   D(8,9,10,5)             0.0001         estimate D2E/DX2                !
 ! D34   D(8,9,10,15)          179.9999         estimate D2E/DX2                !
 ! D35   D(14,9,10,5)          180.0            estimate D2E/DX2                !
 ! D36   D(14,9,10,15)          -0.0003         estimate D2E/DX2                !
 ! D37   D(5,10,15,1)            0.0            estimate D2E/DX2                !
 ! D38   D(5,10,15,16)         179.9998         estimate D2E/DX2                !
 ! D39   D(9,10,15,1)         -179.9998         estimate D2E/DX2                !
 ! D40   D(9,10,15,16)           0.0            estimate D2E/DX2                !
 --------------------------------------------------------------------------------
 Trust Radius=3.00D-01 FncErr=1.00D-07 GrdErr=1.00D-06 EigMax=2.50D+02 EigMin=1.00D-04
 Number of steps in this run=     94 maximum allowed number of steps=    100.
 GradGradGradGradGradGradGradGradGradGradGradGradGradGradGradGradGradGrad

                          Input orientation:                          
 ---------------------------------------------------------------------
 Center     Atomic      Atomic             Coordinates (Angstroms)
 Number     Number       Type             X           Y           Z
 ---------------------------------------------------------------------
      1          6           0       -1.339957    2.088809    1.394563
      2          1           0       -2.215576    2.005849    2.003915
      3          6           0       -0.013633    2.006700    1.846980
      4          1           0        0.314483    1.851247    2.853496
      5          6           0        0.785968    2.168085    0.723718
      6          6           0        2.171364    2.171521    0.605815
      7          6           0        2.715289    2.360423   -0.682013
      8          6           0        1.859731    2.538563   -1.802468
      9          6           0        0.457326    2.528493   -1.639472
     10          6           0       -0.043997    2.339664   -0.355067
     11          1           0        2.801396    2.035952    1.459970
     12          1           0        3.776863    2.369605   -0.815709
     13          1           0        2.280895    2.681211   -2.775696
     14          1           0       -0.197713    2.661512   -2.475014
     15          7           0       -1.322636    2.290581    0.057696
     16          1           0       -2.127826    2.387325   -0.527376
 ---------------------------------------------------------------------
                    Distance matrix (angstroms):
                    1          2          3          4          5
     1  C    0.000000
     2  H    1.070000   0.000000
     3  C    1.403766   2.207529   0.000000
     4  H    2.218579   2.673367   1.070000   0.000000
     5  C    2.230667   3.267184   1.388209   2.204231   0.000000
     6  C    3.599770   4.607317   2.518307   2.933027   1.390409
     7  C    4.564095   5.626131   3.737370   4.303829   2.394860
     8  C    4.545469   5.601826   4.136525   4.953604   2.769808
     9  C    3.553719   4.548827   3.556602   4.545968   2.413000
    10  C    2.191722   3.223659   2.227284   3.265261   1.371881
    11  H    4.142207   5.046463   2.841658   2.856705   2.149762
    12  H    5.580860   6.632641   4.646448   5.071473   3.369852
    13  H    5.554509   6.596896   5.204705   6.020250   3.839792
    14  H    4.075087   4.956053   4.375191   5.414045   3.382748
    15  N    1.352119   2.160135   2.235087   3.269506   2.214678
    16  H    2.098500   2.561378   3.201914   4.205062   3.178600
                    6          7          8          9         10
     6  C    0.000000
     7  C    1.410687   0.000000
     8  C    2.455944   1.420962   0.000000
     9  C    2.847222   2.458327   1.411882   0.000000
    10  C    2.420618   2.778666   2.399732   1.391646   0.000000
    11  H    1.070000   2.168130   3.432616   3.917117   3.388637
    12  H    2.153508   1.070000   2.162784   3.423910   3.848644
    13  H    3.421461   2.162200   1.070000   2.154004   3.373607
    14  H    3.917158   3.433815   2.168066   1.070000   2.149742
    15  N    3.538735   4.105713   3.694477   2.470879   1.344507
    16  H    4.451261   4.845657   4.189193   2.817746   2.091484
                   11         12         13         14         15
    11  H    0.000000
    12  H    2.498315   0.000000
    13  H    4.316034   2.485270   0.000000
    14  H    4.986991   4.316916   2.496858   0.000000
    15  N    4.363352   5.174357   4.600667   2.796008   0.000000
    16  H    5.326371   5.911751   4.957633   2.755686   1.000000
                   16
    16  H    0.000000
 Stoichiometry    C8H7N
 Framework group  C1[X(C8H7N)]
 Deg. of freedom    42
 Full point group                 C1      NOp   1
 Largest Abelian subgroup         C1      NOp   1
 Largest concise Abelian subgroup C1      NOp   1
                         Standard orientation:                         
 ---------------------------------------------------------------------
 Center     Atomic      Atomic             Coordinates (Angstroms)
 Number     Number       Type             X           Y           Z
 ---------------------------------------------------------------------
      1          6           0        2.360426    0.032633    0.000001
      2          1           0        3.430401    0.025257    0.000006
      3          6           0        1.546926    1.176650    0.000000
      4          1           0        1.870704    2.196487    0.000001
      5          6           0        0.237186    0.716536   -0.000002
      6          6           0       -0.959088    1.425172   -0.000001
      7          6           0       -2.157408    0.680814    0.000001
      8          6           0       -2.118961   -0.739628    0.000001
      9          6           0       -0.882385   -1.421016    0.000000
     10          6           0        0.279268   -0.654700   -0.000002
     11          1           0       -0.970350    2.495113    0.000002
     12          1           0       -3.099508    1.188107    0.000002
     13          1           0       -3.032773   -1.296266   -0.000001
     14          1           0       -0.839855   -2.490171    0.000001
     15          7           0        1.561740   -1.058388   -0.000000
     16          1           0        1.873421   -2.008575    0.000003
 ---------------------------------------------------------------------
 Rotational constants (GHZ):           3.9201898           1.6790815           1.1755669
 Standard basis: 6-31+G(d) (6D, 7F)
 There are   185 symmetry adapted cartesian basis functions of A   symmetry.
 There are   185 symmetry adapted basis functions of A   symmetry.
   185 basis functions,   316 primitive gaussians,   185 cartesian basis functions
    31 alpha electrons       31 beta electrons
       nuclear repulsion energy       404.0653087300 Hartrees.
 NAtoms=   16 NActive=   16 NUniq=   16 SFac= 1.00D+00 NAtFMM=   60 NAOKFM=F Big=F
 Integral buffers will be    131072 words long.
 Raffenetti 1 integral format.
 Two-electron integral symmetry is turned on.
 One-electron integrals computed using PRISM.
 NBasis=   185 RedAO= T EigKep=  1.24D-06  NBF=   185
 NBsUse=   185 1.00D-06 EigRej= -1.00D+00 NBFU=   185
 ExpMin= 4.38D-02 ExpMax= 4.17D+03 ExpMxC= 6.27D+02 IAcc=3 IRadAn=         5 AccDes= 0.00D+00
 Harris functional with IExCor=11009 and IRadAn=       5 diagonalized for initial guess.
 HarFok:  IExCor=11009 AccDes= 0.00D+00 IRadAn=         5 IDoV= 1 UseB2=F ITyADJ=14
 ICtDFT=  3500011 ScaDFX=  1.000000  1.000000  1.000000  1.000000
 FoFCou: FMM=F IPFlag=           0 FMFlag=      100000 FMFlg1=           0
         NFxFlg=           0 DoJE=T BraDBF=F KetDBF=T FulRan=T
         wScrn=  0.000000 ICntrl=       500 IOpCl=  0 I1Cent=   200000004 NGrid=           0
         NMat0=    1 NMatS0=      1 NMatT0=    0 NMatD0=    1 NMtDS0=    0 NMtDT0=    0
 Petite list used in FoFCou.
 Requested convergence on RMS density matrix=1.00D-08 within 128 cycles.
 Requested convergence on MAX density matrix=1.00D-06.
 Requested convergence on             energy=1.00D-06.
 No special actions if energy rises.
 SCF Done:  E(RLC-PBE+HF-PBE) =  -362.545719151     A.U. after   16 cycles
            NFock= 16  Conv=0.45D-08     -V/T= 2.0086
 DoSCS=F DFT=T ScalE2(SS,OS)=  1.000000  1.000000
 ExpMin= 4.38D-02 ExpMax= 4.17D+03 ExpMxC= 6.27D+02 IAcc=3 IRadAn=         5 AccDes= 0.00D+00
 HarFok:  IExCor=  205 AccDes= 0.00D+00 IRadAn=         5 IDoV=-2 UseB2=F ITyADJ=14
 ICtDFT= 12500011 ScaDFX=  1.000000  1.000000  1.000000  1.000000
 Range of M.O.s used for correlation:    10   185
 NBasis=   185 NAE=    31 NBE=    31 NFC=     9 NFV=     0
 NROrb=    176 NOA=    22 NOB=    22 NVA=   154 NVB=   154

 **** Warning!!: The largest alpha MO coefficient is  0.21359312D+03

 Orbital symmetries:
       Occupied  (A) (A) (A) (A) (A) (A) (A) (A) (A) (A) (A) (A)
                 (A) (A) (A) (A) (A) (A) (A) (A) (A) (A) (A) (A)
                 (A) (A) (A) (A) (A) (A) (A)
       Virtual   (A) (A) (A) (A) (A) (A) (A) (A) (A) (A) (A) (A)
                 (A) (A) (A) (A) (A) (A) (A) (A) (A) (A) (A) (A)
                 (A) (A) (A) (A) (A) (A) (A) (A) (A) (A) (A) (A)
                 (A) (A) (A) (A) (A) (A) (A) (A) (A) (A) (A) (A)
                 (A) (A) (A) (A) (A) (A) (A) (A) (A) (A) (A) (A)
                 (A) (A) (A) (A) (A) (A) (A) (A) (A) (A) (A) (A)
                 (A) (A) (A) (A) (A) (A) (A) (A) (A) (A) (A) (A)
                 (A) (A) (A) (A) (A) (A) (A) (A) (A) (A) (A) (A)
                 (A) (A) (A) (A) (A) (A) (A) (A) (A) (A) (A) (A)
                 (A) (A) (A) (A) (A) (A) (A) (A) (A) (A) (A) (A)
                 (A) (A) (A) (A) (A) (A) (A) (A) (A) (A) (A) (A)
                 (A) (A) (A) (A) (A) (A) (A) (A) (A) (A) (A) (A)
                 (A) (A) (A) (A) (A) (A) (A) (A) (A) (A)
    12 initial guesses have been made.
 Convergence on wavefunction:    0.000001000000000
 Iteration     1 Dimension    12 NMult     0 NNew     12
 CISAX will form    12 AO SS matrices at one time.
 New state      1 was old state      5
 New state      2 was old state      1
 New state      3 was old state      2
 Iteration     2 Dimension    18 NMult    12 NNew      6
 Iteration     3 Dimension    24 NMult    18 NNew      6
 Iteration     4 Dimension    30 NMult    24 NNew      6
 Iteration     5 Dimension    36 NMult    30 NNew      6
 Iteration     6 Dimension    42 NMult    36 NNew      6
 Iteration     7 Dimension    48 NMult    42 NNew      6
 Iteration     8 Dimension    54 NMult    48 NNew      6
 Iteration     9 Dimension    60 NMult    54 NNew      6
 Iteration    10 Dimension    66 NMult    60 NNew      6
 Iteration    11 Dimension    72 NMult    66 NNew      6
 Iteration    12 Dimension    78 NMult    72 NNew      6
 Iteration    13 Dimension    80 NMult    78 NNew      2
 ***********************************************************************
 Excited states from <AA,BB:AA,BB> singles matrix:
 ***********************************************************************
 
 Ground to excited state transition densities written to RWF  633
 Ground to excited state transition electric dipole moments (Au):
       state          X           Y           Z        Dip. S.      Osc.
         1        -0.9030      0.6888     -0.0000      1.2899      0.1635
         2        -0.2668     -0.4366      0.0000      0.2618      0.0337
         3         0.0000     -0.0000     -0.2223      0.0494      0.0074
 Ground to excited state transition velocity dipole moments (Au):
       state          X           Y           Z        Dip. S.      Osc.
         1         0.1580     -0.1385      0.0000      0.0441      0.1548
         2         0.0494      0.0882     -0.0000      0.0102      0.0353
         3        -0.0000      0.0000      0.0415      0.0017      0.0051
 Ground to excited state transition magnetic dipole moments (Au):
       state          X           Y           Z
         1         0.0000      0.0000      0.1977
         2        -0.0000     -0.0000     -0.1198
         3         0.1348     -0.1955      0.0000
 Ground to excited state transition velocity quadrupole moments (Au):
       state          XX          YY          ZZ          XY          XZ          YZ
         1         0.2651     -0.1930      0.0203      0.0004     -0.0000      0.0000
         2        -0.0495     -0.0528      0.0114     -0.0096     -0.0000     -0.0000
         3        -0.0000      0.0000      0.0000      0.0000      0.1725      0.0515
 <0|del|b> * <b|rxdel|0> + <0|del|b> * <b|delr+rdel|0>
 Rotatory Strengths (R) in cgs (10**-40 erg-esu-cm/Gauss)
       state          XX          YY          ZZ    R(velocity)    E-M Angle
         1        -0.0000      0.0007      0.0004      0.0003       90.00
         2         0.0001     -0.0000     -0.0001     -0.0000       90.00
         3         0.0003     -0.0000     -0.0001      0.0001       90.00
 1/2[<0|r|b>*<b|rxdel|0> + (<0|rxdel|b>*<b|r|0>)*]
 Rotatory Strengths (R) in cgs (10**-40 erg-esu-cm/Gauss)
       state          XX          YY          ZZ     R(length)
         1         0.0011     -0.0001      0.0001      0.0004
         2        -0.0001     -0.0000      0.0001     -0.0000
         3        -0.0003     -0.0000      0.0006      0.0001
  1/2[<0|del|b>*<b|r|0> + (<0|r|b>*<b|del|0>)*] (Au)
       state          X           Y           Z        Dip. S.   Osc.(frdel)
         1        -0.1427     -0.0954     -0.0000      0.2381      0.1587
         2        -0.0132     -0.0385     -0.0000      0.0517      0.0345
         3        -0.0000     -0.0000     -0.0092      0.0092      0.0062

 Excitation energies and oscillator strengths:
 
 Excited State   1:      Singlet-A      5.1723 eV  239.71 nm  f=0.1635  <S**2>=0.000
      30 -> 32         0.10048
      30 -> 38         0.17597
      31 -> 32         0.65511
      31 -> 38        -0.10666
 This state for optimization and/or second-order correction.
 Total Energy, E(TD-HF/TD-DFT) =  -362.355639430    
 Copying the excited state density for this state as the 1-particle RhoCI density.
 
 Excited State   2:      Singlet-A      5.2594 eV  235.74 nm  f=0.0337  <S**2>=0.000
      30 -> 32         0.56696
      31 -> 32        -0.13817
      31 -> 38        -0.33618
 
 Excited State   3:      Singlet-A      6.0780 eV  203.99 nm  f=0.0074  <S**2>=0.000
      31 -> 33         0.65429
      31 -> 40        -0.12362
 SavETr:  write IOETrn=   770 NScale= 10 NData=  16 NLR=1 NState=    3 LETran=      64.
          IDoAtm=1111111111111111
          Differentiating once with respect to electric field.
                with respect to dipole field.
          Differentiating once with respect to nuclear coordinates.
          There are     1 degrees of freedom in the 1st order CPHF.  IDoFFX=0 NUNeed=     1.
 LinEq1:  Iter=  0 NonCon=     1 RMS=4.30D-03 Max=7.44D-02 NDo=     1
 AX will form     1 AO Fock derivatives at one time.
 LinEq1:  Iter=  1 NonCon=     1 RMS=1.93D-03 Max=6.11D-02 NDo=     1
 LinEq1:  Iter=  2 NonCon=     1 RMS=6.18D-04 Max=1.17D-02 NDo=     1
 LinEq1:  Iter=  3 NonCon=     1 RMS=3.65D-04 Max=1.26D-02 NDo=     1
 LinEq1:  Iter=  4 NonCon=     1 RMS=1.46D-04 Max=3.86D-03 NDo=     1
 LinEq1:  Iter=  5 NonCon=     1 RMS=5.59D-05 Max=1.74D-03 NDo=     1
 LinEq1:  Iter=  6 NonCon=     1 RMS=2.62D-05 Max=7.71D-04 NDo=     1
 LinEq1:  Iter=  7 NonCon=     1 RMS=1.18D-05 Max=2.31D-04 NDo=     1
 LinEq1:  Iter=  8 NonCon=     1 RMS=4.91D-06 Max=1.21D-04 NDo=     1
 LinEq1:  Iter=  9 NonCon=     1 RMS=1.57D-06 Max=3.19D-05 NDo=     1
 LinEq1:  Iter= 10 NonCon=     1 RMS=8.22D-07 Max=2.10D-05 NDo=     1
 LinEq1:  Iter= 11 NonCon=     1 RMS=2.76D-07 Max=7.30D-06 NDo=     1
 LinEq1:  Iter= 12 NonCon=     1 RMS=1.20D-07 Max=2.12D-06 NDo=     1
 LinEq1:  Iter= 13 NonCon=     1 RMS=3.89D-08 Max=7.48D-07 NDo=     1
 LinEq1:  Iter= 14 NonCon=     1 RMS=9.84D-09 Max=1.44D-07 NDo=     1
 LinEq1:  Iter= 15 NonCon=     1 RMS=4.44D-09 Max=6.69D-08 NDo=     1
 LinEq1:  Iter= 16 NonCon=     1 RMS=1.09D-09 Max=1.68D-08 NDo=     1
 LinEq1:  Iter= 17 NonCon=     1 RMS=2.68D-10 Max=5.75D-09 NDo=     1
 LinEq1:  Iter= 18 NonCon=     1 RMS=1.21D-10 Max=2.06D-09 NDo=     1
 LinEq1:  Iter= 19 NonCon=     0 RMS=2.86D-11 Max=5.77D-10 NDo=     1
 Linear equations converged to 1.000D-10 1.000D-09 after    19 iterations.
 End of Minotr F.D. properties file   721 does not exist.
 End of Minotr F.D. properties file   722 does not exist.
 End of Minotr F.D. properties file   788 does not exist.

 **********************************************************************

            Population analysis using the SCF Density.

 **********************************************************************

 Orbital symmetries:
       Occupied  (A) (A) (A) (A) (A) (A) (A) (A) (A) (A) (A) (A)
                 (A) (A) (A) (A) (A) (A) (A) (A) (A) (A) (A) (A)
                 (A) (A) (A) (A) (A) (A) (A)
       Virtual   (A) (A) (A) (A) (A) (A) (A) (A) (A) (A) (A) (A)
                 (A) (A) (A) (A) (A) (A) (A) (A) (A) (A) (A) (A)
                 (A) (A) (A) (A) (A) (A) (A) (A) (A) (A) (A) (A)
                 (A) (A) (A) (A) (A) (A) (A) (A) (A) (A) (A) (A)
                 (A) (A) (A) (A) (A) (A) (A) (A) (A) (A) (A) (A)
                 (A) (A) (A) (A) (A) (A) (A) (A) (A) (A) (A) (A)
                 (A) (A) (A) (A) (A) (A) (A) (A) (A) (A) (A) (A)
                 (A) (A) (A) (A) (A) (A) (A) (A) (A) (A) (A) (A)
                 (A) (A) (A) (A) (A) (A) (A) (A) (A) (A) (A) (A)
                 (A) (A) (A) (A) (A) (A) (A) (A) (A) (A) (A) (A)
                 (A) (A) (A) (A) (A) (A) (A) (A) (A) (A) (A) (A)
                 (A) (A) (A) (A) (A) (A) (A) (A) (A) (A) (A) (A)
                 (A) (A) (A) (A) (A) (A) (A) (A) (A) (A)
 The electronic state is 1-A.
 Alpha  occ. eigenvalues --  -14.28912 -10.17095 -10.16154 -10.13940 -10.13643
 Alpha  occ. eigenvalues --  -10.13324 -10.13104 -10.12233 -10.11772  -1.18329
 Alpha  occ. eigenvalues --   -1.02422  -0.96506  -0.91151  -0.88454  -0.79435
 Alpha  occ. eigenvalues --   -0.75970  -0.74132  -0.69945  -0.63534  -0.61650
 Alpha  occ. eigenvalues --   -0.59199  -0.58260  -0.57351  -0.54410  -0.52792
 Alpha  occ. eigenvalues --   -0.48333  -0.47653  -0.46825  -0.40799  -0.33545
 Alpha  occ. eigenvalues --   -0.30653
 Alpha virt. eigenvalues --    0.05425   0.05431   0.07287   0.07774   0.08959
 Alpha virt. eigenvalues --    0.09400   0.10045   0.11349   0.11662   0.11788
 Alpha virt. eigenvalues --    0.12430   0.12599   0.14757   0.15504   0.15670
 Alpha virt. eigenvalues --    0.15988   0.17705   0.18849   0.20302   0.20436
 Alpha virt. eigenvalues --    0.21404   0.21861   0.22716   0.23316   0.23880
 Alpha virt. eigenvalues --    0.25096   0.25358   0.25856   0.26770   0.27155
 Alpha virt. eigenvalues --    0.28152   0.28723   0.29374   0.30054   0.30731
 Alpha virt. eigenvalues --    0.31106   0.31645   0.32650   0.32862   0.33467
 Alpha virt. eigenvalues --    0.35216   0.35697   0.37831   0.38612   0.39630
 Alpha virt. eigenvalues --    0.41015   0.41223   0.42709   0.45673   0.46647
 Alpha virt. eigenvalues --    0.47818   0.51204   0.55569   0.57641   0.63642
 Alpha virt. eigenvalues --    0.70708   0.75804   0.79037   0.79088   0.81780
 Alpha virt. eigenvalues --    0.83615   0.83728   0.85381   0.85680   0.86256
 Alpha virt. eigenvalues --    0.87224   0.89455   0.89562   0.91537   0.91911
 Alpha virt. eigenvalues --    0.93972   0.97616   1.01312   1.01731   1.04334
 Alpha virt. eigenvalues --    1.06973   1.07925   1.08363   1.08651   1.12090
 Alpha virt. eigenvalues --    1.12469   1.15714   1.17676   1.19023   1.21015
 Alpha virt. eigenvalues --    1.24059   1.25178   1.29668   1.30553   1.33561
 Alpha virt. eigenvalues --    1.35844   1.36738   1.37328   1.44697   1.45396
 Alpha virt. eigenvalues --    1.48509   1.50230   1.55107   1.56459   1.59013
 Alpha virt. eigenvalues --    1.60029   1.60947   1.63405   1.64482   1.67179
 Alpha virt. eigenvalues --    1.73087   1.79270   1.93734   1.99423   2.05182
 Alpha virt. eigenvalues --    2.06528   2.08633   2.10915   2.14318   2.16368
 Alpha virt. eigenvalues --    2.17019   2.20758   2.26408   2.27565   2.30312
 Alpha virt. eigenvalues --    2.32437   2.34670   2.38580   2.39558   2.40765
 Alpha virt. eigenvalues --    2.45162   2.47038   2.52598   2.55871   2.62373
 Alpha virt. eigenvalues --    2.71950   2.74022   2.77063   2.79839   2.82488
 Alpha virt. eigenvalues --    2.84243   2.87354   2.98023   2.99007   2.99931
 Alpha virt. eigenvalues --    3.08845   3.13455   3.28829   3.42484   3.61341
 Alpha virt. eigenvalues --    4.30403   4.38353   4.41820   4.45304   4.50212
 Alpha virt. eigenvalues --    4.54349   4.61484   4.65967   4.93608
          Condensed to atoms (all electrons):
               1          2          3          4          5          6
     1  C    5.963274   0.314729  -1.102341  -0.028708   1.522082   0.686106
     2  H    0.314729   0.452148   0.040728  -0.000409  -0.107410  -0.025380
     3  C   -1.102341   0.040728  10.271238   0.314312  -4.016590  -2.846050
     4  H   -0.028708  -0.000409   0.314312   0.460738  -0.021138  -0.002842
     5  C    1.522082  -0.107410  -4.016590  -0.021138  14.380845   0.638905
     6  C    0.686106  -0.025380  -2.846050  -0.002842   0.638905  11.151492
     7  C   -0.060006   0.001530   0.033954   0.004029  -0.019418   0.181735
     8  C    0.029711   0.000079  -0.195827   0.001600  -0.838914   0.676837
     9  C   -0.970414   0.037367   2.430727   0.001943  -3.808933  -2.638983
    10  C   -0.665696   0.114080   1.814226   0.033494  -4.387632  -1.568358
    11  H    0.003937  -0.000002  -0.022335   0.001532   0.096206   0.190657
    12  H    0.000380  -0.000000   0.004524  -0.000002   0.023727  -0.002370
    13  H    0.001209  -0.000000   0.001022   0.000000   0.023316  -0.008517
    14  H    0.006365   0.000001  -0.001519   0.000002  -0.001578  -0.011865
    15  N    0.567009  -0.058244  -0.688528   0.006453   0.826667   0.196922
    16  H   -0.001935  -0.002065  -0.023411  -0.000071   0.224217   0.034257
               7          8          9         10         11         12
     1  C   -0.060006   0.029711  -0.970414  -0.665696   0.003937   0.000380
     2  H    0.001530   0.000079   0.037367   0.114080  -0.000002  -0.000000
     3  C    0.033954  -0.195827   2.430727   1.814226  -0.022335   0.004524
     4  H    0.004029   0.001600   0.001943   0.033494   0.001532  -0.000002
     5  C   -0.019418  -0.838914  -3.808933  -4.387632   0.096206   0.023727
     6  C    0.181735   0.676837  -2.638983  -1.568358   0.190657  -0.002370
     7  C    5.500468   0.343699   0.283484  -0.469491   0.033642   0.275305
     8  C    0.343699   5.606706   0.264569   0.304042   0.000496   0.017379
     9  C    0.283484   0.264569  11.444589  -0.396110  -0.021618   0.008173
    10  C   -0.469491   0.304042  -0.396110  12.640891   0.021334  -0.011605
    11  H    0.033642   0.000496  -0.021618   0.021334   0.473442  -0.002282
    12  H    0.275305   0.017379   0.008173  -0.011605  -0.002282   0.473690
    13  H    0.022783   0.261441   0.019356  -0.004146  -0.000111  -0.002790
    14  H   -0.001425   0.059906   0.181767   0.077136   0.000014  -0.000116
    15  N   -0.025050  -0.002266  -0.542734  -0.310849  -0.000533   0.000289
    16  H   -0.003409  -0.008842  -0.168043  -0.100905   0.000004  -0.000000
              13         14         15         16
     1  C    0.001209   0.006365   0.567009  -0.001935
     2  H   -0.000000   0.000001  -0.058244  -0.002065
     3  C    0.001022  -0.001519  -0.688528  -0.023411
     4  H    0.000000   0.000002   0.006453  -0.000071
     5  C    0.023316  -0.001578   0.826667   0.224217
     6  C   -0.008517  -0.011865   0.196922   0.034257
     7  C    0.022783  -0.001425  -0.025050  -0.003409
     8  C    0.261441   0.059906  -0.002266  -0.008842
     9  C    0.019356   0.181767  -0.542734  -0.168043
    10  C   -0.004146   0.077136  -0.310849  -0.100905
    11  H   -0.000111   0.000014  -0.000533   0.000004
    12  H   -0.002790  -0.000116   0.000289  -0.000000
    13  H    0.471536  -0.002649  -0.000418  -0.000002
    14  H   -0.002649   0.483728  -0.007566   0.001901
    15  N   -0.000418  -0.007566   7.222002   0.291776
    16  H   -0.000002   0.001901   0.291776   0.313973
 Mulliken charges:
               1
     1  C   -0.265700
     2  H    0.232849
     3  C   -0.014129
     4  H    0.229068
     5  C    1.465647
     6  C   -0.652546
     7  C   -0.101830
     8  C   -0.520616
     9  C   -0.125140
    10  C   -1.090409
    11  H    0.225618
    12  H    0.215698
    13  H    0.217970
    14  H    0.215897
    15  N   -0.474930
    16  H    0.442554
 Sum of Mulliken charges =  -0.00000
 Mulliken charges with hydrogens summed into heavy atoms:
               1
     1  C   -0.032851
     3  C    0.214939
     5  C    1.465647
     6  C   -0.426928
     7  C    0.113868
     8  C   -0.302646
     9  C    0.090757
    10  C   -1.090409
    15  N   -0.032376
 Electronic spatial extent (au):  <R**2>=            988.8687
 Charge=             -0.0000 electrons
 Dipole moment (field-independent basis, Debye):
    X=              1.5650    Y=             -1.6238    Z=              0.0000  Tot=              2.2552
 Quadrupole moment (field-independent basis, Debye-Ang):
   XX=            -44.3820   YY=            -43.1889   ZZ=            -58.4887
   XY=             -3.4345   XZ=              0.0000   YZ=             -0.0000
 Traceless Quadrupole moment (field-independent basis, Debye-Ang):
   XX=              4.3045   YY=              5.4977   ZZ=             -9.8022
   XY=             -3.4345   XZ=              0.0000   YZ=             -0.0000
 Octapole moment (field-independent basis, Debye-Ang**2):
  XXX=             14.0091  YYY=             -9.9339  ZZZ=              0.0000  XYY=              7.8363
  XXY=             -8.2841  XXZ=              0.0001  XZZ=              2.3537  YZZ=             -2.0573
  YYZ=              0.0001  XYZ=             -0.0000
 Hexadecapole moment (field-independent basis, Debye-Ang**3):
 XXXX=           -775.4714 YYYY=           -355.8275 ZZZZ=            -69.8934 XXXY=            -19.9361
 XXXZ=              0.0004 YYYX=            -20.8706 YYYZ=              0.0000 ZZZX=              0.0000
 ZZZY=              0.0000 XXYY=           -189.3454 XXZZ=           -183.6115 YYZZ=            -91.8105
 XXYZ=              0.0000 YYXZ=              0.0001 ZZXY=             -4.2420
 N-N= 4.040653087300D+02 E-N=-1.649938833284D+03  KE= 3.594626126686D+02
 Calling FoFJK, ICntrl=  10005127 FMM=F ISym2X=0 I1Cent= 0 IOpClX= 0 NMat=1 NMatS=1 NMatT=0.
 ***** Axes restored to original set *****
 -------------------------------------------------------------------
 Center     Atomic                   Forces (Hartrees/Bohr)
 Number     Number              X              Y              Z
 -------------------------------------------------------------------
      1        6          -0.005850981    0.000805082   -0.004926309
      2        1          -0.012650393    0.000412680   -0.001863176
      3        6           0.001719989    0.003288205   -0.021886208
      4        1           0.000367012   -0.001416583    0.009352238
      5        6          -0.002819047   -0.006139489    0.040835844
      6        6           0.026821601    0.003157746   -0.022744990
      7        6          -0.034551360    0.004018495   -0.024228464
      8        6           0.034960149   -0.007288396    0.045845050
      9        6          -0.019210932   -0.001736910    0.012816696
     10        6           0.022989622    0.007756491   -0.052924420
     11        1           0.006359469   -0.001441637    0.009106031
     12        1           0.011240282    0.000309293   -0.002819452
     13        1           0.004604873    0.001563441   -0.010665471
     14        1          -0.006794441    0.001582040   -0.010005602
     15        7          -0.019293373   -0.005757977    0.039441227
     16        1          -0.007892470    0.000887518   -0.005332993
 -------------------------------------------------------------------
 Cartesian Forces:  Max     0.052924420 RMS     0.017948849

 GradGradGradGradGradGradGradGradGradGradGradGradGradGradGradGradGradGrad
 Berny optimization.
 FormGI is forming the generalized inverse of G from B-inverse, IUseBI=4.
 Internal  Forces:  Max     0.034085698 RMS     0.009074042
 Search for a local minimum.
 Step number   1 out of a maximum of   94
 All quantities printed in internal units (Hartrees-Bohrs-Radians)
 Mixed Optimization -- RFO/linear search
 Second derivative matrix not updated -- first step.
 ITU=  0
     Eigenvalues ---    0.01860   0.01895   0.01902   0.02068   0.02080
     Eigenvalues ---    0.02086   0.02127   0.02200   0.02213   0.02278
     Eigenvalues ---    0.02323   0.02358   0.02380   0.16000   0.16000
     Eigenvalues ---    0.16000   0.16000   0.16000   0.16000   0.16000
     Eigenvalues ---    0.22000   0.22203   0.22697   0.24057   0.24673
     Eigenvalues ---    0.37230   0.37230   0.37230   0.37230   0.37230
     Eigenvalues ---    0.37230   0.38960   0.40898   0.41789   0.43284
     Eigenvalues ---    0.43732   0.46001   0.46371   0.47688   0.47929
     Eigenvalues ---    0.52579   0.54391
 RFO step:  Lambda=-1.68269958D-02 EMin= 1.86035355D-02
 Linear search not attempted -- first point.
 Iteration  1 RMS(Cart)=  0.03519888 RMS(Int)=  0.00045423
 Iteration  2 RMS(Cart)=  0.00053947 RMS(Int)=  0.00007416
 Iteration  3 RMS(Cart)=  0.00000025 RMS(Int)=  0.00007416
 Variable       Old X    -DE/DX   Delta X   Delta X   Delta X     New X
                                 (Linear)    (Quad)   (Total)
    R1        2.02201   0.00926   0.00000   0.02379   0.02379   2.04580
    R2        2.65273   0.01354   0.00000   0.02305   0.02291   2.67564
    R3        2.55513  -0.01387   0.00000  -0.02759  -0.02773   2.52741
    R4        2.02201   0.00912   0.00000   0.02343   0.02343   2.04543
    R5        2.62333   0.00381   0.00000   0.00776   0.00781   2.63114
    R6        2.62749   0.02924   0.00000   0.06296   0.06296   2.69045
    R7        2.59248   0.02508   0.00000   0.05783   0.05810   2.65058
    R8        2.66581  -0.00317   0.00000  -0.00897  -0.00908   2.65674
    R9        2.02201   0.01120   0.00000   0.02877   0.02877   2.05078
   R10        2.68523  -0.03409   0.00000  -0.08293  -0.08302   2.60221
   R11        2.02201   0.01151   0.00000   0.02957   0.02957   2.05158
   R12        2.66807   0.02020   0.00000   0.04119   0.04119   2.70926
   R13        2.02201   0.01172   0.00000   0.03012   0.03012   2.05213
   R14        2.62983  -0.01076   0.00000  -0.02008  -0.01997   2.60986
   R15        2.02201   0.01217   0.00000   0.03127   0.03127   2.05328
   R16        2.54075   0.03387   0.00000   0.06149   0.06154   2.60229
   R17        1.88973   0.00956   0.00000   0.01936   0.01936   1.90909
    A1        2.19582   0.00999   0.00000   0.06229   0.06240   2.25822
    A2        2.19582  -0.00786   0.00000  -0.03865  -0.03854   2.15728
    A3        1.89154  -0.00213   0.00000  -0.02364  -0.02386   1.86769
    A4        2.21605  -0.00837   0.00000  -0.03480  -0.03478   2.18127
    A5        1.85109   0.01159   0.00000   0.04043   0.04039   1.89148
    A6        2.21605  -0.00322   0.00000  -0.00563  -0.00561   2.21043
    A7        2.26897   0.01803   0.00000   0.05354   0.05335   2.32232
    A8        1.87795  -0.00719   0.00000  -0.02381  -0.02363   1.85432
    A9        2.13627  -0.01084   0.00000  -0.02973  -0.02972   2.10655
   A10        2.05096  -0.00206   0.00000  -0.00370  -0.00377   2.04719
   A11        2.11611   0.00074   0.00000   0.00020   0.00024   2.11635
   A12        2.11611   0.00132   0.00000   0.00349   0.00353   2.11964
   A13        2.09958   0.00574   0.00000   0.01240   0.01225   2.11182
   A14        2.09180  -0.00144   0.00000   0.00186   0.00194   2.09374
   A15        2.09181  -0.00429   0.00000  -0.01426  -0.01418   2.07762
   A16        2.10149   0.01139   0.00000   0.03368   0.03364   2.13513
   A17        2.09085  -0.00568   0.00000  -0.01678  -0.01676   2.07409
   A18        2.09085  -0.00570   0.00000  -0.01690  -0.01688   2.07397
   A19        2.05481  -0.00559   0.00000  -0.02376  -0.02361   2.03121
   A20        2.11419   0.00196   0.00000   0.00715   0.00707   2.12125
   A21        2.11419   0.00363   0.00000   0.01662   0.01654   2.13073
   A22        2.12327   0.00137   0.00000   0.01110   0.01121   2.13448
   A23        1.90643  -0.00916   0.00000  -0.02456  -0.02444   1.88200
   A24        2.25349   0.00779   0.00000   0.01346   0.01322   2.26671
   A25        1.89776   0.00689   0.00000   0.03157   0.03153   1.92929
   A26        2.19271  -0.00376   0.00000  -0.01754  -0.01752   2.17520
   A27        2.19271  -0.00314   0.00000  -0.01403  -0.01401   2.17870
    D1        0.00000  -0.00000   0.00000  -0.00000  -0.00000   0.00000
    D2       -3.14159  -0.00000   0.00000  -0.00000  -0.00000  -3.14159
    D3        3.14159   0.00000   0.00000   0.00000   0.00000  -3.14159
    D4       -0.00000   0.00000   0.00000   0.00000   0.00000   0.00000
    D5        3.14159   0.00000   0.00000   0.00000   0.00000   3.14159
    D6        0.00000   0.00000   0.00000   0.00000   0.00000   0.00000
    D7        0.00000  -0.00000   0.00000  -0.00000  -0.00000  -0.00000
    D8       -3.14159  -0.00000   0.00000  -0.00000  -0.00000  -3.14159
    D9        3.14159   0.00000   0.00000   0.00000   0.00000   3.14159
   D10        0.00000  -0.00000   0.00000  -0.00000  -0.00000   0.00000
   D11       -0.00000   0.00000   0.00000   0.00000   0.00000  -0.00000
   D12       -3.14159  -0.00000   0.00000  -0.00000  -0.00000  -3.14159
   D13       -3.14159  -0.00000   0.00000  -0.00000  -0.00000  -3.14159
   D14        0.00000   0.00000   0.00000   0.00000   0.00000   0.00000
   D15       -0.00000   0.00000   0.00000  -0.00000  -0.00000  -0.00000
   D16        3.14159   0.00000   0.00000   0.00000   0.00000   3.14159
   D17        3.14159   0.00000   0.00000   0.00000   0.00000   3.14159
   D18       -0.00000   0.00000   0.00000   0.00000   0.00000  -0.00000
   D19       -0.00000  -0.00000   0.00000  -0.00000  -0.00000  -0.00000
   D20       -3.14159  -0.00000   0.00000  -0.00000  -0.00000  -3.14159
   D21       -0.00000   0.00000   0.00000   0.00000   0.00000   0.00000
   D22       -3.14159   0.00000   0.00000   0.00000   0.00000  -3.14159
   D23       -3.14159  -0.00000   0.00000  -0.00000  -0.00000  -3.14159
   D24        0.00000  -0.00000   0.00000  -0.00000  -0.00000   0.00000
   D25        0.00000  -0.00000   0.00000  -0.00000  -0.00000   0.00000
   D26       -3.14159  -0.00000   0.00000  -0.00000  -0.00000  -3.14159
   D27       -3.14159  -0.00000   0.00000  -0.00000  -0.00000  -3.14159
   D28        0.00000  -0.00000   0.00000  -0.00000  -0.00000   0.00000
   D29       -0.00000   0.00000   0.00000   0.00000   0.00000  -0.00000
   D30        3.14159  -0.00000   0.00000   0.00000   0.00000   3.14159
   D31        3.14159   0.00000   0.00000   0.00000   0.00000   3.14159
   D32       -0.00000   0.00000   0.00000   0.00000   0.00000  -0.00000
   D33        0.00000   0.00000   0.00000   0.00000   0.00000   0.00000
   D34        3.14159   0.00000   0.00000   0.00000   0.00000   3.14159
   D35        3.14159   0.00000   0.00000   0.00000   0.00000  -3.14159
   D36       -0.00000   0.00000   0.00000   0.00000   0.00000  -0.00000
   D37        0.00000   0.00000   0.00000   0.00000   0.00000   0.00000
   D38        3.14159   0.00000   0.00000   0.00000   0.00000   3.14159
   D39       -3.14159  -0.00000   0.00000  -0.00000  -0.00000  -3.14159
   D40        0.00000   0.00000   0.00000   0.00000   0.00000   0.00000
         Item               Value     Threshold  Converged?
 Maximum Force            0.034086     0.000450     NO 
 RMS     Force            0.009074     0.000300     NO 
 Maximum Displacement     0.145847     0.001800     NO 
 RMS     Displacement     0.035009     0.001200     NO 
 Predicted change in Energy=-8.785920D-03
 GradGradGradGradGradGradGradGradGradGradGradGradGradGradGradGradGradGrad

                          Input orientation:                          
 ---------------------------------------------------------------------
 Center     Atomic      Atomic             Coordinates (Angstroms)
 Number     Number       Type             X           Y           Z
 ---------------------------------------------------------------------
      1          6           0       -1.374636    2.087127    1.408080
      2          1           0       -2.291476    2.010455    1.978633
      3          6           0       -0.031938    2.006418    1.850106
      4          1           0        0.275166    1.848270    2.875903
      5          6           0        0.803384    2.164324    0.747420
      6          6           0        2.218730    2.172901    0.593429
      7          6           0        2.724918    2.363677   -0.704218
      8          6           0        1.879128    2.534569   -1.777366
      9          6           0        0.452276    2.528285   -1.637746
     10          6           0       -0.038489    2.340436   -0.360548
     11          1           0        2.878575    2.037517    1.444306
     12          1           0        3.797561    2.377766   -0.871163
     13          1           0        2.308056    2.679233   -2.764463
     14          1           0       -0.203141    2.664378   -2.493607
     15          7           0       -1.340021    2.286482    0.086028
     16          1           0       -2.156117    2.383701   -0.501456
 ---------------------------------------------------------------------
                    Distance matrix (angstroms):
                    1          2          3          4          5
     1  C    0.000000
     2  H    1.082592   0.000000
     3  C    1.415888   2.263194   0.000000
     4  H    2.221127   2.723793   1.082397   0.000000
     5  C    2.277324   3.334325   1.392342   2.215705   0.000000
     6  C    3.685552   4.720926   2.583111   3.015380   1.423725
     7  C    4.620025   5.699707   3.775243   4.368546   2.416462
     8  C    4.575397   5.637035   4.133966   4.969569   2.769269
     9  C    3.579007   4.568865   3.559765   4.568022   2.438188
    10  C    2.231032   3.264446   2.235756   3.288651   1.402626
    11  H    4.253654   5.197659   2.938831   2.977083   2.192749
    12  H    5.659597   6.732951   4.712565   5.169926   3.410346
    13  H    5.596689   6.640777   5.217519   6.052840   3.855190
    14  H    4.114460   4.978925   4.396597   5.452197   3.430364
    15  N    1.337447   2.136214   2.213931   3.253347   2.246452
    16  H    2.084465   2.511668   3.191288   4.195757   3.219699
                    6          7          8          9         10
     6  C    0.000000
     7  C    1.405884   0.000000
     8  C    2.422149   1.377030   0.000000
     9  C    2.867892   2.462412   1.433681   0.000000
    10  C    2.456254   2.784792   2.392136   1.381076   0.000000
    11  H    1.085226   2.178565   3.409564   3.953078   3.443620
    12  H    2.163263   1.085648   2.127481   3.435292   3.870064
    13  H    3.397027   2.125549   1.085941   2.176280   3.376369
    14  H    3.954339   3.444686   2.205832   1.086549   2.163790
    15  N    3.596536   4.141760   3.727829   2.498439   1.377072
    16  H    4.514698   4.885285   4.234845   2.848820   2.122751
                   11         12         13         14         15
    11  H    0.000000
    12  H    2.514299   0.000000
    13  H    4.295466   2.427775   0.000000
    14  H    5.039552   4.326671   2.525806   0.000000
    15  N    4.438857   5.226786   4.646291   2.844261   0.000000
    16  H    5.408692   5.965148   5.013719   2.803848   1.010247
                   16
    16  H    0.000000
 Stoichiometry    C8H7N
 Framework group  C1[X(C8H7N)]
 Deg. of freedom    42
 Full point group                 C1      NOp   1
 Largest Abelian subgroup         C1      NOp   1
 Largest concise Abelian subgroup C1      NOp   1
                         Standard orientation:                         
 ---------------------------------------------------------------------
 Center     Atomic      Atomic             Coordinates (Angstroms)
 Number     Number       Type             X           Y           Z
 ---------------------------------------------------------------------
      1          6           0        2.394541    0.051356    0.000001
      2          1           0        3.476046    0.002848    0.000004
      3          6           0        1.546030    1.184832    0.000000
      4          1           0        1.884178    2.213053    0.000001
      5          6           0        0.225210    0.744323   -0.000002
      6          6           0       -1.026023    1.423594   -0.000000
      7          6           0       -2.188696    0.633215    0.000001
      8          6           0       -2.111609   -0.741656    0.000001
      9          6           0       -0.859197   -1.439441    0.000001
     10          6           0        0.279039   -0.657270   -0.000002
     11          1           0       -1.078302    2.507560    0.000002
     12          1           0       -3.165879    1.106231    0.000001
     13          1           0       -3.032078   -1.317853   -0.000000
     14          1           0       -0.813423   -2.525026    0.000001
     15          7           0        1.605183   -1.028309   -0.000001
     16          1           0        1.937409   -1.982366    0.000002
 ---------------------------------------------------------------------
 Rotational constants (GHZ):           3.9251194           1.6390686           1.1562406
 Standard basis: 6-31+G(d) (6D, 7F)
 There are   185 symmetry adapted cartesian basis functions of A   symmetry.
 There are   185 symmetry adapted basis functions of A   symmetry.
   185 basis functions,   316 primitive gaussians,   185 cartesian basis functions
    31 alpha electrons       31 beta electrons
       nuclear repulsion energy       401.3127564703 Hartrees.
 NAtoms=   16 NActive=   16 NUniq=   16 SFac= 1.00D+00 NAtFMM=   60 NAOKFM=F Big=F
 Integral buffers will be    131072 words long.
 Raffenetti 1 integral format.
 Two-electron integral symmetry is turned on.
 One-electron integrals computed using PRISM.
 NBasis=   185 RedAO= T EigKep=  1.21D-06  NBF=   185
 NBsUse=   185 1.00D-06 EigRej= -1.00D+00 NBFU=   185
 Initial guess from the checkpoint file:  "/scratch/gfoley1/16922764/Gau-22271.chk"
 B after Tr=     0.000000   -0.000000   -0.000000
         Rot=    0.999974   -0.000000   -0.000000   -0.007259 Ang=  -0.83 deg.
 ExpMin= 4.38D-02 ExpMax= 4.17D+03 ExpMxC= 6.27D+02 IAcc=3 IRadAn=         5 AccDes= 0.00D+00
 Harris functional with IExCor=11009 and IRadAn=       5 diagonalized for initial guess.
 HarFok:  IExCor=11009 AccDes= 0.00D+00 IRadAn=         5 IDoV= 1 UseB2=F ITyADJ=14
 ICtDFT=  3500011 ScaDFX=  1.000000  1.000000  1.000000  1.000000
 FoFCou: FMM=F IPFlag=           0 FMFlag=      100000 FMFlg1=           0
         NFxFlg=           0 DoJE=T BraDBF=F KetDBF=T FulRan=T
         wScrn=  0.000000 ICntrl=       500 IOpCl=  0 I1Cent=   200000004 NGrid=           0
         NMat0=    1 NMatS0=      1 NMatT0=    0 NMatD0=    1 NMtDS0=    0 NMtDT0=    0
 Petite list used in FoFCou.
 Requested convergence on RMS density matrix=1.00D-08 within 128 cycles.
 Requested convergence on MAX density matrix=1.00D-06.
 Requested convergence on             energy=1.00D-06.
 No special actions if energy rises.
 SCF Done:  E(RLC-PBE+HF-PBE) =  -362.545265667     A.U. after   16 cycles
            NFock= 16  Conv=0.55D-08     -V/T= 2.0094
 DoSCS=F DFT=T ScalE2(SS,OS)=  1.000000  1.000000
 ExpMin= 4.38D-02 ExpMax= 4.17D+03 ExpMxC= 6.27D+02 IAcc=3 IRadAn=         5 AccDes= 0.00D+00
 HarFok:  IExCor=  205 AccDes= 0.00D+00 IRadAn=         5 IDoV=-2 UseB2=F ITyADJ=14
 ICtDFT= 12500011 ScaDFX=  1.000000  1.000000  1.000000  1.000000
 Range of M.O.s used for correlation:    10   185
 NBasis=   185 NAE=    31 NBE=    31 NFC=     9 NFV=     0
 NROrb=    176 NOA=    22 NOB=    22 NVA=   154 NVB=   154

 **** Warning!!: The largest alpha MO coefficient is  0.19762560D+03

 Orbital symmetries:
       Occupied  (A) (A) (A) (A) (A) (A) (A) (A) (A) (A) (A) (A)
                 (A) (A) (A) (A) (A) (A) (A) (A) (A) (A) (A) (A)
                 (A) (A) (A) (A) (A) (A) (A)
       Virtual   (A) (A) (A) (A) (A) (A) (A) (A) (A) (A) (A) (A)
                 (A) (A) (A) (A) (A) (A) (A) (A) (A) (A) (A) (A)
                 (A) (A) (A) (A) (A) (A) (A) (A) (A) (A) (A) (A)
                 (A) (A) (A) (A) (A) (A) (A) (A) (A) (A) (A) (A)
                 (A) (A) (A) (A) (A) (A) (A) (A) (A) (A) (A) (A)
                 (A) (A) (A) (A) (A) (A) (A) (A) (A) (A) (A) (A)
                 (A) (A) (A) (A) (A) (A) (A) (A) (A) (A) (A) (A)
                 (A) (A) (A) (A) (A) (A) (A) (A) (A) (A) (A) (A)
                 (A) (A) (A) (A) (A) (A) (A) (A) (A) (A) (A) (A)
                 (A) (A) (A) (A) (A) (A) (A) (A) (A) (A) (A) (A)
                 (A) (A) (A) (A) (A) (A) (A) (A) (A) (A) (A) (A)
                 (A) (A) (A) (A) (A) (A) (A) (A) (A) (A) (A) (A)
                 (A) (A) (A) (A) (A) (A) (A) (A) (A) (A)
 Generating guess from densities on rwf.
 Convergence on wavefunction:    0.000001000000000
 Iteration     1 Dimension     6 NMult     0 NNew      6
 CISAX will form     6 AO SS matrices at one time.
 Iteration     2 Dimension    12 NMult     6 NNew      6
 Iteration     3 Dimension    18 NMult    12 NNew      6
 Iteration     4 Dimension    24 NMult    18 NNew      6
 Iteration     5 Dimension    30 NMult    24 NNew      6
 Iteration     6 Dimension    36 NMult    30 NNew      6
 Iteration     7 Dimension    42 NMult    36 NNew      6
 Iteration     8 Dimension    48 NMult    42 NNew      6
 Iteration     9 Dimension    54 NMult    48 NNew      6
 Iteration    10 Dimension    60 NMult    54 NNew      6
 Iteration    11 Dimension    66 NMult    60 NNew      6
 Iteration    12 Dimension    68 NMult    66 NNew      2
 Iteration    13 Dimension    70 NMult    68 NNew      2
 Iteration    14 Dimension    72 NMult    70 NNew      2
 Iteration    15 Dimension    74 NMult    72 NNew      2
 Iteration    16 Dimension    76 NMult    74 NNew      2
 ***********************************************************************
 Excited states from <AA,BB:AA,BB> singles matrix:
 ***********************************************************************
 
 Ground to excited state transition densities written to RWF  633
 Ground to excited state transition electric dipole moments (Au):
       state          X           Y           Z        Dip. S.      Osc.
         1        -1.0716      0.7763     -0.0000      1.7511      0.2103
         2        -0.1816     -0.3112      0.0000      0.1298      0.0166
         3         0.0000     -0.0000     -0.1981      0.0392      0.0057
 Ground to excited state transition velocity dipole moments (Au):
       state          X           Y           Z        Dip. S.      Osc.
         1         0.1792     -0.1489      0.0000      0.0543      0.2010
         2         0.0330      0.0625     -0.0000      0.0050      0.0173
         3        -0.0000     -0.0000      0.0352      0.0012      0.0038
 Ground to excited state transition magnetic dipole moments (Au):
       state          X           Y           Z
         1         0.0000      0.0000      0.1244
         2        -0.0000      0.0000      0.0384
         3         0.1526     -0.1847      0.0000
 Ground to excited state transition velocity quadrupole moments (Au):
       state          XX          YY          ZZ          XY          XZ          YZ
         1         0.2397     -0.1872      0.0124      0.0321     -0.0000      0.0000
         2        -0.0150     -0.0761      0.0202      0.0208     -0.0000      0.0000
         3        -0.0000      0.0000      0.0000      0.0000      0.1533      0.0656
 <0|del|b> * <b|rxdel|0> + <0|del|b> * <b|delr+rdel|0>
 Rotatory Strengths (R) in cgs (10**-40 erg-esu-cm/Gauss)
       state          XX          YY          ZZ    R(velocity)    E-M Angle
         1        -0.0000      0.0005      0.0004      0.0003       90.00
         2         0.0000     -0.0000     -0.0000     -0.0000       90.00
         3         0.0001     -0.0001     -0.0001     -0.0000       90.00
 1/2[<0|r|b>*<b|rxdel|0> + (<0|rxdel|b>*<b|r|0>)*]
 Rotatory Strengths (R) in cgs (10**-40 erg-esu-cm/Gauss)
       state          XX          YY          ZZ     R(length)
         1         0.0009     -0.0001      0.0001      0.0003
         2        -0.0000      0.0000     -0.0000     -0.0000
         3        -0.0003     -0.0000      0.0003     -0.0000
  1/2[<0|del|b>*<b|r|0> + (<0|r|b>*<b|del|0>)*] (Au)
       state          X           Y           Z        Dip. S.   Osc.(frdel)
         1        -0.1921     -0.1156     -0.0000      0.3077      0.2051
         2        -0.0060     -0.0194     -0.0000      0.0254      0.0170
         3        -0.0000      0.0000     -0.0070      0.0070      0.0046

 Excitation energies and oscillator strengths:
 
 Excited State   1:      Singlet-A      4.9025 eV  252.90 nm  f=0.2103  <S**2>=0.000
      30 -> 38         0.14207
      31 -> 32         0.67804
 This state for optimization and/or second-order correction.
 Total Energy, E(TD-HF/TD-DFT) =  -362.365101207    
 Copying the excited state density for this state as the 1-particle RhoCI density.
 
 Excited State   2:      Singlet-A      5.2295 eV  237.09 nm  f=0.0166  <S**2>=0.000
      30 -> 32         0.55172
      31 -> 38        -0.38046
 
 Excited State   3:      Singlet-A      5.9039 eV  210.00 nm  f=0.0057  <S**2>=0.000
      29 -> 33         0.10264
      31 -> 33         0.65791
      31 -> 40        -0.12207
 SavETr:  write IOETrn=   770 NScale= 10 NData=  16 NLR=1 NState=    3 LETran=      64.
          IDoAtm=1111111111111111
          Differentiating once with respect to electric field.
                with respect to dipole field.
          Differentiating once with respect to nuclear coordinates.
          There are     1 degrees of freedom in the 1st order CPHF.  IDoFFX=0 NUNeed=     1.
 LinEq1:  Iter=  0 NonCon=     1 RMS=4.41D-03 Max=7.17D-02 NDo=     1
 AX will form     1 AO Fock derivatives at one time.
 LinEq1:  Iter=  1 NonCon=     1 RMS=2.02D-03 Max=6.07D-02 NDo=     1
 LinEq1:  Iter=  2 NonCon=     1 RMS=6.24D-04 Max=1.23D-02 NDo=     1
 LinEq1:  Iter=  3 NonCon=     1 RMS=3.81D-04 Max=1.38D-02 NDo=     1
 LinEq1:  Iter=  4 NonCon=     1 RMS=1.50D-04 Max=4.37D-03 NDo=     1
 LinEq1:  Iter=  5 NonCon=     1 RMS=6.14D-05 Max=1.74D-03 NDo=     1
 LinEq1:  Iter=  6 NonCon=     1 RMS=2.85D-05 Max=7.58D-04 NDo=     1
 LinEq1:  Iter=  7 NonCon=     1 RMS=1.27D-05 Max=2.59D-04 NDo=     1
 LinEq1:  Iter=  8 NonCon=     1 RMS=5.57D-06 Max=1.49D-04 NDo=     1
 LinEq1:  Iter=  9 NonCon=     1 RMS=1.84D-06 Max=3.54D-05 NDo=     1
 LinEq1:  Iter= 10 NonCon=     1 RMS=8.93D-07 Max=1.93D-05 NDo=     1
 LinEq1:  Iter= 11 NonCon=     1 RMS=3.07D-07 Max=8.76D-06 NDo=     1
 LinEq1:  Iter= 12 NonCon=     1 RMS=1.39D-07 Max=2.55D-06 NDo=     1
 LinEq1:  Iter= 13 NonCon=     1 RMS=4.68D-08 Max=1.09D-06 NDo=     1
 LinEq1:  Iter= 14 NonCon=     1 RMS=1.34D-08 Max=2.63D-07 NDo=     1
 LinEq1:  Iter= 15 NonCon=     1 RMS=5.99D-09 Max=9.83D-08 NDo=     1
 LinEq1:  Iter= 16 NonCon=     1 RMS=1.42D-09 Max=1.96D-08 NDo=     1
 LinEq1:  Iter= 17 NonCon=     1 RMS=3.16D-10 Max=6.50D-09 NDo=     1
 LinEq1:  Iter= 18 NonCon=     1 RMS=1.47D-10 Max=1.86D-09 NDo=     1
 LinEq1:  Iter= 19 NonCon=     0 RMS=3.97D-11 Max=6.90D-10 NDo=     1
 Linear equations converged to 1.000D-10 1.000D-09 after    19 iterations.
 End of Minotr F.D. properties file   721 does not exist.
 End of Minotr F.D. properties file   722 does not exist.
 End of Minotr F.D. properties file   788 does not exist.
 Calling FoFJK, ICntrl=  10005127 FMM=F ISym2X=0 I1Cent= 0 IOpClX= 0 NMat=1 NMatS=1 NMatT=0.
 ***** Axes restored to original set *****
 -------------------------------------------------------------------
 Center     Atomic                   Forces (Hartrees/Bohr)
 Number     Number              X              Y              Z
 -------------------------------------------------------------------
      1        6           0.000363652   -0.000055329    0.000341571
      2        1          -0.000339305    0.000378815   -0.002484733
      3        6           0.006326760    0.000588701   -0.004331999
      4        1          -0.000929738   -0.000105655    0.000763386
      5        6          -0.006529974   -0.002022637    0.013838170
      6        6           0.003267231    0.000232419   -0.001762628
      7        6          -0.008063922    0.000762856   -0.004496262
      8        6           0.011970740   -0.000764008    0.004234794
      9        6          -0.013192581   -0.000627737    0.005061043
     10        6           0.011129355    0.002521953   -0.017458145
     11        1          -0.000918534   -0.000051478    0.000403579
     12        1           0.000240698   -0.000094364    0.000608157
     13        1          -0.001131885    0.000147729   -0.000899944
     14        1           0.001443521   -0.000011865   -0.000020460
     15        7          -0.003971899   -0.001062757    0.007308155
     16        1           0.000335880    0.000163359   -0.001104685
 -------------------------------------------------------------------
 Cartesian Forces:  Max     0.017458145 RMS     0.005162699

 GradGradGradGradGradGradGradGradGradGradGradGradGradGradGradGradGradGrad
 Berny optimization.
 Using GEDIIS/GDIIS optimizer.
 FormGI is forming the generalized inverse of G from B-inverse, IUseBI=4.
 Internal  Forces:  Max     0.007477850 RMS     0.001984142
 Search for a local minimum.
 Step number   2 out of a maximum of   94
 All quantities printed in internal units (Hartrees-Bohrs-Radians)
 Mixed Optimization -- RFO/linear search
 Update second derivatives using D2CorX and points    1    2
 DE= -9.46D-03 DEPred=-8.79D-03 R= 1.08D+00
 TightC=F SS=  1.41D+00  RLast= 2.12D-01 DXNew= 5.0454D-01 6.3705D-01
 Trust test= 1.08D+00 RLast= 2.12D-01 DXMaxT set to 5.05D-01
 ITU=  1  0
 Use linear search instead of GDIIS.
     Eigenvalues ---    0.01860   0.01895   0.01900   0.02069   0.02077
     Eigenvalues ---    0.02085   0.02126   0.02193   0.02211   0.02274
     Eigenvalues ---    0.02322   0.02357   0.02380   0.15336   0.16000
     Eigenvalues ---    0.16000   0.16000   0.16000   0.16000   0.16138
     Eigenvalues ---    0.21523   0.22162   0.22813   0.23778   0.24676
     Eigenvalues ---    0.36884   0.37230   0.37230   0.37230   0.37230
     Eigenvalues ---    0.37593   0.38078   0.40999   0.41609   0.42508
     Eigenvalues ---    0.44230   0.44855   0.46793   0.47547   0.48521
     Eigenvalues ---    0.52771   0.55094
 RFO step:  Lambda=-9.80353876D-04 EMin= 1.86047673D-02
 Quartic linear search produced a step of  0.14119.
 Iteration  1 RMS(Cart)=  0.00803119 RMS(Int)=  0.00007408
 Iteration  2 RMS(Cart)=  0.00008392 RMS(Int)=  0.00003012
 Iteration  3 RMS(Cart)=  0.00000000 RMS(Int)=  0.00003012
 Variable       Old X    -DE/DX   Delta X   Delta X   Delta X     New X
                                 (Linear)    (Quad)   (Total)
    R1        2.04580  -0.00105   0.00336  -0.00534  -0.00198   2.04383
    R2        2.67564   0.00103   0.00323  -0.00068   0.00249   2.67813
    R3        2.52741  -0.00235  -0.00391  -0.00281  -0.00676   2.52065
    R4        2.04543   0.00048   0.00331  -0.00064   0.00267   2.04810
    R5        2.63114  -0.00532   0.00110  -0.01373  -0.01263   2.61852
    R6        2.69045   0.00025   0.00889  -0.00473   0.00420   2.69464
    R7        2.65058   0.00512   0.00820   0.00785   0.01616   2.66674
    R8        2.65674   0.00013  -0.00128   0.00079  -0.00050   2.65624
    R9        2.05078  -0.00024   0.00406  -0.00329   0.00077   2.05155
   R10        2.60221  -0.00564  -0.01172  -0.00839  -0.02016   2.58205
   R11        2.05158   0.00014   0.00418  -0.00221   0.00197   2.05354
   R12        2.70926   0.00530   0.00582   0.00995   0.01573   2.72499
   R13        2.05213   0.00039   0.00425  -0.00150   0.00275   2.05488
   R14        2.60986  -0.00748  -0.00282  -0.01600  -0.01880   2.59105
   R15        2.05328  -0.00086   0.00442  -0.00541  -0.00100   2.05228
   R16        2.60229   0.00363   0.00869   0.00279   0.01151   2.61380
   R17        1.90909   0.00039   0.00273  -0.00078   0.00195   1.91104
    A1        2.25822   0.00190   0.00881   0.00964   0.01849   2.27671
    A2        2.15728  -0.00282  -0.00544  -0.01394  -0.01934   2.13794
    A3        1.86769   0.00092  -0.00337   0.00429   0.00085   1.86854
    A4        2.18127  -0.00088  -0.00491  -0.00206  -0.00695   2.17432
    A5        1.89148  -0.00051   0.00570  -0.00911  -0.00345   1.88803
    A6        2.21043   0.00139  -0.00079   0.01117   0.01040   2.22083
    A7        2.32232   0.00148   0.00753   0.00018   0.00763   2.32995
    A8        1.85432   0.00311  -0.00334   0.01680   0.01348   1.86780
    A9        2.10655  -0.00459  -0.00420  -0.01698  -0.02111   2.08543
   A10        2.04719  -0.00038  -0.00053  -0.00135  -0.00184   2.04536
   A11        2.11635  -0.00081   0.00003  -0.00626  -0.00625   2.11010
   A12        2.11964   0.00119   0.00050   0.00760   0.00808   2.12772
   A13        2.11182   0.00308   0.00173   0.01349   0.01517   2.12699
   A14        2.09374  -0.00220   0.00027  -0.01222  -0.01192   2.08182
   A15        2.07762  -0.00088  -0.00200  -0.00127  -0.00325   2.07437
   A16        2.13513  -0.00080   0.00475  -0.00829  -0.00361   2.13152
   A17        2.07409   0.00184  -0.00237   0.01433   0.01199   2.08609
   A18        2.07397  -0.00104  -0.00238  -0.00604  -0.00839   2.06558
   A19        2.03121  -0.00247  -0.00333  -0.00967  -0.01301   2.01819
   A20        2.12125   0.00004   0.00100  -0.00315  -0.00215   2.11910
   A21        2.13073   0.00243   0.00234   0.01283   0.01517   2.14589
   A22        2.13448   0.00517   0.00158   0.02280   0.02440   2.15887
   A23        1.88200  -0.00486  -0.00345  -0.01734  -0.02071   1.86129
   A24        2.26671  -0.00031   0.00187  -0.00546  -0.00369   2.26303
   A25        1.92929   0.00134   0.00445   0.00536   0.00983   1.93912
   A26        2.17520   0.00038  -0.00247   0.00493   0.00245   2.17764
   A27        2.17870  -0.00172  -0.00198  -0.01029  -0.01228   2.16642
    D1        0.00000  -0.00000  -0.00000  -0.00000  -0.00000   0.00000
    D2       -3.14159  -0.00000  -0.00000  -0.00000  -0.00000  -3.14159
    D3       -3.14159   0.00000   0.00000   0.00000   0.00000  -3.14159
    D4        0.00000  -0.00000   0.00000  -0.00000  -0.00000  -0.00000
    D5        3.14159   0.00000   0.00000   0.00000   0.00000   3.14159
    D6        0.00000   0.00000   0.00000  -0.00000   0.00000   0.00000
    D7       -0.00000   0.00000  -0.00000   0.00000   0.00000  -0.00000
    D8       -3.14159  -0.00000  -0.00000  -0.00000  -0.00000  -3.14159
    D9        3.14159   0.00000   0.00000   0.00000   0.00000   3.14159
   D10        0.00000   0.00000  -0.00000   0.00000   0.00000   0.00000
   D11       -0.00000   0.00000   0.00000   0.00000   0.00000  -0.00000
   D12       -3.14159  -0.00000  -0.00000  -0.00000  -0.00000   3.14159
   D13       -3.14159  -0.00000  -0.00000  -0.00000  -0.00000  -3.14159
   D14        0.00000  -0.00000   0.00000  -0.00000  -0.00000   0.00000
   D15       -0.00000  -0.00000  -0.00000  -0.00000  -0.00000  -0.00000
   D16        3.14159   0.00000   0.00000   0.00000   0.00000   3.14159
   D17        3.14159   0.00000   0.00000   0.00000   0.00000   3.14159
   D18       -0.00000  -0.00000   0.00000  -0.00000  -0.00000  -0.00000
   D19       -0.00000  -0.00000  -0.00000   0.00000   0.00000  -0.00000
   D20       -3.14159  -0.00000  -0.00000  -0.00000  -0.00000  -3.14159
   D21        0.00000   0.00000   0.00000   0.00000   0.00000   0.00000
   D22       -3.14159   0.00000   0.00000   0.00000   0.00000  -3.14159
   D23       -3.14159  -0.00000  -0.00000  -0.00000  -0.00000  -3.14159
   D24        0.00000  -0.00000  -0.00000  -0.00000  -0.00000   0.00000
   D25        0.00000  -0.00000  -0.00000  -0.00000  -0.00000   0.00000
   D26       -3.14159  -0.00000  -0.00000  -0.00000  -0.00000  -3.14159
   D27       -3.14159  -0.00000  -0.00000   0.00000  -0.00000  -3.14159
   D28        0.00000  -0.00000  -0.00000  -0.00000  -0.00000   0.00000
   D29       -0.00000   0.00000   0.00000   0.00000   0.00000  -0.00000
   D30        3.14159  -0.00000   0.00000  -0.00000  -0.00000   3.14159
   D31        3.14159   0.00000   0.00000   0.00000   0.00000   3.14159
   D32       -0.00000   0.00000   0.00000   0.00000   0.00000  -0.00000
   D33        0.00000   0.00000   0.00000  -0.00000  -0.00000   0.00000
   D34        3.14159   0.00000   0.00000   0.00000   0.00000  -3.14159
   D35       -3.14159   0.00000   0.00000   0.00000   0.00000  -3.14159
   D36       -0.00000   0.00000   0.00000   0.00000   0.00000  -0.00000
   D37        0.00000  -0.00000   0.00000  -0.00000  -0.00000   0.00000
   D38        3.14159   0.00000   0.00000   0.00000   0.00000   3.14159
   D39       -3.14159  -0.00000  -0.00000  -0.00000  -0.00000  -3.14159
   D40        0.00000  -0.00000   0.00000  -0.00000  -0.00000   0.00000
         Item               Value     Threshold  Converged?
 Maximum Force            0.007478     0.000450     NO 
 RMS     Force            0.001984     0.000300     NO 
 Maximum Displacement     0.035463     0.001800     NO 
 RMS     Displacement     0.008026     0.001200     NO 
 Predicted change in Energy=-6.400669D-04
 GradGradGradGradGradGradGradGradGradGradGradGradGradGradGradGradGradGrad

                          Input orientation:                          
 ---------------------------------------------------------------------
 Center     Atomic      Atomic             Coordinates (Angstroms)
 Number     Number       Type             X           Y           Z
 ---------------------------------------------------------------------
      1          6           0       -1.369651    2.086811    1.409828
      2          1           0       -2.297984    2.013355    1.959867
      3          6           0       -0.027251    2.005357    1.856810
      4          1           0        0.269464    1.846644    2.887057
      5          6           0        0.804026    2.162511    0.759388
      6          6           0        2.220359    2.172734    0.594424
      7          6           0        2.713976    2.364309   -0.707654
      8          6           0        1.880870    2.534525   -1.777192
      9          6           0        0.445447    2.528651   -1.639696
     10          6           0       -0.027725    2.341228   -0.366523
     11          1           0        2.881670    2.037426    1.444692
     12          1           0        3.788049    2.378018   -0.872185
     13          1           0        2.304052    2.679849   -2.768268
     14          1           0       -0.205991    2.665052   -2.497871
     15          7           0       -1.331702    2.285585    0.091398
     16          1           0       -2.145632    2.383483   -0.500737
 ---------------------------------------------------------------------
                    Distance matrix (angstroms):
                    1          2          3          4          5
     1  C    0.000000
     2  H    1.081546   0.000000
     3  C    1.417204   2.273085   0.000000
     4  H    2.219591   2.734825   1.083807   0.000000
     5  C    2.270170   3.329544   1.385660   2.216417   0.000000
     6  C    3.682450   4.722845   2.583289   3.027952   1.425945
     7  C    4.608334   5.688461   3.770895   4.377849   2.416784
     8  C    4.574213   5.630280   4.138468   4.982472   2.780688
     9  C    3.576226   4.555084   3.566908   4.581222   2.453210
    10  C    2.240740   3.267058   2.248559   3.304348   1.411179
    11  H    4.251751   5.205267   2.938144   2.990056   2.191322
    12  H    5.647500   6.722597   4.705614   5.176360   3.407766
    13  H    5.595022   6.631607   5.223146   6.067658   3.868084
    14  H    4.118080   4.967150   4.407992   5.467477   3.447089
    15  N    1.333870   2.121082   2.212872   3.251479   2.241137
    16  H    2.083367   2.492945   3.191950   4.195001   3.215155
                    6          7          8          9         10
     6  C    0.000000
     7  C    1.405619   0.000000
     8  C    2.422955   1.366364   0.000000
     9  C    2.875462   2.458035   1.442005   0.000000
    10  C    2.450652   2.762938   2.381194   1.371126   0.000000
    11  H    1.085632   2.183476   3.410168   3.961052   3.440549
    12  H    2.156556   1.086689   2.116806   3.432893   3.849309
    13  H    3.401745   2.124554   1.087397   2.179668   3.364555
    14  H    3.961293   3.438245   2.211652   1.086021   2.163166
    15  N    3.589278   4.124584   3.724811   2.492794   1.383165
    16  H    4.506181   4.864049   4.226685   2.834076   2.122575
                   11         12         13         14         15
    11  H    0.000000
    12  H    2.511065   0.000000
    13  H    4.300626   2.426619   0.000000
    14  H    5.046917   4.321759   2.524609   0.000000
    15  N    4.432324   5.210460   4.642396   2.848778   0.000000
    16  H    5.401686   5.945298   5.002921   2.798220   1.011280
                   16
    16  H    0.000000
 Stoichiometry    C8H7N
 Framework group  C1[X(C8H7N)]
 Deg. of freedom    42
 Full point group                 C1      NOp   1
 Largest Abelian subgroup         C1      NOp   1
 Largest concise Abelian subgroup C1      NOp   1
                         Standard orientation:                         
 ---------------------------------------------------------------------
 Center     Atomic      Atomic             Coordinates (Angstroms)
 Number     Number       Type             X           Y           Z
 ---------------------------------------------------------------------
      1          6           0        2.392030    0.041277    0.000000
      2          1           0        3.470777   -0.036481    0.000001
      3          6           0        1.552568    1.183104    0.000000
      4          1           0        1.907165    2.207262    0.000001
      5          6           0        0.235828    0.751536   -0.000001
      6          6           0       -1.019011    1.428807    0.000000
      7          6           0       -2.178077    0.633615    0.000000
      8          6           0       -2.116458   -0.731359    0.000000
      9          6           0       -0.861923   -1.442361    0.000001
     10          6           0        0.263648   -0.659369   -0.000001
     11          1           0       -1.067181    2.513370    0.000001
     12          1           0       -3.152547    1.114551   -0.000000
     13          1           0       -3.037528   -1.309340   -0.000001
     14          1           0       -0.826419   -2.527801    0.000001
     15          7           0        1.596416   -1.029334   -0.000001
     16          1           0        1.919186   -1.987722    0.000000
 ---------------------------------------------------------------------
 Rotational constants (GHZ):           3.9168449           1.6435242           1.1577342
 Standard basis: 6-31+G(d) (6D, 7F)
 There are   185 symmetry adapted cartesian basis functions of A   symmetry.
 There are   185 symmetry adapted basis functions of A   symmetry.
   185 basis functions,   316 primitive gaussians,   185 cartesian basis functions
    31 alpha electrons       31 beta electrons
       nuclear repulsion energy       401.4415322057 Hartrees.
 NAtoms=   16 NActive=   16 NUniq=   16 SFac= 1.00D+00 NAtFMM=   60 NAOKFM=F Big=F
[...]
 ! D8    D(3,1,15,16)          180.0            -DE/DX =    0.0                 !
 ! D9    D(1,3,5,6)            180.0            -DE/DX =    0.0                 !
 ! D10   D(1,3,5,10)             0.0            -DE/DX =    0.0                 !
 ! D11   D(4,3,5,6)              0.0            -DE/DX =    0.0                 !
 ! D12   D(4,3,5,10)           180.0            -DE/DX =    0.0                 !
 ! D13   D(3,5,6,7)            180.0001         -DE/DX =    0.0                 !
 ! D14   D(3,5,6,11)             0.0001         -DE/DX =    0.0                 !
 ! D15   D(10,5,6,7)             0.0            -DE/DX =    0.0                 !
 ! D16   D(10,5,6,11)         -180.0            -DE/DX =    0.0                 !
 ! D17   D(3,5,10,9)          -180.0001         -DE/DX =    0.0                 !
 ! D18   D(3,5,10,15)            0.0            -DE/DX =    0.0                 !
 ! D19   D(6,5,10,9)            -0.0001         -DE/DX =    0.0                 !
 ! D20   D(6,5,10,15)         -180.0            -DE/DX =    0.0                 !
 ! D21   D(5,6,7,8)              0.0            -DE/DX =    0.0                 !
 ! D22   D(5,6,7,12)          -180.0            -DE/DX =    0.0                 !
 ! D23   D(11,6,7,8)           180.0            -DE/DX =    0.0                 !
 ! D24   D(11,6,7,12)            0.0            -DE/DX =    0.0                 !
 ! D25   D(6,7,8,9)              0.0            -DE/DX =    0.0                 !
 ! D26   D(6,7,8,13)           180.0            -DE/DX =    0.0                 !
 ! D27   D(12,7,8,9)           180.0            -DE/DX =    0.0                 !
 ! D28   D(12,7,8,13)            0.0            -DE/DX =    0.0                 !
 ! D29   D(7,8,9,10)            -0.0001         -DE/DX =    0.0                 !
 ! D30   D(7,8,9,14)           180.0            -DE/DX =    0.0                 !
 ! D31   D(13,8,9,10)          179.9999         -DE/DX =    0.0                 !
 ! D32   D(13,8,9,14)            0.0            -DE/DX =    0.0                 !
 ! D33   D(8,9,10,5)             0.0001         -DE/DX =    0.0                 !
 ! D34   D(8,9,10,15)          180.0            -DE/DX =    0.0                 !
 ! D35   D(14,9,10,5)         -179.9999         -DE/DX =    0.0                 !
 ! D36   D(14,9,10,15)           0.0            -DE/DX =    0.0                 !
 ! D37   D(5,10,15,1)            0.0            -DE/DX =    0.0                 !
 ! D38   D(5,10,15,16)         180.0            -DE/DX =    0.0                 !
 ! D39   D(9,10,15,1)         -179.9999         -DE/DX =    0.0                 !
 ! D40   D(9,10,15,16)           0.0001         -DE/DX =    0.0                 !
 --------------------------------------------------------------------------------
 GradGradGradGradGradGradGradGradGradGradGradGradGradGradGradGradGradGrad

                          Input orientation:                          
 ---------------------------------------------------------------------
 Center     Atomic      Atomic             Coordinates (Angstroms)
 Number     Number       Type             X           Y           Z
 ---------------------------------------------------------------------
      1          6           0       -1.370354    2.086638    1.411022
      2          1           0       -2.299445    2.013490    1.959070
      3          6           0       -0.026849    2.005273    1.857341
      4          1           0        0.268132    1.846641    2.887174
      5          6           0        0.804245    2.162222    0.761288
      6          6           0        2.219973    2.172856    0.593644
      7          6           0        2.713903    2.364276   -0.707425
      8          6           0        1.882718    2.535102   -1.781140
      9          6           0        0.443416    2.528499   -1.638554
     10          6           0       -0.025633    2.341187   -0.366394
     11          1           0        2.883399    2.037898    1.441445
     12          1           0        3.788662    2.377040   -0.865755
     13          1           0        2.302432    2.680485   -2.772363
     14          1           0       -0.207189    2.664770   -2.495922
     15          7           0       -1.331609    2.285517    0.091842
     16          1           0       -2.143824    2.383645   -0.501935
 ---------------------------------------------------------------------
                    Distance matrix (angstroms):
                    1          2          3          4          5
     1  C    0.000000
     2  H    1.081165   0.000000
     3  C    1.418036   2.274886   0.000000
     4  H    2.218391   2.735263   1.082928   0.000000
     5  C    2.270847   3.330119   1.384443   2.215039   0.000000
     6  C    3.683203   4.723867   2.583258   3.029253   1.425659
     7  C    4.609344   5.689192   3.770760   4.378456   2.417590
     8  C    4.579683   5.634868   4.143153   4.987386   2.786770
     9  C    3.575599   4.553176   3.565977   4.580160   2.454302
    10  C    2.243273   3.268851   2.248963   3.304024   1.411521
    11  H    4.254140   5.208684   2.939996   2.994383   2.191107
    12  H    5.646546   6.721372   4.702296   5.172999   3.405901
    13  H    5.598457   6.633899   5.226435   6.071576   3.872964
    14  H    4.117207   4.964741   4.406626   5.465618   3.447458
    15  N    1.334649   2.120671   2.213125   3.250486   2.241702
    16  H    2.084676   2.493548   3.192324   4.194278   3.214945
                    6          7          8          9         10
     6  C    0.000000
     7  C    1.404774   0.000000
     8  C    2.425812   1.368545   0.000000
     9  C    2.874951   2.459489   1.446363   0.000000
    10  C    2.448011   2.760778   2.383468   1.368753   0.000000
    11  H    1.084949   2.180113   3.410811   3.959873   3.438420
    12  H    2.152283   1.086433   2.120268   3.436689   3.847011
    13  H    3.405069   2.129147   1.086195   2.182788   3.365071
    14  H    3.959610   3.438284   2.212564   1.084867   2.161610
    15  N    3.588625   4.124464   3.728573   2.490788   1.385154
    16  H    4.504159   4.862111   4.227571   2.829611   2.122948
                   11         12         13         14         15
    11  H    0.000000
    12  H    2.501537   0.000000
    13  H    4.301932   2.436415   0.000000
    14  H    5.044557   4.325166   2.524849   0.000000
    15  N    4.432723   5.209850   4.643913   2.846871   0.000000
    16  H    5.400855   5.943636   5.001215   2.793845   1.010888
                   16
    16  H    0.000000
 Stoichiometry    C8H7N
 Framework group  C1[X(C8H7N)]
 Deg. of freedom    42
 Full point group                 C1      NOp   1
 Largest Abelian subgroup         C1      NOp   1
 Largest concise Abelian subgroup C1      NOp   1
                         Standard orientation:                         
 ---------------------------------------------------------------------
 Center     Atomic      Atomic             Coordinates (Angstroms)
 Number     Number       Type             X           Y           Z
 ---------------------------------------------------------------------
      1          6           0        2.393373    0.040495    0.000000
      2          1           0        3.471544   -0.039904    0.000000
      3          6           0        1.553212    1.182842    0.000000
      4          1           0        1.909516    2.205476    0.000001
      5          6           0        0.237194    0.752982   -0.000000
      6          6           0       -1.018354    1.428334   -0.000000
      7          6           0       -2.177503    0.634757    0.000000
      8          6           0       -2.120585   -0.732604    0.000000
      9          6           0       -0.860290   -1.442268    0.000001
     10          6           0        0.261725   -0.658326   -0.000001
     11          1           0       -1.069127    2.512094   -0.000000
     12          1           0       -3.148686    1.121727   -0.000000
     13          1           0       -3.039201   -1.312226   -0.000000
     14          1           0       -0.825559   -2.526579    0.000001
     15          7           0        1.596120   -1.029867   -0.000001
     16          1           0        1.916039   -1.988797   -0.000000
 ---------------------------------------------------------------------
 Rotational constants (GHZ):           3.9154981           1.6424330           1.1570751

 **********************************************************************

            Population analysis using the SCF Density.

 **********************************************************************

 Orbital symmetries:
       Occupied  (A) (A) (A) (A) (A) (A) (A) (A) (A) (A) (A) (A)
                 (A) (A) (A) (A) (A) (A) (A) (A) (A) (A) (A) (A)
                 (A) (A) (A) (A) (A) (A) (A)
       Virtual   (A) (A) (A) (A) (A) (A) (A) (A) (A) (A) (A) (A)
                 (A) (A) (A) (A) (A) (A) (A) (A) (A) (A) (A) (A)
                 (A) (A) (A) (A) (A) (A) (A) (A) (A) (A) (A) (A)
                 (A) (A) (A) (A) (A) (A) (A) (A) (A) (A) (A) (A)
                 (A) (A) (A) (A) (A) (A) (A) (A) (A) (A) (A) (A)
                 (A) (A) (A) (A) (A) (A) (A) (A) (A) (A) (A) (A)
                 (A) (A) (A) (A) (A) (A) (A) (A) (A) (A) (A) (A)
                 (A) (A) (A) (A) (A) (A) (A) (A) (A) (A) (A) (A)
                 (A) (A) (A) (A) (A) (A) (A) (A) (A) (A) (A) (A)
                 (A) (A) (A) (A) (A) (A) (A) (A) (A) (A) (A) (A)
                 (A) (A) (A) (A) (A) (A) (A) (A) (A) (A) (A) (A)
                 (A) (A) (A) (A) (A) (A) (A) (A) (A) (A) (A) (A)
                 (A) (A) (A) (A) (A) (A) (A) (A) (A) (A)
 The electronic state is 1-A.
 Alpha  occ. eigenvalues --  -14.28959 -10.17685 -10.16754 -10.14433 -10.13802
 Alpha  occ. eigenvalues --  -10.13562 -10.13372 -10.12933 -10.12023  -1.17557
 Alpha  occ. eigenvalues --   -1.02418  -0.95969  -0.91756  -0.87939  -0.79274
 Alpha  occ. eigenvalues --   -0.75699  -0.73737  -0.69447  -0.62994  -0.61820
 Alpha  occ. eigenvalues --   -0.58608  -0.58221  -0.57251  -0.53995  -0.52841
 Alpha  occ. eigenvalues --   -0.47960  -0.47820  -0.47056  -0.40530  -0.34454
 Alpha  occ. eigenvalues --   -0.29794
 Alpha virt. eigenvalues --    0.04700   0.05384   0.07229   0.07802   0.08913
 Alpha virt. eigenvalues --    0.09383   0.10221   0.11548   0.11606   0.11770
 Alpha virt. eigenvalues --    0.12348   0.12707   0.14738   0.15422   0.15710
 Alpha virt. eigenvalues --    0.15909   0.17662   0.18863   0.20237   0.20325
 Alpha virt. eigenvalues --    0.21336   0.21839   0.22595   0.23318   0.23908
 Alpha virt. eigenvalues --    0.25117   0.25412   0.25754   0.26577   0.27055
 Alpha virt. eigenvalues --    0.27831   0.28579   0.29263   0.29839   0.30539
 Alpha virt. eigenvalues --    0.30915   0.31483   0.32118   0.32762   0.33596
 Alpha virt. eigenvalues --    0.34837   0.35159   0.37158   0.38259   0.39462
 Alpha virt. eigenvalues --    0.41046   0.41372   0.42689   0.45038   0.46049
 Alpha virt. eigenvalues --    0.48097   0.50129   0.54534   0.57121   0.63693
 Alpha virt. eigenvalues --    0.70235   0.74251   0.78277   0.78716   0.81434
 Alpha virt. eigenvalues --    0.83645   0.83867   0.85017   0.85280   0.86553
 Alpha virt. eigenvalues --    0.87440   0.89134   0.89462   0.91383   0.91686
 Alpha virt. eigenvalues --    0.93535   0.97486   1.00983   1.01584   1.03455
 Alpha virt. eigenvalues --    1.06893   1.07096   1.08037   1.08143   1.11184
 Alpha virt. eigenvalues --    1.12691   1.15214   1.17002   1.18366   1.21105
 Alpha virt. eigenvalues --    1.23668   1.24942   1.30034   1.30558   1.33838
 Alpha virt. eigenvalues --    1.35219   1.37145   1.37528   1.45307   1.45372
 Alpha virt. eigenvalues --    1.48354   1.49880   1.54329   1.54535   1.57946
 Alpha virt. eigenvalues --    1.60579   1.61263   1.63776   1.64105   1.67220
 Alpha virt. eigenvalues --    1.72196   1.77467   1.92292   1.96248   2.04018
 Alpha virt. eigenvalues --    2.04687   2.05941   2.09032   2.14567   2.15096
 Alpha virt. eigenvalues --    2.15291   2.18934   2.22387   2.28630   2.30035
 Alpha virt. eigenvalues --    2.31505   2.34679   2.37475   2.39728   2.42625
 Alpha virt. eigenvalues --    2.43281   2.46430   2.52443   2.56347   2.60767
 Alpha virt. eigenvalues --    2.68101   2.71930   2.76001   2.79809   2.80937
 Alpha virt. eigenvalues --    2.82217   2.87483   2.95184   2.98186   3.00255
 Alpha virt. eigenvalues --    3.10191   3.12495   3.25842   3.39861   3.57752
 Alpha virt. eigenvalues --    4.28445   4.38521   4.41297   4.44473   4.49534
 Alpha virt. eigenvalues --    4.53969   4.61338   4.64883   4.91729
          Condensed to atoms (all electrons):
               1          2          3          4          5          6
     1  C    5.860317   0.309629  -1.101366  -0.033215   1.632934   0.763170
     2  H    0.309629   0.445042   0.063255  -0.000359  -0.113085  -0.021454
     3  C   -1.101366   0.063255  10.651436   0.320596  -4.328268  -3.190967
     4  H   -0.033215  -0.000359   0.320596   0.458569  -0.030807  -0.013527
     5  C    1.632934  -0.113085  -4.328268  -0.030807  14.067583   0.802803
     6  C    0.763170  -0.021454  -3.190967  -0.013527   0.802803  10.909947
     7  C   -0.069861   0.001661   0.100699   0.001613  -0.055385  -0.032179
     8  C    0.045804  -0.000458  -0.282181   0.000859  -0.541931   0.825209
     9  C   -1.031988   0.040610   2.729627   0.007249  -4.313350  -2.802591
    10  C   -0.742003   0.102128   1.884798   0.052767  -3.632291  -0.978460
    11  H    0.004010  -0.000002  -0.027384   0.001225   0.099307   0.200387
    12  H    0.000279  -0.000000   0.005672  -0.000002   0.016159   0.005791
    13  H    0.000964  -0.000000   0.001670   0.000000   0.021526  -0.012662
    14  H    0.003661   0.000001   0.001849   0.000002  -0.006693  -0.012604
    15  N    0.568241  -0.061414  -0.725869   0.006225   0.787106   0.153560
    16  H    0.005683  -0.002293  -0.034466  -0.000088   0.216674   0.029541
               7          8          9         10         11         12
     1  C   -0.069861   0.045804  -1.031988  -0.742003   0.004010   0.000279
     2  H    0.001661  -0.000458   0.040610   0.102128  -0.000002  -0.000000
     3  C    0.100699  -0.282181   2.729627   1.884798  -0.027384   0.005672
     4  H    0.001613   0.000859   0.007249   0.052767   0.001225  -0.000002
     5  C   -0.055385  -0.541931  -4.313350  -3.632291   0.099307   0.016159
     6  C   -0.032179   0.825209  -2.802591  -0.978460   0.200387   0.005791
     7  C    5.647674   0.181939   0.559916  -0.565742   0.030583   0.251096
     8  C    0.181939   5.704942   0.041143   0.145975  -0.000848   0.038998
     9  C    0.559916   0.041143  12.322782  -0.813844  -0.023793   0.006715
    10  C   -0.565742   0.145975  -0.813844  11.780534   0.021838  -0.011393
    11  H    0.030583  -0.000848  -0.023793   0.021838   0.469921  -0.002514
    12  H    0.251096   0.038998   0.006715  -0.011393  -0.002514   0.475179
    13  H    0.038177   0.253865   0.018641  -0.007153  -0.000117  -0.003596
    14  H    0.000291   0.054076   0.210533   0.059866   0.000012  -0.000110
    15  N   -0.027610   0.006725  -0.551019  -0.163560  -0.000482   0.000244
    16  H   -0.004742  -0.004929  -0.184985  -0.069223   0.000003  -0.000000
              13         14         15         16
     1  C    0.000964   0.003661   0.568241   0.005683
     2  H   -0.000000   0.000001  -0.061414  -0.002293
     3  C    0.001670   0.001849  -0.725869  -0.034466
     4  H    0.000000   0.000002   0.006225  -0.000088
     5  C    0.021526  -0.006693   0.787106   0.216674
     6  C   -0.012662  -0.012604   0.153560   0.029541
     7  C    0.038177   0.000291  -0.027610  -0.004742
     8  C    0.253865   0.054076   0.006725  -0.004929
     9  C    0.018641   0.210533  -0.551019  -0.184985
    10  C   -0.007153   0.059866  -0.163560  -0.069223
    11  H   -0.000117   0.000012  -0.000482   0.000003
    12  H   -0.003596  -0.000110   0.000244  -0.000000
    13  H    0.474824  -0.002414  -0.000392  -0.000001
    14  H   -0.002414   0.472226  -0.006051   0.001615
    15  N   -0.000392  -0.006051   7.175792   0.289571
    16  H   -0.000001   0.001615   0.289571   0.317132
 Mulliken charges:
               1
     1  C   -0.216260
     2  H    0.236738
     3  C   -0.069102
     4  H    0.228892
     5  C    1.377717
     6  C   -0.625964
     7  C   -0.058129
     8  C   -0.469188
     9  C   -0.215647
    10  C   -1.064238
    11  H    0.227854
    12  H    0.217480
    13  H    0.216669
    14  H    0.223739
    15  N   -0.451069
    16  H    0.440507
 Sum of Mulliken charges =  -0.00000
 Mulliken charges with hydrogens summed into heavy atoms:
               1
     1  C    0.020478
     3  C    0.159790
     5  C    1.377717
     6  C   -0.398109
     7  C    0.159351
     8  C   -0.252519
     9  C    0.008092
    10  C   -1.064238
    15  N   -0.010562
 Electronic spatial extent (au):  <R**2>=           1003.2605
 Charge=             -0.0000 electrons
 Dipole moment (field-independent basis, Debye):
    X=              1.6113    Y=             -1.7561    Z=              0.0000  Tot=              2.3833
 Quadrupole moment (field-independent basis, Debye-Ang):
   XX=            -43.6644   YY=            -43.5756   ZZ=            -58.7374
   XY=             -3.8287   XZ=              0.0000   YZ=              0.0000
 Traceless Quadrupole moment (field-independent basis, Debye-Ang):
   XX=              4.9947   YY=              5.0836   ZZ=            -10.0782
   XY=             -3.8287   XZ=              0.0000   YZ=              0.0000
 Octapole moment (field-independent basis, Debye-Ang**2):
  XXX=             16.7502  YYY=            -10.7700  ZZZ=             -0.0000  XYY=              7.0224
  XXY=             -9.0228  XXZ=             -0.0000  XZZ=              2.1830  YZZ=             -2.1391
  YYZ=              0.0000  XYZ=              0.0000
 Hexadecapole moment (field-independent basis, Debye-Ang**3):
 XXXX=           -782.7541 YYYY=           -358.3516 ZZZZ=            -70.3760 XXXY=            -25.2119
 XXXZ=              0.0000 YYYX=            -21.1164 YYYZ=             -0.0000 ZZZX=              0.0000
 ZZZY=              0.0000 XXYY=           -193.1165 XXZZ=           -187.0291 YYZZ=            -92.8647
 XXYZ=              0.0000 YYXZ=              0.0000 ZZXY=             -4.6978
 N-N= 4.013409178453D+02 E-N=-1.644245016353D+03  KE= 3.591687297095D+02
 1\1\GINC-COMET-10-06\FOpt\RLC-PBEPBE TD-FC\6-31+G(d)\C8H7N1\GFOLEY1\12
 -Jun-2018\0\\# opt td=(root=1) LC-PBEPBE/6-31+g(d) geom=connectivity\\
 Title Card Required\\0,1\C,-1.3703538562,2.0866384995,1.4110215653\H,-
 2.2994445205,2.0134897,1.959070204\C,-0.0268491355,2.0052731921,1.8573
 409964\H,0.2681318989,1.8466413762,2.8871735499\C,0.8042446731,2.16222
 23873,0.7612881116\C,2.2199726566,2.1728556815,0.593644347\C,2.7139034
 43,2.3642755803,-0.7074246732\C,1.8827184469,2.5351019719,-1.781140258
 6\C,0.443415943,2.5284992831,-1.6385536558\C,-0.0256334555,2.341187329
 6,-0.3663937602\H,2.883398578,2.0378981102,1.4414450342\H,3.7886619809
 ,2.3770396863,-0.8657545148\H,2.3024319445,2.6804847802,-2.7723633868\
 H,-0.2071887004,2.6647697997,-2.495922027\N,-1.3316088989,2.2855171005
 ,0.0918422258\H,-2.143824498,2.3836448592,-0.5019353382\\Version=ES64L
 -G16RevB.01\State=1-A\HF=-362.5431667\RMSD=6.922e-09\RMSF=5.709e-05\Di
 pole=-1.5604534,-0.0280922,0.2931573\PG=C01 [X(C8H7N1)]\\@


 WHAT THE SLIME CONTAINS, THE GLOWING REVEALS
 BY THE FLAME'S BRIGHT HUE WHEN YOU IGNITE IT.
   --  LEONARD THURNEYSSER, 1531-1596
 DESCRIBING HIS FLAME PHOTOLYSIS ANALYTIC METHOD
 Job cpu time:       0 days  1 hours 44 minutes 29.8 seconds.
 Elapsed time:       0 days  1 hours 44 minutes 42.8 seconds.
 File lengths (MBytes):  RWF=    209 Int=      0 D2E=      0 Chk=      8 Scr=      1
 Normal termination of Gaussian 16 at Tue Jun 12 14:57:07 2018.
