
Running Job 1 of 1 indole-tddft-wB97X-1.in
qchem indole-tddft-wB97X-1.in_48206.0 /scratch/scaparas/job_3318602/qchem48206/ 0
/cm/shared/apps/spack/cpu/opt/spack/linux-centos8-zen2/gcc-10.2.0/qchem-5.3-5qddma6gy34jvefiv7mbcb7qm253n45r/exe/qcprog.exe_s indole-tddft-wB97X-1.in_48206.0 /scratch/scaparas/job_3318602/qchem48206/
                  Welcome to Q-Chem
     A Quantum Leap Into The Future Of Chemistry


 Q-Chem 5.3, Q-Chem, Inc., Pleasanton, CA (2020)

 License issued to: University of California, San Diego (site)

 Yihan Shao,  Zhengting Gan,  E. Epifanovsky,  A. T. B. Gilbert,  M. Wormit,  
 J. Kussmann,  A. W. Lange,  A. Behn,  Jia Deng,  Xintian Feng,  D. Ghosh,  
 M. Goldey,  P. R. Horn,  L. D. Jacobson,  I. Kaliman,  T. Kus,  A. Landau,  
 Jie Liu,  E. I. Proynov,  R. M. Richard,  R. P. Steele,  E. J. Sundstrom,  
 H. L. Woodcock III,  P. M. Zimmerman,  D. Zuev,  B. Alam,  B. Albrecht,  
 A. Aldossary,  E. Alguire,  S. A. Baeppler,  D. Barton,  Z. Benda,  
 Y. A. Bernard,  E. J. Berquist,  K. B. Bravaya,  H. Burton,  K. Carter-Fenk,  
 D. Casanova,  Chun-Min Chang,  Yunqing Chen,  A. Chien,  K. D. Closser,  
 M. P. Coons,  S. Coriani,  S. Dasgupta,  A. L. Dempwolff,  M. Diedenhofen,  
 Hainam Do,  R. G. Edgar,  Po-Tung Fang,  S. Faraji,  S. Fatehi,  
 Qingguo Feng,  J. Fosso-Tande,  J. Gayvert,  Qinghui Ge,  A. Ghysels,  
 G. Gidofalvi,  J. Gomes,  J. Gonthier,  S. Gulania,  A. Gunina,  D. Hait,  
 M. W. D. Hanson-Heine,  S. Hammes-Schiffer,  P. H. P. Harbach,  
 A. W. Hauser,  M. F. Herbst,  J. E. Herr,  E. G. Hohenstein,  Z. C. Holden,  
 S. Houck,  Kerwin Hui,  B. C. Huynh,  M. Ivanov,  T.-C. Jagau,  Hyunjun Ji,  
 B. Kaduk,  K. Khistyaev,  Jaehoon Kim,  P. Klunzinger,  K. Koh,  
 D. Kosenkov,  L. Koulias,  T. Kowalczyk,  C. M. Krauter,  A. Kunitsa,  
 Ka Un Lao,  A. Laurent,  K. V. Lawler,  Joonho Lee,  D. Lefrancois,  
 S. Lehtola,  D. S. Levine,  Yi-Pei Li,  You-Sheng Lin,  Fenglai Liu,  
 Kuan-Yu Liu,  E. Livshits,  M. Loipersberger,  A. Luenser,  P. Manohar,  
 E. Mansoor,  S. F. Manzer,  Shan-Ping Mao,  Yuezhi Mao,  N. Mardirossian,  
 A. V. Marenich,  T. Markovich,  L. A. Martinez-Martinez,  S. A. Maurer,  
 N. J. Mayhall,  S. C. McKenzie,  J.-M. Mewes,  P. Morgante,  A. F. Morrison,  
 J. W. Mullinax,  K. Nanda,  T. S. Nguyen-Beck,  R. Olivares-Amaya,  
 K. J. Oosterbaan,  J. A. Parkhill,  S. K. Paul,  F. Pavosevic,  Zheng Pei,  
 T. M. Perrine,  F. Plasser,  P. Pokhilko,  S. Prager,  A. Prociuk,  
 E. Ramos,  B. Rana,  D. R. Rehn,  F. Rob,  E. Rossomme,  M. Scheurer,  
 M. Schneider,  N. Sergueev,  S. M. Sharada,  S. Sharma,  W. Skomorowski,  
 D. W. Small,  T. Stauch,  C. J. Stein,  T. Stein,  Yu-Chuan Su,  
 S. P. Veccham,  Zhen Tao,  A. J. W. Thom,  A. Tkatchenko,  T. Tsuchimochi,  
 N. M. Tubman,  L. Vogt,  M. L. Vidal,  O. Vydrov,  M. A. Watson,  J. Wenzel,  
 M. de Wergifosse,  T. A. Wesolowski,  A. White,  J. Witte,  A. Yamada,  
 Jun Yang,  K. Yao,  S. Yeganeh,  S. R. Yost,  Zhi-Qiang You,  A. Zech,  
 Igor Ying Zhang,  Xing Zhang,  Yan Zhao,  Ying Zhu,  B. R. Brooks,  
 G. K. L. Chan,  C. J. Cramer,  M. S. Gordon,  W. J. Hehre,  A. Klamt,  
 M. W. Schmidt,  C. D. Sherrill,  D. G. Truhlar,  A. Aspuru-Guzik,  R. Baer,  
 A. T. Bell,  N. A. Besley,  Jeng-Da Chai,  A. E. DePrince, III,  
 R. A. DiStasio Jr.,  A. Dreuw,  B. D. Dunietz,  T. R. Furlani,  
 Chao-Ping Hsu,  Yousung Jung,  Jing Kong,  D. S. Lambrecht,  WanZhen Liang,  
 C. Ochsenfeld,  V. A. Rassolov,  L. V. Slipchenko,  J. E. Subotnik,  
 T. Van Voorhis,  J. M. Herbert,  A. I. Krylov,  P. M. W. Gill,  M. Head-Gordon

 Contributors to earlier versions of Q-Chem not listed above: 
 R. D. Adamson,  B. Austin,  J. Baker,  G. J. O. Beran,  K. Brandhorst,  
 S. T. Brown,  E. F. C. Byrd,  A. K. Chakraborty,  C.-L. Cheng,  
 Siu Hung Chien,  D. M. Chipman,  D. L. Crittenden,  H. Dachsel,  
 R. J. Doerksen,  A. D. Dutoi,  L. Fusti-Molnar,  W. A. Goddard III,  
 A. Golubeva-Zadorozhnaya,  S. R. Gwaltney,  G. Hawkins,  A. Heyden,  
 S. Hirata,  G. Kedziora,  F. J. Keil,  C. Kelley,  Jihan Kim,  R. A. King,  
 R. Z. Khaliullin,  P. P. Korambath,  W. Kurlancheek,  A. M. Lee,  M. S. Lee,  
 S. V. Levchenko,  Ching Yeh Lin,  D. Liotard,  R. C. Lochan,  I. Lotan,  
 P. E. Maslen,  N. Nair,  D. P. O'Neill,  D. Neuhauser,  E. Neuscamman,  
 C. M. Oana,  R. Olson,  B. Peters,  R. Peverati,  P. A. Pieniazek,  
 Y. M. Rhee,  J. Ritchie,  M. A. Rohrdanz,  E. Rosta,  N. J. Russ,  
 H. F. Schaefer III,  N. E. Schultz,  N. Shenvi,  A. C. Simmonett,  A. Sodt,  
 D. Stuck,  K. S. Thanthiriwatte,  V. Vanovschi,  Tao Wang,  A. Warshel,  
 C. F. Williams,  Q. Wu,  X. Xu,  W. Zhang

 Please cite Q-Chem as follows:
 Y. Shao et al., Mol. Phys. 113, 184-215 (2015)
 DOI: 10.1080/00268976.2014.952696

 Q-Chem 5.3.1 for Intel X86 EM64T Linux

 Parts of Q-Chem use Armadillo 9.800.1 (Horizon Scraper).
 http://arma.sourceforge.net/

 Q-Chem begins on Wed Jun  9 08:09:07 2021  

Host: 
0

     Scratch files written to /scratch/scaparas/job_3318602/qchem48206//
 Aug2920 |scratch|qcdevops|jenkins|workspace|build_RNUM    
Processing $rem in /cm/shared/apps/spack/cpu/opt/spack/linux-centos8-zen2/gcc-10.2.0/qchem-5.3-5qddma6gy34jvefiv7mbcb7qm253n45r/config/preferences:
Processing $rem in /home/scaparas/.qchemrc:

Checking the input file for inconsistencies... 	...done.

--------------------------------------------------------------
User input:
--------------------------------------------------------------
$molecule
0 1
C         2.1665374654   -0.6554056232    0.0000000000
C         2.1169746126    0.7536230414    0.0000000000
C         0.9078293763    1.4297941068    0.0000000000
C        -0.2602955279    0.6603427264    0.0000000000
N        -1.5823227859    1.0465645945    0.0000000000
H        -1.9138448994    1.9970952131    0.0000000000
C        -2.3831006726   -0.0753467300    0.0000000000
C        -1.6031102305   -1.1965127142    0.0000000000
C        -0.2354025284   -0.7544080528    0.0000000000
C         1.0061117308   -1.4110304737    0.0000000000
H         3.1323502333   -1.1522732729    0.0000000000
H         3.0445811710    1.3187694778    0.0000000000
H         0.8711978004    2.5159935936    0.0000000000
H        -3.4599415153    0.0224367365    0.0000000000
H        -1.9589772753   -2.2174458375    0.0000000000
H         1.0526344532   -2.4968312448    0.0000000000
$end

$rem
BASIS  =  6-31+G*
GUI  =  2
JOB_TYPE  =  Optimization
METHOD  = wB97X
SCF_CONVERGENCE  =  8
THRESH = 12
CIS_N_ROOTS  = 3
CIS_SINGLETS = true
CIS_TRIPLETS = false
CIS_STATE_DERIV = 1
$end
--------------------------------------------------------------
 ----------------------------------------------------------------
             Standard Nuclear Orientation (Angstroms)
    I     Atom           X                Y                Z
 ----------------------------------------------------------------
    1      C       2.1545809193    -0.6917179572    -0.0000000000
    2      C       2.1305971189     0.7179781205     0.0000000000
    3      C       0.9339220871     1.4159812583     0.0000000000
    4      C      -0.2479743579     0.6678555924     0.0000000000
    5      N      -1.5627747859     1.0780058536     0.0000000000
    6      H      -1.8769921819     2.0343963579     0.0000000000
    7      C      -2.3837811130    -0.0291882824    -0.0000000000
    8      C      -1.6242659160    -1.1643248026    -0.0000000000
    9      C      -0.2487601923    -0.7471139518    -0.0000000000
   10      C       0.9806332983    -1.4261590938    -0.0000000000
   11      H       3.1112175340    -1.2060312385    -0.0000000000
   12      H       3.0683071256     1.2661973878     0.0000000000
   13      H       0.9170087673     2.5026666484     0.0000000000
   14      H      -3.4586700515     0.0881214642    -0.0000000000
   15      H      -1.9986021312    -2.1786315579    -0.0000000000
   16      H       1.0074433715    -2.5126253373    -0.0000000000
 ----------------------------------------------------------------
 Molecular Point Group                 Cs    NOp =  2
 Largest Abelian Subgroup              Cs    NOp =  2
 Nuclear Repulsion Energy =         400.72813817 hartrees
 There are       31 alpha and       31 beta electrons
 Requested basis set is 6-31+G(d)
 There are 59 shells and 185 basis functions

 Total QAlloc Memory Limit   8000 MB
 Mega-Array Size       188 MB
 MEM_STATIC part       192 MB
 A cutoff of  1.0D-12 yielded   1657 shell pairs
 There are     17105 function pairs
 Smallest overlap matrix eigenvalue = 1.29E-06

 Scale SEOQF with 1.000000e-01/1.000000e-01/1.000000e-01

 Standard Electronic Orientation quadrupole field applied
 Nucleus-field energy     =     0.0000000117 hartrees
 Guess from superposition of atomic densities
 Warning:  Energy on first SCF cycle will be non-variational
 SAD guess density has 62.000000 electrons

 -----------------------------------------------------------------------
  General SCF calculation program by
  Eric Jon Sundstrom, Paul Horn, Yuezhi Mao, Dmitri Zuev, Alec White,
  David Stuck, Shaama M.S., Shane Yost, Joonho Lee, David Small,
  Daniel Levine, Susi Lehtola, Hugh Burton, Evgeny Epifanovsky,
  Bang C. Huynh
 -----------------------------------------------------------------------
 Exchange:     0.1577 Hartree-Fock + 1.0000 wB97X + LR-HF
 Correlation:  1.0000 wB97X
 Using SG-2 standard quadrature grid
 using 4 threads for integral computing
 -------------------------------------------------------
 OpenMP Integral computing Module                
 Release: version 1.0, May 2013, Q-Chem Inc. Pittsburgh 
 -------------------------------------------------------
 using 4 threads for integral computing
 -------------------------------------------------------
 OpenMP Integral computing Module                
 Release: version 1.0, May 2013, Q-Chem Inc. Pittsburgh 
 -------------------------------------------------------
 A restricted SCF calculation will be
 performed using DIIS
 SCF converges when DIIS error is below 1.0e-08
 ---------------------------------------
  Cycle       Energy         DIIS error
 ---------------------------------------
    1    -366.9332827568      5.50e-02  
    2    -363.6647234496      3.27e-03  
    3    -363.7026511120      2.23e-03  
    4    -363.7232945566      5.58e-04  
    5    -363.7245278578      2.64e-04  
    6    -363.7248227039      3.59e-05  
    7    -363.7248319799      1.78e-05  
    8    -363.7248345771      5.34e-06  
    9    -363.7248351054      1.62e-06  
   10    -363.7248351663      1.03e-06  
   11    -363.7248351805      3.25e-07  
   12    -363.7248351829      1.59e-07  
   13    -363.7248351832      4.62e-08  
   14    -363.7248351832      1.55e-08  
   15    -363.7248351832      7.86e-09  Convergence criterion met
 ---------------------------------------
 SCF time:   CPU 91.55s  wall 33.00s 
 SCF   energy in the final basis set =     -363.7248351832
 Total energy in the final basis set =     -363.7248351832
 
 Direct TDDFT/TDA calculation will be performed
 Exchange:     0.1577 Hartree-Fock + 1.0000 wB97X + LR-HF
 Correlation:  1.0000 wB97X
 Using SG-2 standard quadrature grid
 Singlet excitation energies requested
 CIS energy converged when residual is below 10e- 6
 ---------------------------------------------------
 Iter    Rts Conv    Rts Left    Ttl Dev     Max Dev
 ---------------------------------------------------
   1         0           3      0.003725    0.001714
   2         0           3      0.001169    0.000534
   3         0           3      0.000749    0.000364
   4         0           3      0.000427    0.000183
   5         0           3      0.000173    0.000080
   6         0           3      0.000076    0.000032
   7         0           3      0.000035    0.000013
   8         0           3      0.000016    0.000005
   9         0           3      0.000006    0.000003
  10         2           1      0.000003    0.000001
  11         3           0      0.000002    0.000001    Roots Converged
 ---------------------------------------------------
 
 ---------------------------------------------------
         TDDFT/TDA Excitation Energies              
 ---------------------------------------------------

 Excited state   1: excitation energy (eV) =    5.2647
 Total energy for state  1:                  -363.53135951 au
    Multiplicity: Singlet
    Trans. Mom.:  0.4181 X   0.3094 Y   0.0000 Z
    Strength   :     0.0348943855
    D(   30) --> V(    1) amplitude =  0.7950
    D(   31) --> V(    5) amplitude =  0.5348

 Excited state   2: excitation energy (eV) =    5.4557
 Total energy for state  2:                  -363.52434224 au
    Multiplicity: Singlet
    Trans. Mom.:  0.7610 X  -0.6788 Y   0.0000 Z
    Strength   :     0.1389997227
    D(   30) --> V(    5) amplitude = -0.3602
    D(   31) --> V(    1) amplitude =  0.9037

 Excited state   3: excitation energy (eV) =    6.0213
 Total energy for state  3:                  -363.50355653 au
    Multiplicity: Singlet
    Trans. Mom.:  0.0000 X  -0.0000 Y  -0.1943 Z
    Strength   :     0.0055704092
    D(   31) --> V(    2) amplitude =  0.9204
 
 ---------------------------------------------------
 Calculating Relaxed Density
 ---------------------------------------------------
 Iter    Rts Conv    Rts Left    Ttl Dev     Max Dev
 ---------------------------------------------------
   1         0           3      0.000794    0.000350
   2         0           3      0.000333    0.000161
   3         0           3      0.000124    0.000051
   4         0           3      0.000040    0.000015
   5         0           3      0.000015    0.000006
   6         0           3      0.000005    0.000003
   7         3           0      0.000000    0.000000    Roots Converged
 ---------------------------------------------------
  SETman timing summary (seconds)
  CPU time               299.88s
  System time              0.00s
  Wall time              103.68s
 
 --------------------------------------------------------------
             Orbital Energies (a.u.) and Symmetries
 --------------------------------------------------------------
 
 Alpha MOs, Restricted
 -- Occupied --                  
-14.462 -10.309 -10.306 -10.277 -10.272 -10.272 -10.271 -10.266
  1 A'    2 A'    3 A'    4 A'    5 A'    6 A'    7 A'    8 A'                 
-10.262  -1.117  -0.974  -0.915  -0.866  -0.847  -0.748  -0.716
  9 A'   10 A'   11 A'   12 A'   13 A'   14 A'   15 A'   16 A'                 
 -0.703  -0.658  -0.596  -0.585  -0.546  -0.541  -0.539  -0.519
 17 A'   18 A'   19 A'   20 A'   21 A'    1 A"   22 A'   23 A'                 
 -0.498  -0.458  -0.447  -0.437  -0.381  -0.312  -0.294
 24 A'   25 A'    2 A"   26 A'    3 A"    4 A"    5 A"                         
 -- Virtual --                   
  0.059   0.066   0.084   0.088   0.098   0.101   0.105   0.120
  6 A"   27 A'   28 A'   29 A'    7 A"   30 A'   31 A'    8 A"                 
  0.126   0.129   0.132   0.135   0.154   0.161   0.168   0.170
 32 A'   33 A'    9 A"   34 A'   10 A"   11 A"   35 A'   36 A'                 
  0.180   0.195   0.209   0.209   0.222   0.226   0.234   0.240
 37 A'   12 A"   13 A"   38 A'   39 A'   14 A"   40 A'   15 A"                 
  0.240   0.254   0.257   0.260   0.266   0.272   0.278   0.289
 41 A'   42 A'   43 A'   16 A"   44 A'   45 A'   46 A'   47 A'                 
  0.290   0.299   0.304   0.308   0.315   0.316   0.328   0.334
 17 A"   48 A'   49 A'   50 A'   18 A"   51 A'   52 A'   53 A'                 
  0.345   0.347   0.363   0.375   0.390   0.400   0.401   0.417
 54 A'   55 A'   56 A'   57 A'   58 A'   59 A'   60 A'   61 A'                 
  0.437   0.460   0.470   0.494   0.541   0.549   0.617   0.687
 62 A'   63 A'   64 A'   65 A'   66 A'   67 A'   68 A'   69 A'                 
  0.734   0.777   0.780   0.803   0.822   0.825   0.839   0.841
 70 A'   19 A"   71 A'   20 A"   72 A'   21 A"   73 A'   22 A"                 
  0.850   0.857   0.865   0.882   0.897   0.908   0.924   0.959
 74 A'   23 A"   75 A'   24 A"   25 A"   76 A'   77 A'   26 A"                 
  1.002   1.011   1.022   1.044   1.051   1.060   1.070   1.092
 78 A'   79 A'   80 A'   81 A'   82 A'   83 A'   27 A"   84 A'                 
  1.112   1.138   1.155   1.174   1.201   1.221   1.227   1.279
 85 A'   86 A'   87 A'   88 A'   89 A'   90 A'   91 A'   92 A'                 
  1.288   1.313   1.332   1.342   1.363   1.428   1.429   1.449
 93 A'   94 A'   95 A'   28 A"   96 A'   97 A'   29 A"   30 A"                 
  1.476   1.524   1.524   1.559   1.570   1.575   1.606   1.612
 98 A'   31 A"   99 A'  100 A'   32 A"   33 A"   34 A"   35 A"                 
  1.650   1.698   1.759   1.898   1.954   1.993   2.001   2.031
101 A'  102 A'  103 A'  104 A'  105 A'  106 A'   36 A"  107 A'                 
  2.049   2.103   2.105   2.116   2.176   2.210   2.250   2.283
108 A'  109 A'  110 A'   37 A"  111 A'  112 A'  113 A'  114 A'                 
  2.287   2.306   2.360   2.370   2.376   2.395   2.422   2.493
 38 A"  115 A'   39 A"   40 A"   41 A"  116 A'  117 A'   42 A"                 
  2.518   2.555   2.658   2.671   2.747   2.768   2.779   2.811
 43 A"  118 A'  119 A'   44 A"  120 A'  121 A'   45 A"  122 A'                 
  2.850   2.921   2.957   2.970   3.064   3.090   3.223   3.356
123 A'  124 A'  125 A'  126 A'  127 A'  128 A'  129 A'  130 A'                 
  3.555   4.269   4.380   4.412   4.447   4.482   4.519   4.602
131 A'  132 A'  133 A'  134 A'  135 A'  136 A'  137 A'  138 A'                 
  4.642   4.909
139 A'  140 A'                                                                 
 
 Beta MOs, Restricted
 -- Occupied --                  
-14.462 -10.309 -10.306 -10.277 -10.272 -10.272 -10.271 -10.266
  1 A'    2 A'    3 A'    4 A'    5 A'    6 A'    7 A'    8 A'                 
-10.262  -1.117  -0.974  -0.915  -0.866  -0.847  -0.748  -0.716
  9 A'   10 A'   11 A'   12 A'   13 A'   14 A'   15 A'   16 A'                 
 -0.703  -0.658  -0.596  -0.585  -0.546  -0.541  -0.539  -0.519
 17 A'   18 A'   19 A'   20 A'   21 A'    1 A"   22 A'   23 A'                 
 -0.498  -0.458  -0.447  -0.437  -0.381  -0.312  -0.294
 24 A'   25 A'    2 A"   26 A'    3 A"    4 A"    5 A"                         
 -- Virtual --                   
  0.059   0.066   0.084   0.088   0.098   0.101   0.105   0.120
  6 A"   27 A'   28 A'   29 A'    7 A"   30 A'   31 A'    8 A"                 
  0.126   0.129   0.132   0.135   0.154   0.161   0.168   0.170
 32 A'   33 A'    9 A"   34 A'   10 A"   11 A"   35 A'   36 A'                 
  0.180   0.195   0.209   0.209   0.222   0.226   0.234   0.240
 37 A'   12 A"   13 A"   38 A'   39 A'   14 A"   40 A'   15 A"                 
  0.240   0.254   0.257   0.260   0.266   0.272   0.278   0.289
 41 A'   42 A'   43 A'   16 A"   44 A'   45 A'   46 A'   47 A'                 
  0.290   0.299   0.304   0.308   0.315   0.316   0.328   0.334
 17 A"   48 A'   49 A'   50 A'   18 A"   51 A'   52 A'   53 A'                 
  0.345   0.347   0.363   0.375   0.390   0.400   0.401   0.417
 54 A'   55 A'   56 A'   57 A'   58 A'   59 A'   60 A'   61 A'                 
  0.437   0.460   0.470   0.494   0.541   0.549   0.617   0.687
 62 A'   63 A'   64 A'   65 A'   66 A'   67 A'   68 A'   69 A'                 
  0.734   0.777   0.780   0.803   0.822   0.825   0.839   0.841
 70 A'   19 A"   71 A'   20 A"   72 A'   21 A"   73 A'   22 A"                 
  0.850   0.857   0.865   0.882   0.897   0.908   0.924   0.959
 74 A'   23 A"   75 A'   24 A"   25 A"   76 A'   77 A'   26 A"                 
  1.002   1.011   1.022   1.044   1.051   1.060   1.070   1.092
 78 A'   79 A'   80 A'   81 A'   82 A'   83 A'   27 A"   84 A'                 
  1.112   1.138   1.155   1.174   1.201   1.221   1.227   1.279
 85 A'   86 A'   87 A'   88 A'   89 A'   90 A'   91 A'   92 A'                 
  1.288   1.313   1.332   1.342   1.363   1.428   1.429   1.449
 93 A'   94 A'   95 A'   28 A"   96 A'   97 A'   29 A"   30 A"                 
  1.476   1.524   1.524   1.559   1.570   1.575   1.606   1.612
 98 A'   31 A"   99 A'  100 A'   32 A"   33 A"   34 A"   35 A"                 
  1.650   1.698   1.759   1.898   1.954   1.993   2.001   2.031
101 A'  102 A'  103 A'  104 A'  105 A'  106 A'   36 A"  107 A'                 
  2.049   2.103   2.105   2.116   2.176   2.210   2.250   2.283
108 A'  109 A'  110 A'   37 A"  111 A'  112 A'  113 A'  114 A'                 
  2.287   2.306   2.360   2.370   2.376   2.395   2.422   2.493
 38 A"  115 A'   39 A"   40 A"   41 A"  116 A'  117 A'   42 A"                 
  2.518   2.555   2.658   2.671   2.747   2.768   2.779   2.811
 43 A"  118 A'  119 A'   44 A"  120 A'  121 A'   45 A"  122 A'                 
  2.850   2.921   2.957   2.970   3.064   3.090   3.223   3.356
123 A'  124 A'  125 A'  126 A'  127 A'  128 A'  129 A'  130 A'                 
  3.555   4.269   4.380   4.412   4.447   4.482   4.519   4.602
131 A'  132 A'  133 A'  134 A'  135 A'  136 A'  137 A'  138 A'                 
  4.642   4.909
139 A'  140 A'                                                                 
 --------------------------------------------------------------
 
          Ground-State Mulliken Net Atomic Charges

     Atom                 Charge (a.u.)
  ----------------------------------------
      1 C                    -0.048337
      2 C                    -0.441692
      3 C                    -0.083633
      4 C                    -0.707873
      5 N                    -0.564391
      6 H                     0.430168
      7 C                    -0.246265
      8 C                     0.094526
      9 C                     0.873317
     10 C                    -0.536085
     11 H                     0.196175
     12 H                     0.197313
     13 H                     0.202035
     14 H                     0.215347
     15 H                     0.214682
     16 H                     0.204712
  ----------------------------------------
  Sum of atomic charges =     0.000000

 -----------------------------------------------------------------
                    Cartesian Multipole Moments
 -----------------------------------------------------------------
    Charge (ESU x 10^10)
                -0.0000
    Dipole Moment (Debye)
         X      -1.4732      Y       1.5749      Z      -0.0000
       Tot       2.1565
    Quadrupole Moments (Debye-Ang)
        XX     -44.9128     XY      -3.1876     YY     -44.1017
        XZ       0.0000     YZ       0.0000     ZZ     -58.7842
    Octopole Moments (Debye-Ang^2)
       XXX     -14.7939    XXY       8.3882    XYY      -7.8666
       YYY      10.5059    XXZ      -0.0000    XYZ       0.0000
       YYZ       0.0000    XZZ      -2.0103    YZZ       2.0249
       ZZZ      -0.0000
    Hexadecapole Moments (Debye-Ang^3)
      XXXX    -806.5448   XXXY     -21.7902   XXYY    -194.6658
      XYYY     -19.6933   YYYY    -365.1745   XXXZ       0.0000
      XXYZ       0.0000   XYYZ      -0.0000   YYYZ      -0.0000
      XXZZ    -188.2887   XYZZ      -3.9099   YYZZ     -93.1607
      XZZZ      -0.0000   YZZZ      -0.0000   ZZZZ     -71.7769
 -----------------------------------------------------------------
 Calculating analytic gradient of the CIS energy
 CIS relaxed dipole moment
            1
    1  -0.7511087
    2   0.5080146
    3  -0.0000000
	Magnitude:	 0.907 au	 2.305 Debye
 CIS 1 State Energy is -363.5313595056
 Gradient of the state energy (including CIS Excitation Energy)
            1           2           3           4           5           6
    1  -0.0231720  -0.0254436   0.0129944   0.0134992  -0.0207948  -0.0002033
    2  -0.0049623  -0.0024740  -0.0254879  -0.0288486  -0.0050392  -0.0010406
    3   0.0000000   0.0000000   0.0000000   0.0000000  -0.0000000   0.0000000
            7           8           9          10          11          12
    1   0.0191000  -0.0064879   0.0087551   0.0212360  -0.0003253  -0.0001949
    2   0.0084310   0.0017371   0.0296508   0.0268610   0.0000286   0.0003477
    3  -0.0000000   0.0000000  -0.0000000  -0.0000000  -0.0000000   0.0000000
           13          14          15          16
    1   0.0002603   0.0005099  -0.0000009   0.0002679
    2   0.0000755   0.0000826   0.0007627  -0.0001244
    3  -0.0000000  -0.0000000  -0.0000000   0.0000000
 Gradient time:  CPU 48.83 s  wall 16.54 s
 Geometry Optimization Parameters
   NAtoms,    NIC,     NZ,  NCons,   NDum,   NFix, NCnnct, MaxDiis
       16     116       0       0       0       0       0       0


** GEOMETRY OPTIMIZATION IN DELOCALIZED INTERNAL COORDINATES **
   Searching for a Minimum

   Optimization Cycle:   1

                       Coordinates (Angstroms)
     ATOM                X               Y               Z
      1  C         2.1545809193   -0.6917179572    0.0000000000
      2  C         2.1305971189    0.7179781205    0.0000000000
      3  C         0.9339220871    1.4159812583    0.0000000000
      4  C        -0.2479743579    0.6678555924    0.0000000000
      5  N        -1.5627747859    1.0780058536    0.0000000000
      6  H        -1.8769921819    2.0343963579    0.0000000000
      7  C        -2.3837811130   -0.0291882824    0.0000000000
      8  C        -1.6242659160   -1.1643248026    0.0000000000
      9  C        -0.2487601923   -0.7471139518    0.0000000000
     10  C         0.9806332983   -1.4261590938    0.0000000000
     11  H         3.1112175340   -1.2060312385    0.0000000000
     12  H         3.0683071256    1.2661973878    0.0000000000
     13  H         0.9170087673    2.5026666484    0.0000000000
     14  H        -3.4586700515    0.0881214642    0.0000000000
     15  H        -1.9986021312   -2.1786315579    0.0000000000
     16  H         1.0074433715   -2.5126253373    0.0000000000
   Point Group: cs    Number of degrees of freedom:    29


   Energy is   -363.531359506


 Attempting to generate delocalized internal coordinates
 Initial Hessian constructed with Jon Baker's OPTIMIZE code

 29 Hessian modes will be used to form the next step
  Hessian Eigenvalues:
     0.160000    0.160000    0.160000    0.160000    0.160000    0.160000
     0.160000    0.220000    0.221874    0.226615    0.240154    0.246535
     0.351831    0.351854    0.352547    0.352641    0.358411    0.358524
     0.370243    0.381736    0.421745    0.429383    0.450758    0.465320
     0.465358    0.471677    0.475377    0.478120    0.507735

 Minimum search - taking simple RFO step
 Searching for Lamda that Minimizes Along All modes
 Value Taken    Lamda =  -0.00899304
 Step Taken.  Stepsize is  0.142973

                             Maximum     Tolerance    Cnvgd?
         Gradient           0.036645      0.000300      NO
         Displacement       0.085158      0.001200      NO
         Energy change     *********      0.000001      NO


 New Cartesian Coordinates Obtained by Inverse Iteration

 Displacement from previous Coordinates is:  0.190469
 ----------------------------------------------------------------
             Standard Nuclear Orientation (Angstroms)
    I     Atom           X                Y                Z
 ----------------------------------------------------------------
    1      C       2.1683164628    -0.6936272541     0.0000000000
    2      C       2.1565498909     0.7362432420     0.0000000000
    3      C       0.9373730625     1.4542695483     0.0000000000
    4      C      -0.2495314464     0.6849125938     0.0000000000
    5      N      -1.5596143841     1.0793797209     0.0000000000
    6      H      -1.8719394546     2.0374774913     0.0000000000
    7      C      -2.4019318908    -0.0362049851     0.0000000000
    8      C      -1.6370691405    -1.1757725261     0.0000000000
    9      C      -0.2601094366    -0.7692603474     0.0000000000
   10      C       0.9713311186    -1.4597707452     0.0000000000
   11      H       3.1261214042    -1.2066938168     0.0000000000
   12      H       3.0991163247     1.2760471194     0.0000000000
   13      H       0.9151850587     2.5407533334     0.0000000000
   14      H      -3.4771998743     0.0842077954     0.0000000000
   15      H      -2.0131954565    -2.1905125776     0.0000000000
   16      H       0.9984872540    -2.5460381305     0.0000000000
 ----------------------------------------------------------------
 Molecular Point Group                 Cs    NOp =  2
 Largest Abelian Subgroup              Cs    NOp =  2
 Nuclear Repulsion Energy =         396.78289874 hartrees
 There are       31 alpha and       31 beta electrons
 Applying Cartesian multipole field
    Component          Value
    ---------          -----
     (2,0,0)        1.00000E-11
     (0,2,0)        2.00000E-11
     (0,0,2)       -3.00000E-11
 Nucleus-field energy     =     0.0000000120 hartrees
 Requested basis set is 6-31+G(d)
 There are 59 shells and 185 basis functions
 A cutoff of  1.0D-12 yielded   1656 shell pairs
 There are     17099 function pairs
 Smallest overlap matrix eigenvalue = 1.48E-06
 Guess MOs from SCF MO coefficient file

 -----------------------------------------------------------------------
  General SCF calculation program by
  Eric Jon Sundstrom, Paul Horn, Yuezhi Mao, Dmitri Zuev, Alec White,
  David Stuck, Shaama M.S., Shane Yost, Joonho Lee, David Small,
  Daniel Levine, Susi Lehtola, Hugh Burton, Evgeny Epifanovsky,
  Bang C. Huynh
 -----------------------------------------------------------------------
 Exchange:     0.1577 Hartree-Fock + 1.0000 wB97X + LR-HF
 Correlation:  1.0000 wB97X
 Using SG-2 standard quadrature grid
 using 4 threads for integral computing
 -------------------------------------------------------
 OpenMP Integral computing Module                
 Release: version 1.0, May 2013, Q-Chem Inc. Pittsburgh 
 -------------------------------------------------------
 using 4 threads for integral computing
 -------------------------------------------------------
 OpenMP Integral computing Module                
 Release: version 1.0, May 2013, Q-Chem Inc. Pittsburgh 
 -------------------------------------------------------
 A restricted SCF calculation will be
 performed using DIIS
 SCF converges when DIIS error is below 1.0e-08
 ---------------------------------------
  Cycle       Energy         DIIS error
 ---------------------------------------
    1    -363.7172474571      9.49e-04  
    2    -363.7201885904      1.75e-04  
    3    -363.7203340615      1.06e-04  
    4    -363.7203869953      2.67e-05  
    5    -363.7203933055      1.34e-05  
    6    -363.7203952802      4.73e-06  
    7    -363.7203958176      2.94e-06  
    8    -363.7203959651      7.50e-07  
    9    -363.7203959782      3.20e-07  
   10    -363.7203959800      1.74e-07  
   11    -363.7203959803      4.26e-08  
   12    -363.7203959803      2.19e-08  
   13    -363.7203959803      5.34e-09  Convergence criterion met
 ---------------------------------------
 SCF time:   CPU 77.61s  wall 27.00s 
 SCF   energy in the final basis set =     -363.7203959803
 Total energy in the final basis set =     -363.7203959803
 
 Direct TDDFT/TDA calculation will be performed
 Exchange:     0.1577 Hartree-Fock + 1.0000 wB97X + LR-HF
 Correlation:  1.0000 wB97X
 Using SG-2 standard quadrature grid
 Singlet excitation energies requested
 CIS energy converged when residual is below 10e- 6
 ---------------------------------------------------
 Iter    Rts Conv    Rts Left    Ttl Dev     Max Dev
 ---------------------------------------------------
   1         0           3      0.003784    0.001698
   2         0           3      0.001174    0.000536
   3         0           3      0.000755    0.000349
   4         0           3      0.000429    0.000169
   5         0           3      0.000170    0.000068
   6         0           3      0.000077    0.000027
   7         0           3      0.000038    0.000016
   8         0           3      0.000020    0.000010
   9         0           3      0.000009    0.000006
  10         2           1      0.000005    0.000004
  11         2           1      0.000004    0.000003
  12         2           1      0.000003    0.000001
  13         3           0      0.000002    0.000001    Roots Converged
 ---------------------------------------------------
 
 ---------------------------------------------------
         TDDFT/TDA Excitation Energies              
 ---------------------------------------------------

 Excited state   1: excitation energy (eV) =    5.0214
 Total energy for state  1:                  -363.53586376 au
    Multiplicity: Singlet
    Trans. Mom.:  0.4855 X   0.3811 Y  -0.0000 Z
    Strength   :     0.0468703067
    D(   30) --> V(    1) amplitude =  0.8018
    D(   31) --> V(    5) amplitude = -0.5106

 Excited state   2: excitation energy (eV) =    5.3170
 Total energy for state  2:                  -363.52500165 au
    Multiplicity: Singlet
    Trans. Mom.:  0.7059 X  -0.6769 Y  -0.0000 Z
    Strength   :     0.1245964053
    D(   30) --> V(    5) amplitude =  0.3841
    D(   31) --> V(    1) amplitude =  0.8809

 Excited state   3: excitation energy (eV) =    6.0362
 Total energy for state  3:                  -363.49856832 au
    Multiplicity: Singlet
    Trans. Mom.: -0.0000 X  -0.0000 Y  -0.1858 Z
    Strength   :     0.0051053143
    D(   31) --> V(    2) amplitude =  0.9142
 
 ---------------------------------------------------
 Calculating Relaxed Density
 ---------------------------------------------------
 Iter    Rts Conv    Rts Left    Ttl Dev     Max Dev
 ---------------------------------------------------
   1         0           3      0.000785    0.000358
   2         0           3      0.000334    0.000167
   3         0           3      0.000128    0.000052
   4         0           3      0.000044    0.000019
   5         0           3      0.000019    0.000009
   6         0           3      0.000006    0.000003
   7         3           0      0.000000    0.000000    Roots Converged
 ---------------------------------------------------
  SETman timing summary (seconds)
  CPU time               314.57s
  System time              0.00s
  Wall time              108.85s
 
 --------------------------------------------------------------
             Orbital Energies (a.u.) and Symmetries
 --------------------------------------------------------------
 
 Alpha MOs, Restricted
 -- Occupied --                  
-14.464 -10.313 -10.312 -10.283 -10.279 -10.279 -10.277 -10.273
  1 A'    2 A'    3 A'    4 A'    5 A'    6 A'    7 A'    8 A'                 
-10.266  -1.113  -0.963  -0.915  -0.859  -0.846  -0.747  -0.715
  9 A'   10 A'   11 A'   12 A'   13 A'   14 A'   15 A'   16 A'                 
 -0.700  -0.654  -0.600  -0.581  -0.544  -0.540  -0.538  -0.517
 17 A'   18 A'   19 A'   20 A'   21 A'   22 A'    1 A"   23 A'                 
 -0.499  -0.457  -0.439  -0.439  -0.383  -0.306  -0.294
 24 A'   25 A'    2 A"   26 A'    3 A"    4 A"    5 A"                         
 -- Virtual --                   
  0.053   0.066   0.084   0.088   0.093   0.101   0.104   0.119
  6 A"   27 A'   28 A'   29 A'    7 A"   30 A'   31 A'    8 A"                 
  0.126   0.129   0.131   0.135   0.154   0.160   0.167   0.169
 32 A'   33 A'    9 A"   34 A'   10 A"   11 A"   35 A'   36 A'                 
  0.181   0.195   0.207   0.208   0.221   0.226   0.234   0.238
 37 A'   12 A"   13 A"   38 A'   39 A'   14 A"   40 A'   15 A"                 
  0.239   0.255   0.256   0.259   0.266   0.272   0.273   0.285
 41 A'   42 A'   43 A'   16 A"   44 A'   45 A'   46 A'   17 A"                 
  0.288   0.298   0.301   0.308   0.309   0.314   0.328   0.333
 47 A'   48 A'   49 A'   50 A'   18 A"   51 A'   52 A'   53 A'                 
  0.340   0.345   0.363   0.371   0.383   0.393   0.397   0.411
 54 A'   55 A'   56 A'   57 A'   58 A'   59 A'   60 A'   61 A'                 
  0.428   0.454   0.463   0.486   0.528   0.545   0.610   0.668
 62 A'   63 A'   64 A'   65 A'   66 A'   67 A'   68 A'   69 A'                 
  0.704   0.778   0.778   0.803   0.813   0.825   0.837   0.841
 70 A'   71 A'   19 A"   20 A"   72 A'   21 A"   73 A'   74 A'                 
  0.842   0.857   0.859   0.881   0.896   0.898   0.921   0.956
 22 A"   23 A"   75 A'   24 A"   25 A"   76 A'   77 A'   26 A"                 
  0.999   1.009   1.020   1.045   1.053   1.061   1.069   1.094
 78 A'   79 A'   80 A'   81 A'   82 A'   83 A'   27 A"   84 A'                 
  1.102   1.137   1.155   1.173   1.197   1.217   1.221   1.274
 85 A'   86 A'   87 A'   88 A'   89 A'   90 A'   91 A'   92 A'                 
  1.283   1.308   1.329   1.343   1.351   1.420   1.429   1.449
 93 A'   94 A'   95 A'   28 A"   96 A'   97 A'   29 A"   30 A"                 
  1.469   1.510   1.519   1.544   1.567   1.579   1.601   1.604
 98 A'   99 A'   31 A"  100 A'   32 A"   33 A"   34 A"   35 A"                 
  1.640   1.690   1.751   1.894   1.932   1.984   1.995   2.013
101 A'  102 A'  103 A'  104 A'  105 A'  106 A'   36 A"  107 A'                 
  2.030   2.093   2.099   2.111   2.152   2.164   2.226   2.242
108 A'  109 A'  110 A'   37 A"  111 A'  112 A'  113 A'  114 A'                 
  2.260   2.294   2.336   2.346   2.364   2.371   2.404   2.472
 38 A"  115 A'   39 A"   40 A"   41 A"  116 A'  117 A'   42 A"                 
  2.512   2.546   2.640   2.652   2.730   2.735   2.754   2.784
 43 A"  118 A'  119 A'   44 A"  120 A'   45 A"  121 A'  122 A'                 
  2.822   2.896   2.935   2.942   3.062   3.071   3.202   3.329
123 A'  124 A'  125 A'  126 A'  127 A'  128 A'  129 A'  130 A'                 
  3.487   4.258   4.357   4.409   4.440   4.477   4.514   4.594
131 A'  132 A'  133 A'  134 A'  135 A'  136 A'  137 A'  138 A'                 
  4.636   4.884
139 A'  140 A'                                                                 
 
 Beta MOs, Restricted
 -- Occupied --                  
-14.464 -10.313 -10.312 -10.283 -10.279 -10.279 -10.277 -10.273
  1 A'    2 A'    3 A'    4 A'    5 A'    6 A'    7 A'    8 A'                 
-10.266  -1.113  -0.963  -0.915  -0.859  -0.846  -0.747  -0.715
  9 A'   10 A'   11 A'   12 A'   13 A'   14 A'   15 A'   16 A'                 
 -0.700  -0.654  -0.600  -0.581  -0.544  -0.540  -0.538  -0.517
 17 A'   18 A'   19 A'   20 A'   21 A'   22 A'    1 A"   23 A'                 
 -0.499  -0.457  -0.439  -0.439  -0.383  -0.306  -0.294
 24 A'   25 A'    2 A"   26 A'    3 A"    4 A"    5 A"                         
 -- Virtual --                   
  0.053   0.066   0.084   0.088   0.093   0.101   0.104   0.119
  6 A"   27 A'   28 A'   29 A'    7 A"   30 A'   31 A'    8 A"                 
  0.126   0.129   0.131   0.135   0.154   0.160   0.167   0.169
 32 A'   33 A'    9 A"   34 A'   10 A"   11 A"   35 A'   36 A'                 
  0.181   0.195   0.207   0.208   0.221   0.226   0.234   0.238
 37 A'   12 A"   13 A"   38 A'   39 A'   14 A"   40 A'   15 A"                 
  0.239   0.255   0.256   0.259   0.266   0.272   0.273   0.285
 41 A'   42 A'   43 A'   16 A"   44 A'   45 A'   46 A'   17 A"                 
  0.288   0.298   0.301   0.308   0.309   0.314   0.328   0.333
 47 A'   48 A'   49 A'   50 A'   18 A"   51 A'   52 A'   53 A'                 
  0.340   0.345   0.363   0.371   0.383   0.393   0.397   0.411
 54 A'   55 A'   56 A'   57 A'   58 A'   59 A'   60 A'   61 A'                 
  0.428   0.454   0.463   0.486   0.528   0.545   0.610   0.668
 62 A'   63 A'   64 A'   65 A'   66 A'   67 A'   68 A'   69 A'                 
  0.704   0.778   0.778   0.803   0.813   0.825   0.837   0.841
 70 A'   71 A'   19 A"   20 A"   72 A'   21 A"   73 A'   74 A'                 
  0.842   0.857   0.859   0.881   0.896   0.898   0.921   0.956
 22 A"   23 A"   75 A'   24 A"   25 A"   76 A'   77 A'   26 A"                 
  0.999   1.009   1.020   1.045   1.053   1.061   1.069   1.094
 78 A'   79 A'   80 A'   81 A'   82 A'   83 A'   27 A"   84 A'                 
  1.102   1.137   1.155   1.173   1.197   1.217   1.221   1.274
 85 A'   86 A'   87 A'   88 A'   89 A'   90 A'   91 A'   92 A'                 
  1.283   1.308   1.329   1.343   1.351   1.420   1.429   1.449
 93 A'   94 A'   95 A'   28 A"   96 A'   97 A'   29 A"   30 A"                 
  1.469   1.510   1.519   1.544   1.567   1.579   1.601   1.604
 98 A'   99 A'   31 A"  100 A'   32 A"   33 A"   34 A"   35 A"                 
  1.640   1.690   1.751   1.894   1.932   1.984   1.995   2.013
101 A'  102 A'  103 A'  104 A'  105 A'  106 A'   36 A"  107 A'                 
  2.030   2.093   2.099   2.111   2.152   2.164   2.226   2.242
108 A'  109 A'  110 A'   37 A"  111 A'  112 A'  113 A'  114 A'                 
  2.260   2.294   2.336   2.346   2.364   2.371   2.404   2.472
 38 A"  115 A'   39 A"   40 A"   41 A"  116 A'  117 A'   42 A"                 
  2.512   2.546   2.640   2.652   2.730   2.735   2.754   2.784
 43 A"  118 A'  119 A'   44 A"  120 A'   45 A"  121 A'  122 A'                 
  2.822   2.896   2.935   2.942   3.062   3.071   3.202   3.329
123 A'  124 A'  125 A'  126 A'  127 A'  128 A'  129 A'  130 A'                 
  3.487   4.258   4.357   4.409   4.440   4.477   4.514   4.594
131 A'  132 A'  133 A'  134 A'  135 A'  136 A'  137 A'  138 A'                 
  4.636   4.884
139 A'  140 A'                                                                 
 --------------------------------------------------------------
 
          Ground-State Mulliken Net Atomic Charges

     Atom                 Charge (a.u.)
  ----------------------------------------
      1 C                    -0.075587
      2 C                    -0.399211
      3 C                    -0.134291
      4 C                    -0.643537
      5 N                    -0.557753
      6 H                     0.430407
      7 C                    -0.243967
      8 C                     0.101270
      9 C                     0.802742
     10 C                    -0.519642
     11 H                     0.194849
     12 H                     0.199353
     13 H                     0.204105
     14 H                     0.217605
     15 H                     0.216364
     16 H                     0.207293
  ----------------------------------------
  Sum of atomic charges =     0.000000

 -----------------------------------------------------------------
                    Cartesian Multipole Moments
 -----------------------------------------------------------------
    Charge (ESU x 10^10)
                -0.0000
    Dipole Moment (Debye)
         X      -1.5841      Y       1.5310      Z      -0.0000
       Tot       2.2030
    Quadrupole Moments (Debye-Ang)
        XX     -44.8613     XY      -2.9846     YY     -43.8938
        XZ       0.0000     YZ      -0.0000     ZZ     -59.2326
    Octopole Moments (Debye-Ang^2)
       XXX     -15.5615    XXY       8.4337    XYY      -7.9099
       YYY      10.2092    XXZ      -0.0000    XYZ      -0.0000
       YYZ       0.0000    XZZ      -2.4453    YZZ       1.9933
       ZZZ       0.0000
    Hexadecapole Moments (Debye-Ang^3)
      XXXX    -814.3181   XXXY     -21.9557   XXYY    -198.2279
      XYYY     -21.2294   YYYY    -373.8480   XXXZ       0.0000
      XXYZ      -0.0000   XYYZ      -0.0000   YYYZ       0.0000
      XXZZ    -191.7602   XYZZ      -4.6086   YYZZ     -95.9438
      XZZZ      -0.0000   YZZZ      -0.0000   ZZZZ     -73.1155
 -----------------------------------------------------------------
 Calculating analytic gradient of the CIS energy
 CIS relaxed dipole moment
            1
    1  -0.7269832
    2   0.4882758
    3  -0.0000000
	Magnitude:	 0.876 au	 2.226 Debye
 CIS 1 State Energy is -363.5358637573
 Gradient of the state energy (including CIS Excitation Energy)
            1           2           3           4           5           6
    1   0.0009525  -0.0001249   0.0013643   0.0039087  -0.0093249   0.0004044
    2  -0.0047985   0.0037723  -0.0005121  -0.0045211   0.0012400  -0.0003223
    3   0.0000000  -0.0000000   0.0000000   0.0000000  -0.0000000   0.0000000
            7           8           9          10          11          12
    1   0.0050820  -0.0025584  -0.0007292   0.0023889   0.0000810   0.0002573
    2   0.0049307  -0.0053348   0.0048549   0.0006367   0.0001429   0.0005797
    3   0.0000000  -0.0000000   0.0000000  -0.0000000   0.0000000  -0.0000000
           13          14          15          16
    1   0.0000002  -0.0005706  -0.0001056  -0.0010257
    2   0.0005899  -0.0006674   0.0000987  -0.0006895
    3  -0.0000000   0.0000000   0.0000000   0.0000000
 Gradient time:  CPU 48.33 s  wall 16.42 s
 Geometry Optimization Parameters
   NAtoms,    NIC,     NZ,  NCons,   NDum,   NFix, NCnnct, MaxDiis
       16     116       0       0       0       0       0       0

 Cartesian Hessian Update
 Hessian updated using BFGS update


** GEOMETRY OPTIMIZATION IN DELOCALIZED INTERNAL COORDINATES **
   Searching for a Minimum

   Optimization Cycle:   2

                       Coordinates (Angstroms)
     ATOM                X               Y               Z
      1  C         2.1683164628   -0.6936272541    0.0000000000
      2  C         2.1565498909    0.7362432420    0.0000000000
      3  C         0.9373730625    1.4542695483    0.0000000000
      4  C        -0.2495314464    0.6849125938    0.0000000000
      5  N        -1.5596143841    1.0793797209    0.0000000000
      6  H        -1.8719394546    2.0374774913    0.0000000000
      7  C        -2.4019318908   -0.0362049851    0.0000000000
      8  C        -1.6370691405   -1.1757725261    0.0000000000
      9  C        -0.2601094366   -0.7692603474    0.0000000000
     10  C         0.9713311186   -1.4597707452    0.0000000000
     11  H         3.1261214042   -1.2066938168    0.0000000000
     12  H         3.0991163247    1.2760471194    0.0000000000
     13  H         0.9151850587    2.5407533334    0.0000000000
     14  H        -3.4771998743    0.0842077954    0.0000000000
     15  H        -2.0131954565   -2.1905125776    0.0000000000
     16  H         0.9984872540   -2.5460381305    0.0000000000
   Point Group: cs    Number of degrees of freedom:    29


   Energy is   -363.535863757

 Hessian updated using BFGS update

 24 Hessian modes will be used to form the next step
  Hessian Eigenvalues:
     0.159649    0.160180    0.211181    0.220322    0.226874    0.240887
     0.246151    0.351450    0.351841    0.352476    0.352643    0.358335
     0.358528    0.368800    0.376328    0.421571    0.432611    0.437871
     0.458672    0.465321    0.470960    0.472237    0.491111    0.548083

 Minimum search - taking simple RFO step
 Searching for Lamda that Minimizes Along All modes
 Value Taken    Lamda =  -0.00031607
 Step Taken.  Stepsize is  0.033365

                             Maximum     Tolerance    Cnvgd?
         Gradient           0.005073      0.000300      NO
         Displacement       0.016731      0.001200      NO
         Energy change     -0.004504      0.000001      NO


 New Cartesian Coordinates Obtained by Inverse Iteration

 Displacement from previous Coordinates is:  0.038033
 ----------------------------------------------------------------
             Standard Nuclear Orientation (Angstroms)
    I     Atom           X                Y                Z
 ----------------------------------------------------------------
    1      C       2.1634861222    -0.6900331383     0.0000000000
    2      C       2.1531266323     0.7354076990     0.0000000000
    3      C       0.9347175829     1.4560436978     0.0000000000
    4      C      -0.2491467187     0.6847410018     0.0000000000
    5      N      -1.5529945950     1.0760313182     0.0000000000
    6      H      -1.8645267668     2.0349553485     0.0000000000
    7      C      -2.4046922618    -0.0376032801     0.0000000000
    8      C      -1.6358369357    -1.1725735532     0.0000000000
    9      C      -0.2598815942    -0.7731208627     0.0000000000
   10      C       0.9695612024    -1.4625353604     0.0000000000
   11      H       3.1217645322    -1.2022341999     0.0000000000
   12      H       3.0971470133     1.2710669336     0.0000000000
   13      H       0.9121702256     2.5416038055     0.0000000000
   14      H      -3.4785376402     0.0888565438     0.0000000000
   15      H      -2.0112016766    -2.1877206275     0.0000000000
   16      H       1.0067343707    -2.5474748646     0.0000000000
 ----------------------------------------------------------------
 Molecular Point Group                 Cs    NOp =  2
 Largest Abelian Subgroup              Cs    NOp =  2
 Nuclear Repulsion Energy =         397.09356158 hartrees
 There are       31 alpha and       31 beta electrons
 Applying Cartesian multipole field
    Component          Value
    ---------          -----
     (2,0,0)        1.00000E-11
     (0,2,0)        2.00000E-11
     (0,0,2)       -3.00000E-11
 Nucleus-field energy     =     0.0000000120 hartrees
 Requested basis set is 6-31+G(d)
 There are 59 shells and 185 basis functions
 A cutoff of  1.0D-12 yielded   1656 shell pairs
 There are     17099 function pairs
 Smallest overlap matrix eigenvalue = 1.46E-06
 Guess MOs from SCF MO coefficient file

 -----------------------------------------------------------------------
  General SCF calculation program by
  Eric Jon Sundstrom, Paul Horn, Yuezhi Mao, Dmitri Zuev, Alec White,
  David Stuck, Shaama M.S., Shane Yost, Joonho Lee, David Small,
  Daniel Levine, Susi Lehtola, Hugh Burton, Evgeny Epifanovsky,
  Bang C. Huynh
 -----------------------------------------------------------------------
 Exchange:     0.1577 Hartree-Fock + 1.0000 wB97X + LR-HF
 Correlation:  1.0000 wB97X
 Using SG-2 standard quadrature grid
 using 4 threads for integral computing
 -------------------------------------------------------
 OpenMP Integral computing Module                
 Release: version 1.0, May 2013, Q-Chem Inc. Pittsburgh 
 -------------------------------------------------------
 using 4 threads for integral computing
 -------------------------------------------------------
 OpenMP Integral computing Module                
 Release: version 1.0, May 2013, Q-Chem Inc. Pittsburgh 
 -------------------------------------------------------
 A restricted SCF calculation will be
 performed using DIIS
 SCF converges when DIIS error is below 1.0e-08
 ---------------------------------------
  Cycle       Energy         DIIS error
 ---------------------------------------
    1    -363.7198567099      1.70e-04  
    2    -363.7199818423      3.37e-05  
    3    -363.7199877432      2.77e-05  
    4    -363.7199909267      5.98e-06  
    5    -363.7199913471      2.37e-06  
    6    -363.7199914213      1.19e-06  
    7    -363.7199914495      4.65e-07  
    8    -363.7199914539      1.97e-07  
    9    -363.7199914544      7.81e-08  
   10    -363.7199914545      2.42e-08  
   11    -363.7199914545      1.21e-08  
   12    -363.7199914545      3.17e-09  Convergence criterion met
 ---------------------------------------
 SCF time:   CPU 71.46s  wall 26.00s 
 SCF   energy in the final basis set =     -363.7199914545
 Total energy in the final basis set =     -363.7199914545
 
 Direct TDDFT/TDA calculation will be performed
 Exchange:     0.1577 Hartree-Fock + 1.0000 wB97X + LR-HF
 Correlation:  1.0000 wB97X
 Using SG-2 standard quadrature grid
 Singlet excitation energies requested
 CIS energy converged when residual is below 10e- 6
 ---------------------------------------------------
 Iter    Rts Conv    Rts Left    Ttl Dev     Max Dev
 ---------------------------------------------------
   1         0           3      0.003796    0.001694
   2         0           3      0.001172    0.000529
   3         0           3      0.000752    0.000341
   4         0           3      0.000427    0.000169
   5         0           3      0.000169    0.000066
   6         0           3      0.000077    0.000027
   7         0           3      0.000039    0.000018
   8         0           3      0.000021    0.000012
   9         0           3      0.000010    0.000007
  10         2           1      0.000006    0.000005
  11         2           1      0.000004    0.000003
  12         2           1      0.000003    0.000002
  13         3           0      0.000002    0.000001    Roots Converged
 ---------------------------------------------------
 
 ---------------------------------------------------
         TDDFT/TDA Excitation Energies              
 ---------------------------------------------------

 Excited state   1: excitation energy (eV) =    5.0049
 Total energy for state  1:                  -363.53606522 au
    Multiplicity: Singlet
    Trans. Mom.: -0.5024 X  -0.4166 Y  -0.0000 Z
    Strength   :     0.0522271475
    D(   30) --> V(    1) amplitude =  0.7975
    D(   31) --> V(    5) amplitude =  0.4943

 Excited state   2: excitation energy (eV) =    5.3129
 Total energy for state  2:                  -363.52474650 au
    Multiplicity: Singlet
    Trans. Mom.:  0.7050 X  -0.6775 Y  -0.0000 Z
    Strength   :     0.1244499296
    D(   30) --> V(    5) amplitude = -0.3772
    D(   31) --> V(    1) amplitude =  0.8699

 Excited state   3: excitation energy (eV) =    6.0374
 Total energy for state  3:                  -363.49812166 au
    Multiplicity: Singlet
    Trans. Mom.:  0.0000 X   0.0000 Y  -0.1784 Z
    Strength   :     0.0047090499
    D(   31) --> V(    2) amplitude =  0.9121
 
 ---------------------------------------------------
 Calculating Relaxed Density
 ---------------------------------------------------
 Iter    Rts Conv    Rts Left    Ttl Dev     Max Dev
 ---------------------------------------------------
   1         0           3      0.000787    0.000360
   2         0           3      0.000338    0.000170
   3         0           3      0.000130    0.000056
   4         0           3      0.000045    0.000021
   5         0           3      0.000020    0.000010
   6         0           3      0.000006    0.000003
   7         3           0      0.000000    0.000000    Roots Converged
 ---------------------------------------------------
  SETman timing summary (seconds)
  CPU time               313.92s
  System time              0.00s
  Wall time              108.13s
 
 --------------------------------------------------------------
             Orbital Energies (a.u.) and Symmetries
 --------------------------------------------------------------
 
 Alpha MOs, Restricted
 -- Occupied --                  
-14.464 -10.313 -10.312 -10.282 -10.279 -10.279 -10.277 -10.272
  1 A'    2 A'    3 A'    4 A'    5 A'    6 A'    7 A'    8 A'                 
-10.266  -1.114  -0.963  -0.915  -0.859  -0.846  -0.747  -0.715
  9 A'   10 A'   11 A'   12 A'   13 A'   14 A'   15 A'   16 A'                 
 -0.700  -0.654  -0.601  -0.581  -0.543  -0.539  -0.538  -0.517
 17 A'   18 A'   19 A'   20 A'   21 A'   22 A'    1 A"   23 A'                 
 -0.499  -0.457  -0.439  -0.439  -0.383  -0.306  -0.294
 24 A'   25 A'    2 A"   26 A'    3 A"    4 A"    5 A"                         
 -- Virtual --                   
  0.052   0.066   0.084   0.088   0.094   0.101   0.104   0.120
  6 A"   27 A'   28 A'   29 A'    7 A"   30 A'   31 A'    8 A"                 
  0.126   0.129   0.131   0.135   0.154   0.160   0.167   0.169
 32 A'   33 A'    9 A"   34 A'   10 A"   11 A"   35 A'   36 A'                 
  0.181   0.195   0.207   0.208   0.221   0.226   0.234   0.238
 37 A'   12 A"   13 A"   38 A'   39 A'   14 A"   40 A'   15 A"                 
  0.238   0.256   0.256   0.259   0.266   0.272   0.273   0.285
 41 A'   42 A'   43 A'   16 A"   44 A'   45 A'   46 A'   17 A"                 
  0.288   0.298   0.301   0.308   0.310   0.314   0.328   0.333
 47 A'   48 A'   49 A'   50 A'   18 A"   51 A'   52 A'   53 A'                 
  0.340   0.345   0.364   0.371   0.384   0.394   0.398   0.411
 54 A'   55 A'   56 A'   57 A'   58 A'   59 A'   60 A'   61 A'                 
  0.428   0.455   0.464   0.487   0.528   0.548   0.611   0.668
 62 A'   63 A'   64 A'   65 A'   66 A'   67 A'   68 A'   69 A'                 
  0.704   0.778   0.778   0.803   0.812   0.825   0.839   0.842
 70 A'   71 A'   19 A"   20 A"   72 A'   21 A"   73 A'   22 A"                 
  0.842   0.857   0.860   0.881   0.896   0.899   0.920   0.956
 74 A'   23 A"   75 A'   24 A"   25 A"   76 A'   77 A'   26 A"                 
  0.999   1.009   1.020   1.046   1.053   1.061   1.069   1.094
 78 A'   79 A'   80 A'   81 A'   82 A'   83 A'   27 A"   84 A'                 
  1.102   1.137   1.156   1.173   1.197   1.218   1.222   1.274
 85 A'   86 A'   87 A'   88 A'   89 A'   90 A'   91 A'   92 A'                 
  1.284   1.310   1.329   1.343   1.350   1.420   1.430   1.449
 93 A'   94 A'   95 A'   28 A"   96 A'   97 A'   29 A"   30 A"                 
  1.470   1.510   1.517   1.543   1.570   1.579   1.602   1.604
 98 A'   99 A'   31 A"  100 A'   32 A"   33 A"   34 A"   35 A"                 
  1.641   1.693   1.750   1.895   1.933   1.987   1.996   2.013
101 A'  102 A'  103 A'  104 A'  105 A'  106 A'   36 A"  107 A'                 
  2.033   2.096   2.101   2.112   2.151   2.161   2.229   2.243
108 A'  109 A'  110 A'   37 A"  111 A'  112 A'  113 A'  114 A'                 
  2.257   2.299   2.336   2.344   2.370   2.370   2.406   2.473
 38 A"  115 A'   39 A"   40 A"   41 A"  116 A'  117 A'   42 A"                 
  2.515   2.547   2.643   2.656   2.729   2.736   2.755   2.785
 43 A"  118 A'  119 A'   44 A"  120 A'   45 A"  121 A'  122 A'                 
  2.823   2.897   2.936   2.945   3.067   3.073   3.203   3.334
123 A'  124 A'  125 A'  126 A'  127 A'  128 A'  129 A'  130 A'                 
  3.490   4.258   4.359   4.410   4.441   4.478   4.515   4.595
131 A'  132 A'  133 A'  134 A'  135 A'  136 A'  137 A'  138 A'                 
  4.637   4.886
139 A'  140 A'                                                                 
 
 Beta MOs, Restricted
 -- Occupied --                  
-14.464 -10.313 -10.312 -10.282 -10.279 -10.279 -10.277 -10.272
  1 A'    2 A'    3 A'    4 A'    5 A'    6 A'    7 A'    8 A'                 
-10.266  -1.114  -0.963  -0.915  -0.859  -0.846  -0.747  -0.715
  9 A'   10 A'   11 A'   12 A'   13 A'   14 A'   15 A'   16 A'                 
 -0.700  -0.654  -0.601  -0.581  -0.543  -0.539  -0.538  -0.517
 17 A'   18 A'   19 A'   20 A'   21 A'   22 A'    1 A"   23 A'                 
 -0.499  -0.457  -0.439  -0.439  -0.383  -0.306  -0.294
 24 A'   25 A'    2 A"   26 A'    3 A"    4 A"    5 A"                         
 -- Virtual --                   
  0.052   0.066   0.084   0.088   0.094   0.101   0.104   0.120
  6 A"   27 A'   28 A'   29 A'    7 A"   30 A'   31 A'    8 A"                 
  0.126   0.129   0.131   0.135   0.154   0.160   0.167   0.169
 32 A'   33 A'    9 A"   34 A'   10 A"   11 A"   35 A'   36 A'                 
  0.181   0.195   0.207   0.208   0.221   0.226   0.234   0.238
 37 A'   12 A"   13 A"   38 A'   39 A'   14 A"   40 A'   15 A"                 
  0.238   0.256   0.256   0.259   0.266   0.272   0.273   0.285
 41 A'   42 A'   43 A'   16 A"   44 A'   45 A'   46 A'   17 A"                 
  0.288   0.298   0.301   0.308   0.310   0.314   0.328   0.333
 47 A'   48 A'   49 A'   50 A'   18 A"   51 A'   52 A'   53 A'                 
  0.340   0.345   0.364   0.371   0.384   0.394   0.398   0.411
 54 A'   55 A'   56 A'   57 A'   58 A'   59 A'   60 A'   61 A'                 
  0.428   0.455   0.464   0.487   0.528   0.548   0.611   0.668
 62 A'   63 A'   64 A'   65 A'   66 A'   67 A'   68 A'   69 A'                 
  0.704   0.778   0.778   0.803   0.812   0.825   0.839   0.842
 70 A'   71 A'   19 A"   20 A"   72 A'   21 A"   73 A'   22 A"                 
  0.842   0.857   0.860   0.881   0.896   0.899   0.920   0.956
 74 A'   23 A"   75 A'   24 A"   25 A"   76 A'   77 A'   26 A"                 
  0.999   1.009   1.020   1.046   1.053   1.061   1.069   1.094
 78 A'   79 A'   80 A'   81 A'   82 A'   83 A'   27 A"   84 A'                 
  1.102   1.137   1.156   1.173   1.197   1.218   1.222   1.274
 85 A'   86 A'   87 A'   88 A'   89 A'   90 A'   91 A'   92 A'                 
  1.284   1.310   1.329   1.343   1.350   1.420   1.430   1.449
 93 A'   94 A'   95 A'   28 A"   96 A'   97 A'   29 A"   30 A"                 
  1.470   1.510   1.517   1.543   1.570   1.579   1.602   1.604
 98 A'   99 A'   31 A"  100 A'   32 A"   33 A"   34 A"   35 A"                 
  1.641   1.693   1.750   1.895   1.933   1.987   1.996   2.013
101 A'  102 A'  103 A'  104 A'  105 A'  106 A'   36 A"  107 A'                 
  2.033   2.096   2.101   2.112   2.151   2.161   2.229   2.243
108 A'  109 A'  110 A'   37 A"  111 A'  112 A'  113 A'  114 A'                 
  2.257   2.299   2.336   2.344   2.370   2.370   2.406   2.473
 38 A"  115 A'   39 A"   40 A"   41 A"  116 A'  117 A'   42 A"                 
  2.515   2.547   2.643   2.656   2.729   2.736   2.755   2.785
 43 A"  118 A'  119 A'   44 A"  120 A'   45 A"  121 A'  122 A'                 
  2.823   2.897   2.936   2.945   3.067   3.073   3.203   3.334
123 A'  124 A'  125 A'  126 A'  127 A'  128 A'  129 A'  130 A'                 
  3.490   4.258   4.359   4.410   4.441   4.478   4.515   4.595
131 A'  132 A'  133 A'  134 A'  135 A'  136 A'  137 A'  138 A'                 
  4.637   4.886
139 A'  140 A'                                                                 
 --------------------------------------------------------------
 
          Ground-State Mulliken Net Atomic Charges

     Atom                 Charge (a.u.)
  ----------------------------------------
      1 C                    -0.076692
      2 C                    -0.395072
      3 C                    -0.140947
      4 C                    -0.631337
      5 N                    -0.559190
      6 H                     0.429765
      7 C                    -0.240790
      8 C                     0.098628
      9 C                     0.799756
     10 C                    -0.523890
     11 H                     0.193944
     12 H                     0.199180
     13 H                     0.204296
     14 H                     0.218603
     15 H                     0.215884
     16 H                     0.207862
  ----------------------------------------
  Sum of atomic charges =     0.000000

 -----------------------------------------------------------------
                    Cartesian Multipole Moments
 -----------------------------------------------------------------
    Charge (ESU x 10^10)
                -0.0000
    Dipole Moment (Debye)
         X      -1.5974      Y       1.5253      Z      -0.0000
       Tot       2.2087
    Quadrupole Moments (Debye-Ang)
        XX     -44.8572     XY      -2.9902     YY     -43.9140
        XZ       0.0000     YZ      -0.0000     ZZ     -59.2028
    Octopole Moments (Debye-Ang^2)
       XXX     -15.7775    XXY       8.4564    XYY      -7.7565
       YYY      10.1771    XXZ      -0.0000    XYZ       0.0000
       YYZ       0.0000    XZZ      -2.4090    YZZ       2.0012
       ZZZ      -0.0000
    Hexadecapole Moments (Debye-Ang^3)
      XXXX    -811.9903   XXXY     -21.9730   XXYY    -198.2129
      XYYY     -21.4939   YYYY    -373.7635   XXXZ      -0.0000
      XXYZ      -0.0000   XYYZ       0.0000   YYYZ      -0.0000
      XXZZ    -191.3242   XYZZ      -4.6278   YYZZ     -95.8418
      XZZZ      -0.0000   YZZZ      -0.0000   ZZZZ     -73.0393
 -----------------------------------------------------------------
 Calculating analytic gradient of the CIS energy
 CIS relaxed dipole moment
            1
    1  -0.7225378
    2   0.4826644
    3  -0.0000000
	Magnitude:	 0.869 au	 2.209 Debye
 CIS 1 State Energy is -363.5360652180
 Gradient of the state energy (including CIS Excitation Energy)
            1           2           3           4           5           6
    1   0.0007182   0.0003563  -0.0005172   0.0017122  -0.0034384   0.0001562
    2  -0.0016859   0.0011331   0.0004034  -0.0006831  -0.0008445  -0.0001365
    3  -0.0000000   0.0000000   0.0000000   0.0000000  -0.0000000  -0.0000000
            7           8           9          10          11          12
    1   0.0019396   0.0001893  -0.0006594   0.0003988  -0.0000535  -0.0000968
    2   0.0026815  -0.0012092   0.0007684  -0.0003821   0.0001868   0.0000177
    3  -0.0000000   0.0000000  -0.0000000   0.0000000  -0.0000000   0.0000000
           13          14          15          16
    1   0.0000119  -0.0002804  -0.0000371  -0.0003997
    2  -0.0000224  -0.0004136   0.0002205  -0.0000342
    3  -0.0000000  -0.0000000  -0.0000000   0.0000000
 Gradient time:  CPU 48.16 s  wall 16.38 s
 Geometry Optimization Parameters
   NAtoms,    NIC,     NZ,  NCons,   NDum,   NFix, NCnnct, MaxDiis
       16     116       0       0       0       0       0       0

 Cartesian Hessian Update
 Hessian updated using BFGS update


** GEOMETRY OPTIMIZATION IN DELOCALIZED INTERNAL COORDINATES **
   Searching for a Minimum

   Optimization Cycle:   3

                       Coordinates (Angstroms)
     ATOM                X               Y               Z
      1  C         2.1634861222   -0.6900331383    0.0000000000
      2  C         2.1531266323    0.7354076990    0.0000000000
      3  C         0.9347175829    1.4560436978    0.0000000000
      4  C        -0.2491467187    0.6847410018    0.0000000000
      5  N        -1.5529945950    1.0760313182    0.0000000000
      6  H        -1.8645267668    2.0349553485    0.0000000000
      7  C        -2.4046922618   -0.0376032801    0.0000000000
      8  C        -1.6358369357   -1.1725735532    0.0000000000
      9  C        -0.2598815942   -0.7731208627    0.0000000000
     10  C         0.9695612024   -1.4625353604    0.0000000000
     11  H         3.1217645322   -1.2022341999    0.0000000000
     12  H         3.0971470133    1.2710669336    0.0000000000
     13  H         0.9121702256    2.5416038055    0.0000000000
     14  H        -3.4785376402    0.0888565438    0.0000000000
     15  H        -2.0112016766   -2.1877206275    0.0000000000
     16  H         1.0067343707   -2.5474748646    0.0000000000
   Point Group: cs    Number of degrees of freedom:    29


   Energy is   -363.536065218

 Hessian updated using BFGS update

 25 Hessian modes will be used to form the next step
  Hessian Eigenvalues:
     0.140880    0.160017    0.160427    0.199436    0.222807    0.227513
     0.241685    0.244935    0.344647    0.351852    0.352389    0.353154
     0.354429    0.358647    0.361026    0.375929    0.395953    0.422035
     0.439966    0.458664    0.465359    0.471080    0.484887    0.491871
     0.523738

 Minimum search - taking simple RFO step
 Searching for Lamda that Minimizes Along All modes
 Value Taken    Lamda =  -0.00005414
 Step Taken.  Stepsize is  0.016332

                             Maximum     Tolerance    Cnvgd?
         Gradient           0.001695      0.000300      NO
         Displacement       0.007627      0.001200      NO
         Energy change     -0.000201      0.000001      NO


 New Cartesian Coordinates Obtained by Inverse Iteration

 Displacement from previous Coordinates is:  0.019812
 ----------------------------------------------------------------
             Standard Nuclear Orientation (Angstroms)
    I     Atom           X                Y                Z
 ----------------------------------------------------------------
    1      C       2.1611784201    -0.6874106141     0.0000000000
    2      C       2.1523501075     0.7353484906     0.0000000000
    3      C       0.9344696850     1.4557643342     0.0000000000
    4      C      -0.2492964843     0.6840286687     0.0000000000
    5      N      -1.5497526624     1.0749995280     0.0000000000
    6      H      -1.8607406992     2.0344480200     0.0000000000
    7      C      -2.4067486538    -0.0392380293     0.0000000000
    8      C      -1.6371585089    -1.1728144308     0.0000000000
    9      C      -0.2605773867    -0.7749045903     0.0000000000
   10      C       0.9689239735    -1.4623495945     0.0000000000
   11      H       3.1192982853    -1.2005149057     0.0000000000
   12      H       3.0971737012     1.2697939712     0.0000000000
   13      H       0.9116628030     2.5413000974     0.0000000000
   14      H      -3.4794313149     0.0926252951     0.0000000000
   15      H      -2.0116686832    -2.1887192444     0.0000000000
   16      H       1.0122069103    -2.5469465343     0.0000000000
 ----------------------------------------------------------------
 Molecular Point Group                 Cs    NOp =  2
 Largest Abelian Subgroup              Cs    NOp =  2
 Nuclear Repulsion Energy =         397.18246276 hartrees
 There are       31 alpha and       31 beta electrons
 Applying Cartesian multipole field
    Component          Value
    ---------          -----
     (2,0,0)        1.00000E-11
     (0,2,0)        2.00000E-11
     (0,0,2)       -3.00000E-11
 Nucleus-field energy     =     0.0000000119 hartrees
 Requested basis set is 6-31+G(d)
 There are 59 shells and 185 basis functions
 A cutoff of  1.0D-12 yielded   1656 shell pairs
 There are     17099 function pairs
 Smallest overlap matrix eigenvalue = 1.46E-06
 Guess MOs from SCF MO coefficient file

 -----------------------------------------------------------------------
  General SCF calculation program by
  Eric Jon Sundstrom, Paul Horn, Yuezhi Mao, Dmitri Zuev, Alec White,
  David Stuck, Shaama M.S., Shane Yost, Joonho Lee, David Small,
  Daniel Levine, Susi Lehtola, Hugh Burton, Evgeny Epifanovsky,
  Bang C. Huynh
 -----------------------------------------------------------------------
 Exchange:     0.1577 Hartree-Fock + 1.0000 wB97X + LR-HF
 Correlation:  1.0000 wB97X
 Using SG-2 standard quadrature grid
 using 4 threads for integral computing
 -------------------------------------------------------
 OpenMP Integral computing Module                
 Release: version 1.0, May 2013, Q-Chem Inc. Pittsburgh 
 -------------------------------------------------------
 using 4 threads for integral computing
 -------------------------------------------------------
 OpenMP Integral computing Module                
 Release: version 1.0, May 2013, Q-Chem Inc. Pittsburgh 
 -------------------------------------------------------
 A restricted SCF calculation will be
 performed using DIIS
 SCF converges when DIIS error is below 1.0e-08
 ---------------------------------------
  Cycle       Energy         DIIS error
 ---------------------------------------
    1    -363.7197661677      6.50e-05  
    2    -363.7197897189      1.51e-05  
    3    -363.7197910890      1.19e-05  
    4    -363.7197917462      2.49e-06  
    5    -363.7197918300      1.14e-06  
    6    -363.7197918478      5.97e-07  
    7    -363.7197918543      2.02e-07  
    8    -363.7197918550      8.87e-08  
    9    -363.7197918550      3.31e-08  
   10    -363.7197918551      1.28e-08  
   11    -363.7197918551      4.97e-09  Convergence criterion met
 ---------------------------------------
 SCF time:   CPU 64.44s  wall 23.00s 
 SCF   energy in the final basis set =     -363.7197918551
 Total energy in the final basis set =     -363.7197918551
 
 Direct TDDFT/TDA calculation will be performed
 Exchange:     0.1577 Hartree-Fock + 1.0000 wB97X + LR-HF
 Correlation:  1.0000 wB97X
 Using SG-2 standard quadrature grid
 Singlet excitation energies requested
 CIS energy converged when residual is below 10e- 6
 ---------------------------------------------------
 Iter    Rts Conv    Rts Left    Ttl Dev     Max Dev
 ---------------------------------------------------
   1         0           3      0.003801    0.001699
   2         0           3      0.001172    0.000526
   3         0           3      0.000751    0.000336
   4         0           3      0.000427    0.000172
   5         0           3      0.000169    0.000065
   6         0           3      0.000078    0.000027
   7         0           3      0.000040    0.000019
   8         0           3      0.000022    0.000013
   9         0           3      0.000011    0.000008
  10         2           1      0.000006    0.000005
  11         2           1      0.000005    0.000003
  12         2           1      0.000003    0.000002
  13         3           0      0.000002    0.000001    Roots Converged
 ---------------------------------------------------
 
 ---------------------------------------------------
         TDDFT/TDA Excitation Energies              
 ---------------------------------------------------

 Excited state   1: excitation energy (eV) =    4.9986
 Total energy for state  1:                  -363.53609491 au
    Multiplicity: Singlet
    Trans. Mom.:  0.5115 X   0.4395 Y   0.0000 Z
    Strength   :     0.0556991334
    D(   30) --> V(    1) amplitude =  0.7896
    D(   31) --> V(    1) amplitude =  0.2538
    D(   31) --> V(    5) amplitude = -0.4817

 Excited state   2: excitation energy (eV) =    5.3189
 Total energy for state  2:                  -363.52432581 au
    Multiplicity: Singlet
    Trans. Mom.: -0.6986 X   0.6736 Y  -0.0000 Z
    Strength   :     0.1227212728
    D(   30) --> V(    1) amplitude = -0.2126
    D(   30) --> V(    5) amplitude =  0.3714
    D(   31) --> V(    1) amplitude =  0.8579

 Excited state   3: excitation energy (eV) =    6.0425
 Total energy for state  3:                  -363.49773367 au
    Multiplicity: Singlet
    Trans. Mom.: -0.0000 X   0.0000 Y  -0.1708 Z
    Strength   :     0.0043180105
    D(   31) --> V(    2) amplitude =  0.9100
 
 ---------------------------------------------------
 Calculating Relaxed Density
 ---------------------------------------------------
 Iter    Rts Conv    Rts Left    Ttl Dev     Max Dev
 ---------------------------------------------------
   1         0           3      0.000788    0.000361
   2         0           3      0.000342    0.000172
   3         0           3      0.000133    0.000059
   4         0           3      0.000046    0.000023
   5         0           3      0.000020    0.000011
   6         0           3      0.000006    0.000003
   7         3           0      0.000000    0.000000    Roots Converged
 ---------------------------------------------------
  SETman timing summary (seconds)
  CPU time               313.84s
  System time              0.00s
  Wall time              108.39s
 
 --------------------------------------------------------------
             Orbital Energies (a.u.) and Symmetries
 --------------------------------------------------------------
 
 Alpha MOs, Restricted
 -- Occupied --                  
-14.463 -10.313 -10.312 -10.282 -10.279 -10.278 -10.277 -10.271
  1 A'    2 A'    3 A'    4 A'    5 A'    6 A'    7 A'    8 A'                 
-10.267  -1.114  -0.963  -0.916  -0.858  -0.846  -0.748  -0.715
  9 A'   10 A'   11 A'   12 A'   13 A'   14 A'   15 A'   16 A'                 
 -0.700  -0.654  -0.601  -0.581  -0.543  -0.539  -0.538  -0.518
 17 A'   18 A'   19 A'   20 A'   21 A'   22 A'    1 A"   23 A'                 
 -0.499  -0.457  -0.439  -0.439  -0.384  -0.305  -0.295
 24 A'   25 A'    2 A"   26 A'    3 A"    4 A"    5 A"                         
 -- Virtual --                   
  0.052   0.066   0.084   0.088   0.095   0.101   0.104   0.120
  6 A"   27 A'   28 A'   29 A'    7 A"   30 A'   31 A'    8 A"                 
  0.126   0.129   0.131   0.135   0.154   0.160   0.167   0.169
 32 A'   33 A'    9 A"   34 A'   10 A"   11 A"   35 A'   36 A'                 
  0.181   0.195   0.207   0.208   0.221   0.226   0.234   0.238
 37 A'   12 A"   13 A"   38 A'   39 A'   14 A"   40 A'   41 A'                 
  0.238   0.255   0.256   0.259   0.266   0.271   0.273   0.285
 15 A"   42 A'   43 A'   16 A"   44 A'   45 A'   46 A'   17 A"                 
  0.288   0.298   0.301   0.308   0.310   0.314   0.328   0.333
 47 A'   48 A'   49 A'   50 A'   18 A"   51 A'   52 A'   53 A'                 
  0.339   0.345   0.365   0.371   0.384   0.394   0.397   0.411
 54 A'   55 A'   56 A'   57 A'   58 A'   59 A'   60 A'   61 A'                 
  0.428   0.456   0.464   0.487   0.528   0.549   0.611   0.669
 62 A'   63 A'   64 A'   65 A'   66 A'   67 A'   68 A'   69 A'                 
  0.705   0.777   0.778   0.803   0.812   0.825   0.839   0.842
 70 A'   71 A'   19 A"   20 A"   72 A'   21 A"   73 A'   22 A"                 
  0.842   0.857   0.860   0.881   0.896   0.899   0.920   0.956
 74 A'   23 A"   75 A'   24 A"   25 A"   76 A'   77 A'   26 A"                 
  0.999   1.009   1.020   1.046   1.053   1.061   1.069   1.094
 78 A'   79 A'   80 A'   81 A'   82 A'   83 A'   27 A"   84 A'                 
  1.103   1.137   1.157   1.173   1.197   1.218   1.222   1.274
 85 A'   86 A'   87 A'   88 A'   89 A'   90 A'   91 A'   92 A'                 
  1.285   1.310   1.329   1.343   1.351   1.420   1.430   1.449
 93 A'   94 A'   95 A'   28 A"   96 A'   97 A'   29 A"   30 A"                 
  1.471   1.510   1.516   1.543   1.570   1.579   1.603   1.604
 98 A'   99 A'   31 A"  100 A'   32 A"   33 A"   34 A"   35 A"                 
  1.641   1.695   1.749   1.895   1.933   1.987   1.996   2.014
101 A'  102 A'  103 A'  104 A'  105 A'  106 A'   36 A"  107 A'                 
  2.035   2.096   2.102   2.112   2.151   2.160   2.230   2.244
108 A'  109 A'  110 A'   37 A"  111 A'  112 A'  113 A'  114 A'                 
  2.256   2.301   2.336   2.344   2.369   2.371   2.407   2.474
 38 A"  115 A'   39 A"   40 A"  116 A'   41 A"  117 A'   42 A"                 
  2.515   2.547   2.645   2.656   2.729   2.738   2.755   2.785
 43 A"  118 A'  119 A'   44 A"  120 A'   45 A"  121 A'  122 A'                 
  2.823   2.898   2.937   2.946   3.067   3.074   3.202   3.335
123 A'  124 A'  125 A'  126 A'  127 A'  128 A'  129 A'  130 A'                 
  3.492   4.258   4.360   4.410   4.442   4.479   4.515   4.596
131 A'  132 A'  133 A'  134 A'  135 A'  136 A'  137 A'  138 A'                 
  4.637   4.886
139 A'  140 A'                                                                 
 
 Beta MOs, Restricted
 -- Occupied --                  
-14.463 -10.313 -10.312 -10.282 -10.279 -10.278 -10.277 -10.271
  1 A'    2 A'    3 A'    4 A'    5 A'    6 A'    7 A'    8 A'                 
-10.267  -1.114  -0.963  -0.916  -0.858  -0.846  -0.748  -0.715
  9 A'   10 A'   11 A'   12 A'   13 A'   14 A'   15 A'   16 A'                 
 -0.700  -0.654  -0.601  -0.581  -0.543  -0.539  -0.538  -0.518
 17 A'   18 A'   19 A'   20 A'   21 A'   22 A'    1 A"   23 A'                 
 -0.499  -0.457  -0.439  -0.439  -0.384  -0.305  -0.295
 24 A'   25 A'    2 A"   26 A'    3 A"    4 A"    5 A"                         
 -- Virtual --                   
  0.052   0.066   0.084   0.088   0.095   0.101   0.104   0.120
  6 A"   27 A'   28 A'   29 A'    7 A"   30 A'   31 A'    8 A"                 
  0.126   0.129   0.131   0.135   0.154   0.160   0.167   0.169
 32 A'   33 A'    9 A"   34 A'   10 A"   11 A"   35 A'   36 A'                 
  0.181   0.195   0.207   0.208   0.221   0.226   0.234   0.238
 37 A'   12 A"   13 A"   38 A'   39 A'   14 A"   40 A'   41 A'                 
  0.238   0.255   0.256   0.259   0.266   0.271   0.273   0.285
 15 A"   42 A'   43 A'   16 A"   44 A'   45 A'   46 A'   17 A"                 
  0.288   0.298   0.301   0.308   0.310   0.314   0.328   0.333
 47 A'   48 A'   49 A'   50 A'   18 A"   51 A'   52 A'   53 A'                 
  0.339   0.345   0.365   0.371   0.384   0.394   0.397   0.411
 54 A'   55 A'   56 A'   57 A'   58 A'   59 A'   60 A'   61 A'                 
  0.428   0.456   0.464   0.487   0.528   0.549   0.611   0.669
 62 A'   63 A'   64 A'   65 A'   66 A'   67 A'   68 A'   69 A'                 
  0.705   0.777   0.778   0.803   0.812   0.825   0.839   0.842
 70 A'   71 A'   19 A"   20 A"   72 A'   21 A"   73 A'   22 A"                 
  0.842   0.857   0.860   0.881   0.896   0.899   0.920   0.956
 74 A'   23 A"   75 A'   24 A"   25 A"   76 A'   77 A'   26 A"                 
  0.999   1.009   1.020   1.046   1.053   1.061   1.069   1.094
[...]
  0.339   0.345   0.365   0.371   0.384   0.394   0.397   0.411
 54 A'   55 A'   56 A'   57 A'   58 A'   59 A'   60 A'   61 A'                 
  0.428   0.456   0.464   0.487   0.527   0.549   0.611   0.669
 62 A'   63 A'   64 A'   65 A'   66 A'   67 A'   68 A'   69 A'                 
  0.705   0.778   0.778   0.803   0.812   0.825   0.839   0.842
 70 A'   71 A'   19 A"   20 A"   72 A'   21 A"   73 A'   22 A"                 
  0.842   0.857   0.860   0.881   0.896   0.899   0.920   0.956
 74 A'   23 A"   75 A'   24 A"   25 A"   76 A'   77 A'   26 A"                 
  0.999   1.009   1.020   1.046   1.053   1.061   1.069   1.094
 78 A'   79 A'   80 A'   81 A'   82 A'   83 A'   27 A"   84 A'                 
  1.103   1.137   1.157   1.173   1.197   1.218   1.222   1.274
 85 A'   86 A'   87 A'   88 A'   89 A'   90 A'   91 A'   92 A'                 
  1.285   1.310   1.329   1.343   1.351   1.420   1.430   1.449
 93 A'   94 A'   95 A'   28 A"   96 A'   97 A'   29 A"   30 A"                 
  1.471   1.510   1.516   1.543   1.570   1.579   1.603   1.604
 98 A'   99 A'   31 A"  100 A'   32 A"   33 A"   34 A"   35 A"                 
  1.641   1.695   1.749   1.895   1.933   1.986   1.996   2.014
101 A'  102 A'  103 A'  104 A'  105 A'  106 A'   36 A"  107 A'                 
  2.035   2.096   2.102   2.112   2.150   2.160   2.229   2.244
108 A'  109 A'  110 A'   37 A"  111 A'  112 A'  113 A'  114 A'                 
  2.256   2.301   2.336   2.344   2.369   2.371   2.407   2.473
 38 A"  115 A'   39 A"   40 A"  116 A'   41 A"  117 A'   42 A"                 
  2.515   2.547   2.645   2.656   2.729   2.738   2.755   2.786
 43 A"  118 A'  119 A'   44 A"  120 A'   45 A"  121 A'  122 A'                 
  2.823   2.898   2.937   2.946   3.067   3.074   3.201   3.335
123 A'  124 A'  125 A'  126 A'  127 A'  128 A'  129 A'  130 A'                 
  3.492   4.257   4.361   4.410   4.442   4.478   4.515   4.596
131 A'  132 A'  133 A'  134 A'  135 A'  136 A'  137 A'  138 A'                 
  4.637   4.886
139 A'  140 A'                                                                 
 --------------------------------------------------------------
 
          Ground-State Mulliken Net Atomic Charges

     Atom                 Charge (a.u.)
  ----------------------------------------
      1 C                    -0.074090
      2 C                    -0.395162
      3 C                    -0.140270
      4 C                    -0.633408
      5 N                    -0.560513
      6 H                     0.429438
      7 C                    -0.239204
      8 C                     0.098163
      9 C                     0.804895
     10 C                    -0.529726
     11 H                     0.193430
     12 H                     0.199404
     13 H                     0.204117
     14 H                     0.218968
     15 H                     0.216020
     16 H                     0.207941
  ----------------------------------------
  Sum of atomic charges =     0.000000

 -----------------------------------------------------------------
                    Cartesian Multipole Moments
 -----------------------------------------------------------------
    Charge (ESU x 10^10)
                -0.0000
    Dipole Moment (Debye)
         X      -1.6011      Y       1.5163      Z      -0.0000
       Tot       2.2051
    Quadrupole Moments (Debye-Ang)
        XX     -44.8495     XY      -2.9760     YY     -43.9274
        XZ       0.0000     YZ      -0.0000     ZZ     -59.1922
    Octopole Moments (Debye-Ang^2)
       XXX     -15.8169    XXY       8.4912    XYY      -7.6955
       YYY      10.1367    XXZ      -0.0000    XYZ       0.0000
       YYZ       0.0000    XZZ      -2.3631    YZZ       2.0080
       ZZZ      -0.0000
    Hexadecapole Moments (Debye-Ang^3)
      XXXX    -811.7148   XXXY     -22.1553   XXYY    -198.1973
      XYYY     -21.7785   YYYY    -373.6107   XXXZ       0.0000
      XXYZ       0.0000   XYYZ      -0.0000   YYYZ      -0.0000
      XXZZ    -191.2732   XYZZ      -4.7088   YYZZ     -95.7683
      XZZZ       0.0000   YZZZ      -0.0000   ZZZZ     -73.0004
 -----------------------------------------------------------------
 Calculating analytic gradient of the CIS energy
 CIS relaxed dipole moment
            1
    1  -0.7205691
    2   0.4763821
    3  -0.0000000
	Magnitude:	 0.864 au	 2.196 Debye
 CIS 1 State Energy is -363.5360970006
 Gradient of the state energy (including CIS Excitation Energy)
            1           2           3           4           5           6
    1  -0.0000378  -0.0000638  -0.0000584   0.0000260  -0.0000446   0.0000110
    2   0.0000218  -0.0000493   0.0000143   0.0002934  -0.0002408   0.0000129
    3  -0.0000000  -0.0000000   0.0000000   0.0000000   0.0000000  -0.0000000
            7           8           9          10          11          12
    1  -0.0000216   0.0001947  -0.0000658   0.0000018   0.0000169   0.0000154
    2   0.0002467   0.0000276  -0.0002859  -0.0000126   0.0000200  -0.0000177
    3  -0.0000000   0.0000000  -0.0000000  -0.0000000  -0.0000000   0.0000000
           13          14          15          16
    1   0.0000358  -0.0000040  -0.0000249   0.0000196
    2  -0.0000160  -0.0000414   0.0000115   0.0000154
    3  -0.0000000  -0.0000000  -0.0000000  -0.0000000
 Gradient time:  CPU 48.22 s  wall 16.33 s
 Geometry Optimization Parameters
   NAtoms,    NIC,     NZ,  NCons,   NDum,   NFix, NCnnct, MaxDiis
       16     116       0       0       0       0       0       0

 Cartesian Hessian Update
 Hessian updated using BFGS update


** GEOMETRY OPTIMIZATION IN DELOCALIZED INTERNAL COORDINATES **
   Searching for a Minimum

   Optimization Cycle:   5

                       Coordinates (Angstroms)
     ATOM                X               Y               Z
      1  C         2.1613765029   -0.6870938557    0.0000000000
      2  C         2.1528600981    0.7354577526    0.0000000000
      3  C         0.9347452186    1.4552603231    0.0000000000
      4  C        -0.2493589320    0.6835528839    0.0000000000
      5  N        -1.5494853799    1.0749312451    0.0000000000
      6  H        -1.8605630396    2.0343459072    0.0000000000
      7  C        -2.4074356397   -0.0397035371    0.0000000000
      8  C        -1.6377231787   -1.1728663551    0.0000000000
      9  C        -0.2606619806   -0.7748612424    0.0000000000
     10  C         0.9690735417   -1.4619029533    0.0000000000
     11  H         3.1191187815   -1.2009997078    0.0000000000
     12  H         3.0974804179    1.2702433623    0.0000000000
     13  H         0.9111611676    2.5408523857    0.0000000000
     14  H        -3.4799596646    0.0936408879    0.0000000000
     15  H        -2.0116517104   -2.1889101973    0.0000000000
     16  H         1.0129132898   -2.5465364374    0.0000000000
   Point Group: cs    Number of degrees of freedom:    29


   Energy is   -363.536097001

 Hessian updated using BFGS update

 27 Hessian modes will be used to form the next step
  Hessian Eigenvalues:
     0.117484    0.156076    0.160005    0.160135    0.160246    0.204728
     0.215551    0.229096    0.243107    0.244187    0.315678    0.351038
     0.351882    0.352620    0.353409    0.357593    0.359662    0.366721
     0.378525    0.422116    0.438798    0.455417    0.462335    0.465391
     0.471819    0.491168    0.527173

 Minimum search - taking simple RFO step
 Searching for Lamda that Minimizes Along All modes
 Value Taken    Lamda =  -0.00000059
 Step Taken.  Stepsize is  0.001811

                             Maximum     Tolerance    Cnvgd?
         Gradient           0.000145      0.000300     YES
         Displacement       0.000635      0.001200     YES
         Energy change     -0.000002      0.000001      NO

 Final energy is   -363.536097000577     


 ******************************
 **  OPTIMIZATION CONVERGED  **
 ******************************

                       Coordinates (Angstroms)
     ATOM                X               Y               Z
      1  C         2.1613765029   -0.6870938557    0.0000000000
      2  C         2.1528600981    0.7354577526    0.0000000000
      3  C         0.9347452186    1.4552603231    0.0000000000
      4  C        -0.2493589320    0.6835528839    0.0000000000
      5  N        -1.5494853799    1.0749312451    0.0000000000
      6  H        -1.8605630396    2.0343459072    0.0000000000
      7  C        -2.4074356397   -0.0397035371    0.0000000000
      8  C        -1.6377231787   -1.1728663551    0.0000000000
      9  C        -0.2606619806   -0.7748612424    0.0000000000
     10  C         0.9690735417   -1.4619029533    0.0000000000
     11  H         3.1191187815   -1.2009997078    0.0000000000
     12  H         3.0974804179    1.2702433623    0.0000000000
     13  H         0.9111611676    2.5408523857    0.0000000000
     14  H        -3.4799596646    0.0936408879    0.0000000000
     15  H        -2.0116517104   -2.1889101973    0.0000000000
     16  H         1.0129132898   -2.5465364374    0.0000000000

Z-matrix Print:
$molecule
0 1
C 
N  1 1.357758
H  2 1.008586 1 124.718032
C  2 1.406588 1 110.832568 3 -180.000000 0
H  4 1.080781 2 120.498906 1 -180.000000 0
C  4 1.369860 2 108.227300 1 -0.000000 0
H  6 1.082667 4 125.608464 2 -180.000000 0
C  1 1.413377 2 130.153381 3 -0.000000 0
H  8 1.085848 1 121.848664 2 -0.000000 0
C  8 1.414892 1 116.327318 2 -180.000000 0
H  10 1.085497 8 119.904659 1 -180.000000 0
C  10 1.422577 8 120.922495 1 -0.000000 0
H  12 1.086908 10 118.560150 8 -180.000000 0
C  12 1.421941 10 122.674513 8 -0.000000 0
H  14 1.085519 12 120.702946 10 -180.000000 0
C  14 1.408643 12 117.790795 10 -0.000000 0
$end

 
 --------------------------------------------------------------
             Orbital Energies (a.u.) and Symmetries
 --------------------------------------------------------------
 
 Alpha MOs, Restricted
 -- Occupied --                  
-14.463 -10.313 -10.312 -10.282 -10.279 -10.278 -10.277 -10.271
  1 A'    2 A'    3 A'    4 A'    5 A'    6 A'    7 A'    8 A'                 
-10.267  -1.114  -0.963  -0.916  -0.858  -0.847  -0.747  -0.715
  9 A'   10 A'   11 A'   12 A'   13 A'   14 A'   15 A'   16 A'                 
 -0.700  -0.654  -0.601  -0.581  -0.543  -0.539  -0.538  -0.518
 17 A'   18 A'   19 A'   20 A'   21 A'   22 A'    1 A"   23 A'                 
 -0.500  -0.457  -0.439  -0.439  -0.384  -0.305  -0.295
 24 A'   25 A'    2 A"   26 A'    3 A"    4 A"    5 A"                         
 -- Virtual --                   
  0.052   0.066   0.084   0.088   0.095   0.101   0.104   0.120
  6 A"   27 A'   28 A'   29 A'    7 A"   30 A'   31 A'    8 A"                 
  0.126   0.129   0.131   0.135   0.154   0.160   0.167   0.169
 32 A'   33 A'    9 A"   34 A'   10 A"   11 A"   35 A'   36 A'                 
  0.181   0.195   0.207   0.208   0.221   0.226   0.234   0.238
 37 A'   12 A"   13 A"   38 A'   39 A'   14 A"   40 A'   41 A'                 
  0.238   0.255   0.256   0.259   0.266   0.271   0.273   0.285
 15 A"   42 A'   43 A'   16 A"   44 A'   45 A'   46 A'   17 A"                 
  0.288   0.298   0.301   0.308   0.310   0.314   0.328   0.333
 47 A'   48 A'   49 A'   50 A'   18 A"   51 A'   52 A'   53 A'                 
  0.339   0.345   0.365   0.371   0.384   0.394   0.397   0.411
 54 A'   55 A'   56 A'   57 A'   58 A'   59 A'   60 A'   61 A'                 
  0.428   0.456   0.464   0.487   0.527   0.549   0.611   0.669
 62 A'   63 A'   64 A'   65 A'   66 A'   67 A'   68 A'   69 A'                 
  0.705   0.778   0.778   0.803   0.812   0.825   0.839   0.842
 70 A'   71 A'   19 A"   20 A"   72 A'   21 A"   73 A'   22 A"                 
  0.842   0.857   0.860   0.881   0.896   0.899   0.920   0.956
 74 A'   23 A"   75 A'   24 A"   25 A"   76 A'   77 A'   26 A"                 
  0.999   1.009   1.020   1.046   1.053   1.061   1.069   1.094
 78 A'   79 A'   80 A'   81 A'   82 A'   83 A'   27 A"   84 A'                 
  1.103   1.137   1.157   1.173   1.197   1.218   1.222   1.274
 85 A'   86 A'   87 A'   88 A'   89 A'   90 A'   91 A'   92 A'                 
  1.285   1.310   1.329   1.343   1.351   1.420   1.430   1.449
 93 A'   94 A'   95 A'   28 A"   96 A'   97 A'   29 A"   30 A"                 
  1.471   1.510   1.516   1.543   1.570   1.579   1.603   1.604
 98 A'   99 A'   31 A"  100 A'   32 A"   33 A"   34 A"   35 A"                 
  1.641   1.695   1.749   1.895   1.933   1.986   1.996   2.014
101 A'  102 A'  103 A'  104 A'  105 A'  106 A'   36 A"  107 A'                 
  2.035   2.096   2.102   2.112   2.150   2.160   2.229   2.244
108 A'  109 A'  110 A'   37 A"  111 A'  112 A'  113 A'  114 A'                 
  2.256   2.301   2.336   2.344   2.369   2.371   2.407   2.473
 38 A"  115 A'   39 A"   40 A"  116 A'   41 A"  117 A'   42 A"                 
  2.515   2.547   2.645   2.656   2.729   2.738   2.755   2.786
 43 A"  118 A'  119 A'   44 A"  120 A'   45 A"  121 A'  122 A'                 
  2.823   2.898   2.937   2.946   3.067   3.074   3.201   3.335
123 A'  124 A'  125 A'  126 A'  127 A'  128 A'  129 A'  130 A'                 
  3.492   4.257   4.361   4.410   4.442   4.478   4.515   4.596
131 A'  132 A'  133 A'  134 A'  135 A'  136 A'  137 A'  138 A'                 
  4.637   4.886
139 A'  140 A'                                                                 
 
 Beta MOs, Restricted
 -- Occupied --                  
-14.463 -10.313 -10.312 -10.282 -10.279 -10.278 -10.277 -10.271
  1 A'    2 A'    3 A'    4 A'    5 A'    6 A'    7 A'    8 A'                 
-10.267  -1.114  -0.963  -0.916  -0.858  -0.847  -0.747  -0.715
  9 A'   10 A'   11 A'   12 A'   13 A'   14 A'   15 A'   16 A'                 
 -0.700  -0.654  -0.601  -0.581  -0.543  -0.539  -0.538  -0.518
 17 A'   18 A'   19 A'   20 A'   21 A'   22 A'    1 A"   23 A'                 
 -0.500  -0.457  -0.439  -0.439  -0.384  -0.305  -0.295
 24 A'   25 A'    2 A"   26 A'    3 A"    4 A"    5 A"                         
 -- Virtual --                   
  0.052   0.066   0.084   0.088   0.095   0.101   0.104   0.120
  6 A"   27 A'   28 A'   29 A'    7 A"   30 A'   31 A'    8 A"                 
  0.126   0.129   0.131   0.135   0.154   0.160   0.167   0.169
 32 A'   33 A'    9 A"   34 A'   10 A"   11 A"   35 A'   36 A'                 
  0.181   0.195   0.207   0.208   0.221   0.226   0.234   0.238
 37 A'   12 A"   13 A"   38 A'   39 A'   14 A"   40 A'   41 A'                 
  0.238   0.255   0.256   0.259   0.266   0.271   0.273   0.285
 15 A"   42 A'   43 A'   16 A"   44 A'   45 A'   46 A'   17 A"                 
  0.288   0.298   0.301   0.308   0.310   0.314   0.328   0.333
 47 A'   48 A'   49 A'   50 A'   18 A"   51 A'   52 A'   53 A'                 
  0.339   0.345   0.365   0.371   0.384   0.394   0.397   0.411
 54 A'   55 A'   56 A'   57 A'   58 A'   59 A'   60 A'   61 A'                 
  0.428   0.456   0.464   0.487   0.527   0.549   0.611   0.669
 62 A'   63 A'   64 A'   65 A'   66 A'   67 A'   68 A'   69 A'                 
  0.705   0.778   0.778   0.803   0.812   0.825   0.839   0.842
 70 A'   71 A'   19 A"   20 A"   72 A'   21 A"   73 A'   22 A"                 
  0.842   0.857   0.860   0.881   0.896   0.899   0.920   0.956
 74 A'   23 A"   75 A'   24 A"   25 A"   76 A'   77 A'   26 A"                 
  0.999   1.009   1.020   1.046   1.053   1.061   1.069   1.094
 78 A'   79 A'   80 A'   81 A'   82 A'   83 A'   27 A"   84 A'                 
  1.103   1.137   1.157   1.173   1.197   1.218   1.222   1.274
 85 A'   86 A'   87 A'   88 A'   89 A'   90 A'   91 A'   92 A'                 
  1.285   1.310   1.329   1.343   1.351   1.420   1.430   1.449
 93 A'   94 A'   95 A'   28 A"   96 A'   97 A'   29 A"   30 A"                 
  1.471   1.510   1.516   1.543   1.570   1.579   1.603   1.604
 98 A'   99 A'   31 A"  100 A'   32 A"   33 A"   34 A"   35 A"                 
  1.641   1.695   1.749   1.895   1.933   1.986   1.996   2.014
101 A'  102 A'  103 A'  104 A'  105 A'  106 A'   36 A"  107 A'                 
  2.035   2.096   2.102   2.112   2.150   2.160   2.229   2.244
108 A'  109 A'  110 A'   37 A"  111 A'  112 A'  113 A'  114 A'                 
  2.256   2.301   2.336   2.344   2.369   2.371   2.407   2.473
 38 A"  115 A'   39 A"   40 A"  116 A'   41 A"  117 A'   42 A"                 
  2.515   2.547   2.645   2.656   2.729   2.738   2.755   2.786
 43 A"  118 A'  119 A'   44 A"  120 A'   45 A"  121 A'  122 A'                 
  2.823   2.898   2.937   2.946   3.067   3.074   3.201   3.335
123 A'  124 A'  125 A'  126 A'  127 A'  128 A'  129 A'  130 A'                 
  3.492   4.257   4.361   4.410   4.442   4.478   4.515   4.596
131 A'  132 A'  133 A'  134 A'  135 A'  136 A'  137 A'  138 A'                 
  4.637   4.886
139 A'  140 A'                                                                 
 --------------------------------------------------------------
 
          Ground-State Mulliken Net Atomic Charges

     Atom                 Charge (a.u.)
  ----------------------------------------
      1 C                    -0.074090
      2 C                    -0.395162
      3 C                    -0.140270
      4 C                    -0.633408
      5 N                    -0.560513
      6 H                     0.429438
      7 C                    -0.239204
      8 C                     0.098163
      9 C                     0.804895
     10 C                    -0.529726
     11 H                     0.193430
     12 H                     0.199404
     13 H                     0.204117
     14 H                     0.218968
     15 H                     0.216020
     16 H                     0.207941
  ----------------------------------------
  Sum of atomic charges =     0.000000

 -----------------------------------------------------------------
                    Cartesian Multipole Moments
 -----------------------------------------------------------------
    Charge (ESU x 10^10)
                -0.0000
    Dipole Moment (Debye)
         X      -1.6011      Y       1.5163      Z      -0.0000
       Tot       2.2051
    Quadrupole Moments (Debye-Ang)
        XX     -44.8495     XY      -2.9760     YY     -43.9274
        XZ       0.0000     YZ      -0.0000     ZZ     -59.1922
    Octopole Moments (Debye-Ang^2)
       XXX     -15.8169    XXY       8.4912    XYY      -7.6955
       YYY      10.1367    XXZ      -0.0000    XYZ       0.0000
       YYZ       0.0000    XZZ      -2.3631    YZZ       2.0080
       ZZZ      -0.0000
    Hexadecapole Moments (Debye-Ang^3)
      XXXX    -811.7148   XXXY     -22.1553   XXYY    -198.1973
      XYYY     -21.7785   YYYY    -373.6107   XXXZ       0.0000
      XXYZ       0.0000   XYYZ      -0.0000   YYYZ      -0.0000
      XXZZ    -191.2732   XYZZ      -4.7088   YYZZ     -95.7683
      XZZZ       0.0000   YZZZ      -0.0000   ZZZZ     -73.0004
 -----------------------------------------------------------------
Archival summary:
1\1\exp-1-02\OPT\ProcedureUnspecified\6-31+G*\187\scaparas\WedJun908:21:392021WedJun908:21:392021\0\\#,OPT,ProcedureUnspecified,6-31+G*,\\0,1\C\N,1,1.35776\H,2,1.00859,1,124.718\C,2,1.40659,1,110.833,3,-180,0\H,4,1.08078,2,120.499,1,-180,0\C,4,1.36986,2,108.227,1,-0,0\H,6,1.08267,4,125.608,2,-180,0\C,1,1.41338,2,130.153,3,-0,0\H,8,1.08585,1,121.849,2,-0,0\C,8,1.41489,1,116.327,2,-180,0\H,10,1.0855,8,119.905,1,-180,0\C,10,1.42258,8,120.922,1,-0,0\H,12,1.08691,10,118.56,8,-180,0\C,12,1.42194,10,122.675,8,-0,0\H,14,1.08552,12,120.703,10,-180,0\C,14,1.40864,12,117.791,10,-0,0\\\@

 Total job time:  751.90s(wall), 2165.40s(cpu) 
 Wed Jun  9 08:21:39 2021

        *************************************************************
        *                                                           *
        *  Thank you very much for using Q-Chem.  Have a nice day.  *
        *                                                           *
        *************************************************************


