
Running Job 1 of 1 QfuncsWB97X-VI-3rd.in
qchem QfuncsWB97X-VI-3rd.in_98149.0 /scratch/scaparas/job_3585692/qchem98149/ 0
/cm/shared/apps/spack/cpu/opt/spack/linux-centos8-zen2/gcc-10.2.0/qchem-5.3-5qddma6gy34jvefiv7mbcb7qm253n45r/exe/qcprog.exe_s QfuncsWB97X-VI-3rd.in_98149.0 /scratch/scaparas/job_3585692/qchem98149/
                  Welcome to Q-Chem
     A Quantum Leap Into The Future Of Chemistry


 Q-Chem 5.3, Q-Chem, Inc., Pleasanton, CA (2020)

 License issued to: University of California, San Diego (site)

 Yihan Shao,  Zhengting Gan,  E. Epifanovsky,  A. T. B. Gilbert,  M. Wormit,  
 J. Kussmann,  A. W. Lange,  A. Behn,  Jia Deng,  Xintian Feng,  D. Ghosh,  
 M. Goldey,  P. R. Horn,  L. D. Jacobson,  I. Kaliman,  T. Kus,  A. Landau,  
 Jie Liu,  E. I. Proynov,  R. M. Richard,  R. P. Steele,  E. J. Sundstrom,  
 H. L. Woodcock III,  P. M. Zimmerman,  D. Zuev,  B. Alam,  B. Albrecht,  
 A. Aldossary,  E. Alguire,  S. A. Baeppler,  D. Barton,  Z. Benda,  
 Y. A. Bernard,  E. J. Berquist,  K. B. Bravaya,  H. Burton,  K. Carter-Fenk,  
 D. Casanova,  Chun-Min Chang,  Yunqing Chen,  A. Chien,  K. D. Closser,  
 M. P. Coons,  S. Coriani,  S. Dasgupta,  A. L. Dempwolff,  M. Diedenhofen,  
 Hainam Do,  R. G. Edgar,  Po-Tung Fang,  S. Faraji,  S. Fatehi,  
 Qingguo Feng,  J. Fosso-Tande,  J. Gayvert,  Qinghui Ge,  A. Ghysels,  
 G. Gidofalvi,  J. Gomes,  J. Gonthier,  S. Gulania,  A. Gunina,  D. Hait,  
 M. W. D. Hanson-Heine,  S. Hammes-Schiffer,  P. H. P. Harbach,  
 A. W. Hauser,  M. F. Herbst,  J. E. Herr,  E. G. Hohenstein,  Z. C. Holden,  
 S. Houck,  Kerwin Hui,  B. C. Huynh,  M. Ivanov,  T.-C. Jagau,  Hyunjun Ji,  
 B. Kaduk,  K. Khistyaev,  Jaehoon Kim,  P. Klunzinger,  K. Koh,  
 D. Kosenkov,  L. Koulias,  T. Kowalczyk,  C. M. Krauter,  A. Kunitsa,  
 Ka Un Lao,  A. Laurent,  K. V. Lawler,  Joonho Lee,  D. Lefrancois,  
 S. Lehtola,  D. S. Levine,  Yi-Pei Li,  You-Sheng Lin,  Fenglai Liu,  
 Kuan-Yu Liu,  E. Livshits,  M. Loipersberger,  A. Luenser,  P. Manohar,  
 E. Mansoor,  S. F. Manzer,  Shan-Ping Mao,  Yuezhi Mao,  N. Mardirossian,  
 A. V. Marenich,  T. Markovich,  L. A. Martinez-Martinez,  S. A. Maurer,  
 N. J. Mayhall,  S. C. McKenzie,  J.-M. Mewes,  P. Morgante,  A. F. Morrison,  
 J. W. Mullinax,  K. Nanda,  T. S. Nguyen-Beck,  R. Olivares-Amaya,  
 K. J. Oosterbaan,  J. A. Parkhill,  S. K. Paul,  F. Pavosevic,  Zheng Pei,  
 T. M. Perrine,  F. Plasser,  P. Pokhilko,  S. Prager,  A. Prociuk,  
 E. Ramos,  B. Rana,  D. R. Rehn,  F. Rob,  E. Rossomme,  M. Scheurer,  
 M. Schneider,  N. Sergueev,  S. M. Sharada,  S. Sharma,  W. Skomorowski,  
 D. W. Small,  T. Stauch,  C. J. Stein,  T. Stein,  Yu-Chuan Su,  
 S. P. Veccham,  Zhen Tao,  A. J. W. Thom,  A. Tkatchenko,  T. Tsuchimochi,  
 N. M. Tubman,  L. Vogt,  M. L. Vidal,  O. Vydrov,  M. A. Watson,  J. Wenzel,  
 M. de Wergifosse,  T. A. Wesolowski,  A. White,  J. Witte,  A. Yamada,  
 Jun Yang,  K. Yao,  S. Yeganeh,  S. R. Yost,  Zhi-Qiang You,  A. Zech,  
 Igor Ying Zhang,  Xing Zhang,  Yan Zhao,  Ying Zhu,  B. R. Brooks,  
 G. K. L. Chan,  C. J. Cramer,  M. S. Gordon,  W. J. Hehre,  A. Klamt,  
 M. W. Schmidt,  C. D. Sherrill,  D. G. Truhlar,  A. Aspuru-Guzik,  R. Baer,  
 A. T. Bell,  N. A. Besley,  Jeng-Da Chai,  A. E. DePrince, III,  
 R. A. DiStasio Jr.,  A. Dreuw,  B. D. Dunietz,  T. R. Furlani,  
 Chao-Ping Hsu,  Yousung Jung,  Jing Kong,  D. S. Lambrecht,  WanZhen Liang,  
 C. Ochsenfeld,  V. A. Rassolov,  L. V. Slipchenko,  J. E. Subotnik,  
 T. Van Voorhis,  J. M. Herbert,  A. I. Krylov,  P. M. W. Gill,  M. Head-Gordon

 Contributors to earlier versions of Q-Chem not listed above: 
 R. D. Adamson,  B. Austin,  J. Baker,  G. J. O. Beran,  K. Brandhorst,  
 S. T. Brown,  E. F. C. Byrd,  A. K. Chakraborty,  C.-L. Cheng,  
 Siu Hung Chien,  D. M. Chipman,  D. L. Crittenden,  H. Dachsel,  
 R. J. Doerksen,  A. D. Dutoi,  L. Fusti-Molnar,  W. A. Goddard III,  
 A. Golubeva-Zadorozhnaya,  S. R. Gwaltney,  G. Hawkins,  A. Heyden,  
 S. Hirata,  G. Kedziora,  F. J. Keil,  C. Kelley,  Jihan Kim,  R. A. King,  
 R. Z. Khaliullin,  P. P. Korambath,  W. Kurlancheek,  A. M. Lee,  M. S. Lee,  
 S. V. Levchenko,  Ching Yeh Lin,  D. Liotard,  R. C. Lochan,  I. Lotan,  
 P. E. Maslen,  N. Nair,  D. P. O'Neill,  D. Neuhauser,  E. Neuscamman,  
 C. M. Oana,  R. Olson,  B. Peters,  R. Peverati,  P. A. Pieniazek,  
 Y. M. Rhee,  J. Ritchie,  M. A. Rohrdanz,  E. Rosta,  N. J. Russ,  
 H. F. Schaefer III,  N. E. Schultz,  N. Shenvi,  A. C. Simmonett,  A. Sodt,  
 D. Stuck,  K. S. Thanthiriwatte,  V. Vanovschi,  Tao Wang,  A. Warshel,  
 C. F. Williams,  Q. Wu,  X. Xu,  W. Zhang

 Please cite Q-Chem as follows:
 Y. Shao et al., Mol. Phys. 113, 184-215 (2015)
 DOI: 10.1080/00268976.2014.952696

 Q-Chem 5.3.1 for Intel X86 EM64T Linux

 Parts of Q-Chem use Armadillo 9.800.1 (Horizon Scraper).
 http://arma.sourceforge.net/

 Q-Chem begins on Wed Jun 23 13:52:36 2021  

Host: 
0

     Scratch files written to /scratch/scaparas/job_3585692/qchem98149//
 Aug2920 |scratch|qcdevops|jenkins|workspace|build_RNUM    
Processing $rem in /cm/shared/apps/spack/cpu/opt/spack/linux-centos8-zen2/gcc-10.2.0/qchem-5.3-5qddma6gy34jvefiv7mbcb7qm253n45r/config/preferences:
Processing $rem in /home/scaparas/.qchemrc:

Checking the input file for inconsistencies... 	...done.

--------------------------------------------------------------
User input:
--------------------------------------------------------------
$molecule
0 1
C   -2.1510630    0.6892080    0.0000880
C   -2.1279270   -0.7158180    0.0000750
C   -0.9322970   -1.4131000   -0.0000110
C    0.2469110   -0.6702010   -0.0000420
C    0.2481930    0.7482990    0.0000000
C   -0.9794740    1.4235260    0.0000320
N    1.5617740   -1.0775920   -0.0002850
C    1.6201330    1.1629000   -0.0001570
C    2.3820130    0.0308060    0.0002480
H    1.8763150   -2.0300110    0.0004380
H    1.9921730    2.1730100   -0.0003480
H    3.4525490   -0.0824250    0.0004080
H   -3.0615940   -1.2620200    0.0000880
H   -0.9172520   -2.4953420   -0.0000730
H   -3.1042030    1.2007850    0.0000900
H   -1.0093480    2.5054210   -0.0000150
$end

$rem
BASIS  =  6-31+G*
GUI  =  2
JOB_TYPE  =  Optimization
METHOD  = WB97X
SCF_CONVERGENCE  =  8
THRESH = 12
CIS_N_ROOTS  = 3
CIS_SINGLETS = true
CIS_TRIPLETS = false
CIS_STATE_DERIV = 3
MEM_STATIC=500
MEM_TOTAL=3000
$end
--------------------------------------------------------------
 ----------------------------------------------------------------
             Standard Nuclear Orientation (Angstroms)
    I     Atom           X                Y                Z
 ----------------------------------------------------------------
    1      C       2.1510629040    -0.6892079969     0.0000583065
    2      C       2.1279268385     0.7158180020     0.0000481775
    3      C       0.9322968051     1.4130999466    -0.0000206639
    4      C      -0.2469111607     0.6702008918    -0.0000373513
    5      C      -0.2481930942    -0.7482991083     0.0000020775
    6      C       0.9794739374    -1.4235260513     0.0000165335
    7      N      -1.5617741827     1.0775918311    -0.0002621374
    8      C      -1.6201330769    -1.1629001718    -0.0001374500
    9      C      -2.3820131241    -0.0308062080     0.0002797387
   10      H      -1.8763152174     2.0300108152     0.0004667797
   11      H      -1.9921730325    -2.1730101887    -0.0003253498
   12      H      -3.4525491271     0.0824247420     0.0004541695
   13      H       3.0615938132     1.2620200454     0.0000497686
   14      H       0.9172517540     2.4953419460    -0.0000804893
   15      H       3.1042029277    -1.2007849526     0.0000467087
   16      H       1.0093479871    -2.5054210498    -0.0000328375
 ----------------------------------------------------------------
 Molecular Point Group                 C1    NOp =  1
 Largest Abelian Subgroup              C1    NOp =  1
 Nuclear Repulsion Energy =         401.33686680 hartrees
 There are       31 alpha and       31 beta electrons
 Requested basis set is 6-31+G(d)
 There are 59 shells and 185 basis functions

 Total QAlloc Memory Limit   3000 MB
 Mega-Array Size       489 MB
 MEM_STATIC part       500 MB
 A cutoff of  1.0D-12 yielded   1657 shell pairs
 There are     17105 function pairs
 Smallest overlap matrix eigenvalue = 1.26E-06

 Scale SEOQF with 1.000000e-01/1.000000e-01/1.000000e-01

 Standard Electronic Orientation quadrupole field applied
 Nucleus-field energy     =     0.0000000117 hartrees
 Guess from superposition of atomic densities
 Warning:  Energy on first SCF cycle will be non-variational
 SAD guess density has 62.000000 electrons

 -----------------------------------------------------------------------
  General SCF calculation program by
  Eric Jon Sundstrom, Paul Horn, Yuezhi Mao, Dmitri Zuev, Alec White,
  David Stuck, Shaama M.S., Shane Yost, Joonho Lee, David Small,
  Daniel Levine, Susi Lehtola, Hugh Burton, Evgeny Epifanovsky,
  Bang C. Huynh
 -----------------------------------------------------------------------
 Exchange:     0.1577 Hartree-Fock + 1.0000 wB97X + LR-HF
 Correlation:  1.0000 wB97X
 Using SG-2 standard quadrature grid
 using 4 threads for integral computing
 -------------------------------------------------------
 OpenMP Integral computing Module                
 Release: version 1.0, May 2013, Q-Chem Inc. Pittsburgh 
 -------------------------------------------------------
 using 4 threads for integral computing
 -------------------------------------------------------
 OpenMP Integral computing Module                
 Release: version 1.0, May 2013, Q-Chem Inc. Pittsburgh 
 -------------------------------------------------------
 A restricted SCF calculation will be
 performed using DIIS
 SCF converges when DIIS error is below 1.0e-08
 ---------------------------------------
  Cycle       Energy         DIIS error
 ---------------------------------------
    1    -366.9830087829      5.53e-02  
    2    -363.6637576752      3.30e-03  
    3    -363.7019353643      2.26e-03  
    4    -363.7230395672      5.61e-04  
    5    -363.7242815453      2.65e-04  
    6    -363.7245766723      3.62e-05  
    7    -363.7245859741      1.78e-05  
    8    -363.7245885587      5.34e-06  
    9    -363.7245890726      1.63e-06  
   10    -363.7245891315      1.04e-06  
   11    -363.7245891457      3.24e-07  
   12    -363.7245891480      1.58e-07  
   13    -363.7245891483      4.61e-08  
   14    -363.7245891483      1.57e-08  
   15    -363.7245891483      7.93e-09  Convergence criterion met
 ---------------------------------------
 SCF time:   CPU 87.41s  wall 22.00s 
 SCF   energy in the final basis set =     -363.7245891483
 Total energy in the final basis set =     -363.7245891483
 
 Direct TDDFT/TDA calculation will be performed
 Exchange:     0.1577 Hartree-Fock + 1.0000 wB97X + LR-HF
 Correlation:  1.0000 wB97X
 Using SG-2 standard quadrature grid
 Singlet excitation energies requested
 CIS energy converged when residual is below 10e- 6
 ---------------------------------------------------
 Iter    Rts Conv    Rts Left    Ttl Dev     Max Dev
 ---------------------------------------------------
   1         0           3      0.003731    0.001718
   2         0           3      0.001172    0.000538
   3         0           3      0.000753    0.000364
   4         0           3      0.000429    0.000183
   5         0           3      0.000173    0.000080
   6         0           3      0.000076    0.000032
   7         0           3      0.000035    0.000013
   8         0           3      0.000016    0.000006
   9         0           3      0.000006    0.000003
  10         2           1      0.000003    0.000001
  11         2           1      0.000002    0.000001
  12         3           0      0.000002    0.000001    Roots Converged
 ---------------------------------------------------
 
 ---------------------------------------------------
         TDDFT/TDA Excitation Energies              
 ---------------------------------------------------

 Excited state   1: excitation energy (eV) =    5.2705
 Total energy for state  1:                  -363.53090236 au
    Multiplicity: Singlet
    Trans. Mom.: -0.4061 X  -0.3145 Y   0.0001 Z
    Strength   :     0.0340704002
    D(   30) --> V(    1) amplitude =  0.7937
    D(   31) --> V(    5) amplitude =  0.5365

 Excited state   2: excitation energy (eV) =    5.4603
 Total energy for state  2:                  -363.52392711 au
    Multiplicity: Singlet
    Trans. Mom.: -0.7855 X   0.6732 Y   0.0002 Z
    Strength   :     0.1431781971
    D(   30) --> V(    5) amplitude = -0.3612
    D(   31) --> V(    1) amplitude =  0.9027

 Excited state   3: excitation energy (eV) =    6.0220
 Total energy for state  3:                  -363.50328399 au
    Multiplicity: Singlet
    Trans. Mom.: -0.0003 X   0.0003 Y  -0.1959 Z
    Strength   :     0.0056625587
    D(   31) --> V(    2) amplitude =  0.9195
 
 ---------------------------------------------------
 Calculating Relaxed Density
 ---------------------------------------------------
 Iter    Rts Conv    Rts Left    Ttl Dev     Max Dev
 ---------------------------------------------------
   1         0           3      0.000786    0.000349
   2         0           3      0.000330    0.000161
   3         0           3      0.000121    0.000050
   4         0           3      0.000039    0.000015
   5         0           3      0.000015    0.000006
   6         0           3      0.000005    0.000003
   7         3           0      0.000000    0.000000    Roots Converged
 ---------------------------------------------------
  SETman timing summary (seconds)
  CPU time               312.50s
  System time              0.00s
  Wall time               78.58s
 
 --------------------------------------------------------------
 
                    Orbital Energies (a.u.)
 --------------------------------------------------------------
 
 Alpha MOs
 -- Occupied --
-14.4614 -10.3080 -10.3050 -10.2754 -10.2709 -10.2706 -10.2699 -10.2646
-10.2610  -1.1168  -0.9753  -0.9156  -0.8666  -0.8478  -0.7484  -0.7168
 -0.7033  -0.6587  -0.5968  -0.5856  -0.5469  -0.5415  -0.5400  -0.5194
 -0.4983  -0.4587  -0.4470  -0.4367  -0.3817  -0.3121  -0.2942
 -- Virtual --
  0.0591   0.0665   0.0840   0.0883   0.0988   0.1013   0.1050   0.1204
  0.1262   0.1295   0.1317   0.1351   0.1540   0.1611   0.1683   0.1698
  0.1806   0.1954   0.2087   0.2093   0.2224   0.2267   0.2346   0.2397
  0.2402   0.2549   0.2571   0.2600   0.2663   0.2729   0.2786   0.2896
  0.2908   0.2999   0.3040   0.3085   0.3158   0.3170   0.3280   0.3348
  0.3456   0.3477   0.3644   0.3766   0.3916   0.4014   0.4022   0.4177
  0.4386   0.4613   0.4714   0.4963   0.5421   0.5503   0.6182   0.6891
  0.7355   0.7774   0.7794   0.8034   0.8225   0.8250   0.8407   0.8412
  0.8510   0.8575   0.8670   0.8829   0.8978   0.9091   0.9248   0.9599
  1.0032   1.0124   1.0238   1.0462   1.0531   1.0621   1.0706   1.0933
  1.1129   1.1395   1.1560   1.1765   1.2014   1.2221   1.2277   1.2795
  1.2889   1.3140   1.3317   1.3417   1.3636   1.4287   1.4291   1.4482
  1.4770   1.5237   1.5268   1.5620   1.5703   1.5746   1.6066   1.6130
  1.6507   1.7001   1.7615   1.8990   1.9560   1.9965   2.0018   2.0354
  2.0556   2.1082   2.1109   2.1165   2.1766   2.2132   2.2548   2.2858
  2.2859   2.3111   2.3621   2.3728   2.3779   2.3969   2.4258   2.4942
  2.5222   2.5585   2.6614   2.6738   2.7488   2.7702   2.7842   2.8149
  2.8515   2.9246   2.9604   2.9741   3.0698   3.0923   3.2302   3.3607
  3.5647   4.2716   4.3843   4.4136   4.4483   4.4847   4.5208   4.6037
  4.6434   4.9123
 --------------------------------------------------------------
 
          Ground-State Mulliken Net Atomic Charges

     Atom                 Charge (a.u.)
  ----------------------------------------
      1 C                    -0.044546
      2 C                    -0.444302
      3 C                    -0.074983
      4 C                    -0.698657
      5 C                     0.863885
      6 C                    -0.546879
      7 N                    -0.567604
      8 C                     0.107402
      9 C                    -0.251618
     10 H                     0.429878
     11 H                     0.214058
     12 H                     0.215352
     13 H                     0.196964
     14 H                     0.201301
     15 H                     0.195609
     16 H                     0.204140
  ----------------------------------------
  Sum of atomic charges =     0.000000

 -----------------------------------------------------------------
                    Cartesian Multipole Moments
 -----------------------------------------------------------------
    Charge (ESU x 10^10)
                -0.0000
    Dipole Moment (Debye)
         X      -1.4793      Y       1.5661      Z       0.0011
       Tot       2.1543
    Quadrupole Moments (Debye-Ang)
        XX     -44.8823     XY      -3.1664     YY     -44.1346
        XZ      -0.0033     YZ       0.0034     ZZ     -58.6976
    Octopole Moments (Debye-Ang^2)
       XXX     -14.8581    XXY       8.3353    XYY      -7.7991
       YYY      10.4499    XXZ       0.0078    XYZ      -0.0068
       YYZ       0.0021    XZZ      -1.9778    YZZ       2.0059
       ZZZ      -0.0009
    Hexadecapole Moments (Debye-Ang^3)
      XXXX    -803.7391   XXXY     -21.5271   XXYY    -194.0900
      XYYY     -19.6355   YYYY    -364.2987   XXXZ      -0.0242
      XXYZ       0.0134   XYYZ      -0.0073   YYYZ       0.0146
      XXZZ    -187.4554   XYZZ      -3.8724   YYZZ     -92.7135
      XZZZ      -0.0012   YZZZ       0.0031   ZZZZ     -71.5732
 -----------------------------------------------------------------
 Calculating analytic gradient of the CIS energy
 CIS relaxed dipole moment
            1
    1   1.8659919
    2  -1.8960683
    3  -0.0001972
	Magnitude:	 2.660 au	 6.762 Debye
 CIS 3 State Energy is -363.5032839928
 Gradient of the state energy (including CIS Excitation Energy)
            1           2           3           4           5           6
    1  -0.0107020  -0.0131056   0.0297741  -0.0209019  -0.0032440   0.0106954
    2  -0.0153954   0.0252744  -0.0066273   0.0070026  -0.0068321   0.0062491
    3  -0.0000014  -0.0000035   0.0000134   0.0000075   0.0000231   0.0000142
            7           8           9          10          11          12
    1   0.0295339  -0.0311089  -0.0037271   0.0103335   0.0025581   0.0041494
    2   0.0550810   0.0183168  -0.0641810  -0.0240176   0.0052741  -0.0019041
    3  -0.0000801  -0.0000418   0.0000905  -0.0000031  -0.0000040  -0.0000053
           13          14          15          16
    1  -0.0026325   0.0012773  -0.0026146  -0.0002851
    2  -0.0015493  -0.0013467   0.0016119   0.0030435
    3  -0.0000008  -0.0000022  -0.0000025  -0.0000040
 Gradient time:  CPU 49.52 s  wall 12.45 s
 Geometry Optimization Parameters
   NAtoms,    NIC,     NZ,  NCons,   NDum,   NFix, NCnnct, MaxDiis
       16     116       0       0       0       0       0       0


** GEOMETRY OPTIMIZATION IN DELOCALIZED INTERNAL COORDINATES **
   Searching for a Minimum

   Optimization Cycle:   1

                       Coordinates (Angstroms)
     ATOM                X               Y               Z
      1  C         2.1510629040   -0.6892079969    0.0000583065
      2  C         2.1279268385    0.7158180020    0.0000481775
      3  C         0.9322968051    1.4130999466   -0.0000206639
      4  C        -0.2469111607    0.6702008918   -0.0000373513
      5  C        -0.2481930942   -0.7482991083    0.0000020775
      6  C         0.9794739374   -1.4235260513    0.0000165335
      7  N        -1.5617741827    1.0775918311   -0.0002621374
      8  C        -1.6201330769   -1.1629001718   -0.0001374500
      9  C        -2.3820131241   -0.0308062080    0.0002797387
     10  H        -1.8763152174    2.0300108152    0.0004667797
     11  H        -1.9921730325   -2.1730101887   -0.0003253498
     12  H        -3.4525491271    0.0824247420    0.0004541695
     13  H         3.0615938132    1.2620200454    0.0000497686
     14  H         0.9172517540    2.4953419460   -0.0000804893
     15  H         3.1042029277   -1.2007849526    0.0000467087
     16  H         1.0093479871   -2.5054210498   -0.0000328375
   Point Group: c1    Number of degrees of freedom:    42


   Energy is   -363.503283993


 Attempting to generate delocalized internal coordinates
 Initial Hessian constructed with Jon Baker's OPTIMIZE code

 42 Hessian modes will be used to form the next step
  Hessian Eigenvalues:
     0.018594    0.019738    0.020011    0.020794    0.021683    0.022200
     0.022636    0.023004    0.023236    0.023608    0.023851    0.023984
     0.024127    0.160000    0.160000    0.160000    0.160000    0.160000
     0.160000    0.160000    0.220000    0.221879    0.226618    0.240111
     0.246509    0.357123    0.357170    0.357835    0.357899    0.364196
     0.364272    0.370088    0.384319    0.426334    0.434649    0.457693
     0.466917    0.471622    0.474685    0.475669    0.481247    0.509555

 Minimum search - taking simple RFO step
 Searching for Lamda that Minimizes Along All modes
 Value Taken    Lamda =  -0.01171697
 Step Taken.  Stepsize is  0.159151

                             Maximum     Tolerance    Cnvgd?
         Gradient           0.032085      0.000300      NO
         Displacement       0.080012      0.001200      NO
         Energy change     *********      0.000001      NO


 New Cartesian Coordinates Obtained by Inverse Iteration

 Displacement from previous Coordinates is:  0.209715
 ----------------------------------------------------------------
             Standard Nuclear Orientation (Angstroms)
    I     Atom           X                Y                Z
 ----------------------------------------------------------------
    1      C       2.1746274655    -0.6971466426    -0.0000289748
    2      C       2.1291152227     0.6972905016    -0.0000147572
    3      C       0.9090397419     1.4042875648    -0.0000207504
    4      C      -0.2508838530     0.6589133396     0.0000633978
    5      C      -0.2290833018    -0.7506171100     0.0000407214
    6      C       0.9935850025    -1.4379537259    -0.0000519478
    7      N      -1.5839545463     1.0688692834     0.0000238383
    8      C      -1.5968607499    -1.1541211502     0.0001040969
    9      C      -2.3852216832     0.0044176478    -0.0000374708
   10      H      -1.9167969165     2.0452243829     0.0006486700
   11      H      -1.9759409245    -2.1703795949     0.0000035181
   12      H      -3.4606064984     0.1291788810    -0.0000943222
   13      H       3.0612803610     1.2546239445    -0.0000148388
   14      H       0.8794491507     2.4881893184    -0.0000082798
   15      H       3.1353005469    -1.2039113306    -0.0000383719
   16      H       1.0200459339    -2.5243128172    -0.0000485476
 ----------------------------------------------------------------
 Molecular Point Group                 C1    NOp =  1
 Largest Abelian Subgroup              C1    NOp =  1
 Nuclear Repulsion Energy =         400.96435393 hartrees
 There are       31 alpha and       31 beta electrons
 Applying Cartesian multipole field
    Component          Value
    ---------          -----
     (2,0,0)        1.00000E-11
     (0,2,0)        2.00000E-11
     (0,0,2)       -3.00000E-11
 Nucleus-field energy     =     0.0000000117 hartrees
 Requested basis set is 6-31+G(d)
 There are 59 shells and 185 basis functions
 A cutoff of  1.0D-12 yielded   1658 shell pairs
 There are     17111 function pairs
 Smallest overlap matrix eigenvalue = 1.18E-06
 Guess MOs from SCF MO coefficient file

 -----------------------------------------------------------------------
  General SCF calculation program by
  Eric Jon Sundstrom, Paul Horn, Yuezhi Mao, Dmitri Zuev, Alec White,
  David Stuck, Shaama M.S., Shane Yost, Joonho Lee, David Small,
  Daniel Levine, Susi Lehtola, Hugh Burton, Evgeny Epifanovsky,
  Bang C. Huynh
 -----------------------------------------------------------------------
 Exchange:     0.1577 Hartree-Fock + 1.0000 wB97X + LR-HF
 Correlation:  1.0000 wB97X
 Using SG-2 standard quadrature grid
 using 4 threads for integral computing
 -------------------------------------------------------
 OpenMP Integral computing Module                
 Release: version 1.0, May 2013, Q-Chem Inc. Pittsburgh 
 -------------------------------------------------------
 using 4 threads for integral computing
 -------------------------------------------------------
 OpenMP Integral computing Module                
 Release: version 1.0, May 2013, Q-Chem Inc. Pittsburgh 
 -------------------------------------------------------
 A restricted SCF calculation will be
 performed using DIIS
 SCF converges when DIIS error is below 1.0e-08
 ---------------------------------------
  Cycle       Energy         DIIS error
 ---------------------------------------
    1    -363.7161731173      8.05e-04  
    2    -363.7191971528      1.72e-04  
    3    -363.7193868620      1.01e-04  
    4    -363.7194383421      3.39e-05  
    5    -363.7194507086      1.40e-05  
    6    -363.7194537310      8.44e-06  
    7    -363.7194546368      2.06e-06  
    8    -363.7194547137      9.27e-07  
    9    -363.7194547223      2.82e-07  
   10    -363.7194547234      1.60e-07  
   11    -363.7194547237      4.38e-08  
   12    -363.7194547237      1.94e-08  
   13    -363.7194547237      7.78e-09  Convergence criterion met
 ---------------------------------------
 SCF time:   CPU 76.70s  wall 19.00s 
 SCF   energy in the final basis set =     -363.7194547237
 Total energy in the final basis set =     -363.7194547237
 
 Direct TDDFT/TDA calculation will be performed
 Exchange:     0.1577 Hartree-Fock + 1.0000 wB97X + LR-HF
 Correlation:  1.0000 wB97X
 Using SG-2 standard quadrature grid
 Singlet excitation energies requested
 CIS energy converged when residual is below 10e- 6
 ---------------------------------------------------
 Iter    Rts Conv    Rts Left    Ttl Dev     Max Dev
 ---------------------------------------------------
   1         0           3      0.002520    0.001717
   2         0           3      0.000704    0.000418
   3         0           3      0.000414    0.000231
   4         0           3      0.000301    0.000116
   5         0           3      0.000140    0.000061
   6         0           3      0.000113    0.000060
   7         0           3      0.001112    0.001063
   8         0           3      0.000632    0.000560
   9         0           3      0.000322    0.000264
  10         1           2      0.000132    0.000105
  11         1           2      0.000060    0.000047
  12         1           2      0.000021    0.000016
  13         1           2      0.000009    0.000007
  14         2           1      0.000004    0.000003
  15         3           0      0.000002    0.000001    Roots Converged
 ---------------------------------------------------
 
 ---------------------------------------------------
         TDDFT/TDA Excitation Energies              
 ---------------------------------------------------

 Excited state   1: excitation energy (eV) =    5.1650
 Total energy for state  1:                  -363.52964465 au
    Multiplicity: Singlet
    Trans. Mom.: -0.9540 X   0.6845 Y  -0.0000 Z
    Strength   :     0.1744404312
    D(   30) --> V(    5) amplitude = -0.2685
    D(   31) --> V(    1) amplitude =  0.8818
    D(   31) --> V(    5) amplitude =  0.2447

 Excited state   2: excitation energy (eV) =    5.2814
 Total energy for state  2:                  -363.52536741 au
    Multiplicity: Singlet
    Trans. Mom.:  0.1594 X  -0.4112 Y   0.0000 Z
    Strength   :     0.0251639407
    D(   30) --> V(    1) amplitude =  0.7060
    D(   31) --> V(    1) amplitude = -0.3034
    D(   31) --> V(    5) amplitude =  0.5689

 Excited state   3: excitation energy (eV) =    5.6919
 Total energy for state  3:                  -363.51027950 au
    Multiplicity: Singlet
    Trans. Mom.:  0.0000 X  -0.0000 Y   0.2012 Z
    Strength   :     0.0056430411
    D(   31) --> V(    2) amplitude =  0.9335
 
 ---------------------------------------------------
 Calculating Relaxed Density
 ---------------------------------------------------
 Iter    Rts Conv    Rts Left    Ttl Dev     Max Dev
 ---------------------------------------------------
   1         0           3      0.000865    0.000393
   2         0           3      0.000350    0.000175
   3         0           3      0.000124    0.000051
   4         0           3      0.000040    0.000015
   5         0           3      0.000014    0.000006
   6         1           2      0.000003    0.000002
   7         3           0      0.000000    0.000000    Roots Converged
 ---------------------------------------------------
  SETman timing summary (seconds)
  CPU time               343.38s
  System time              0.00s
  Wall time               86.35s
 
 --------------------------------------------------------------
 
                    Orbital Energies (a.u.)
 --------------------------------------------------------------
 
 Alpha MOs
 -- Occupied --
-14.4667 -10.3101 -10.3044 -10.2781 -10.2725 -10.2719 -10.2706 -10.2679
-10.2597  -1.1233  -0.9771  -0.9097  -0.8726  -0.8402  -0.7508  -0.7149
 -0.7022  -0.6588  -0.5947  -0.5866  -0.5485  -0.5449  -0.5418  -0.5112
 -0.4973  -0.4587  -0.4495  -0.4375  -0.3775  -0.3202  -0.2840
 -- Virtual --
  0.0560   0.0641   0.0838   0.0891   0.0985   0.1011   0.1054   0.1205
  0.1258   0.1293   0.1312   0.1341   0.1545   0.1601   0.1684   0.1696
  0.1798   0.1958   0.2069   0.2083   0.2201   0.2261   0.2321   0.2393
  0.2411   0.2523   0.2575   0.2606   0.2657   0.2726   0.2795   0.2892
  0.2903   0.2977   0.3059   0.3074   0.3136   0.3158   0.3255   0.3344
  0.3464   0.3488   0.3620   0.3773   0.3854   0.3993   0.4037   0.4204
  0.4397   0.4559   0.4691   0.4950   0.5359   0.5496   0.6204   0.6894
  0.7337   0.7775   0.7794   0.8021   0.8266   0.8289   0.8390   0.8392
  0.8481   0.8595   0.8725   0.8820   0.8972   0.9055   0.9236   0.9599
  0.9982   1.0071   1.0191   1.0492   1.0522   1.0619   1.0692   1.0952
  1.1122   1.1362   1.1542   1.1579   1.1994   1.2216   1.2282   1.2843
  1.2866   1.3151   1.3285   1.3413   1.3609   1.4241   1.4332   1.4516
  1.4739   1.5222   1.5242   1.5610   1.5740   1.5772   1.6037   1.6103
  1.6554   1.6993   1.7592   1.8890   1.9497   1.9911   2.0064   2.0235
  2.0567   2.1038   2.1045   2.1145   2.1700   2.2070   2.2577   2.2805
  2.2880   2.2998   2.3592   2.3697   2.3815   2.4056   2.4279   2.4883
  2.5240   2.5645   2.6490   2.6758   2.7491   2.7609   2.7826   2.8065
  2.8474   2.9213   2.9533   2.9702   3.0656   3.0909   3.2133   3.3644
  3.5584   4.2759   4.3790   4.4090   4.4419   4.4838   4.5202   4.6024
  4.6433   4.9125
 --------------------------------------------------------------
 
          Ground-State Mulliken Net Atomic Charges

     Atom                 Charge (a.u.)
  ----------------------------------------
      1 C                    -0.056924
      2 C                    -0.437451
      3 C                    -0.115290
      4 C                    -0.732673
      5 C                     0.921464
      6 C                    -0.469878
      7 N                    -0.531920
      8 C                    -0.001693
      9 C                    -0.234968
     10 H                     0.430823
     11 H                     0.209555
     12 H                     0.216986
     13 H                     0.195387
     14 H                     0.201468
     15 H                     0.198901
     16 H                     0.206214
  ----------------------------------------
  Sum of atomic charges =     0.000000

 -----------------------------------------------------------------
                    Cartesian Multipole Moments
 -----------------------------------------------------------------
    Charge (ESU x 10^10)
                -0.0000
    Dipole Moment (Debye)
         X      -1.5016      Y       1.7886      Z       0.0008
       Tot       2.3354
    Quadrupole Moments (Debye-Ang)
        XX     -44.7016     XY      -4.1006     YY     -44.2482
        XZ      -0.0016     YZ       0.0028     ZZ     -58.8616
    Octopole Moments (Debye-Ang^2)
       XXX     -15.6743    XXY       9.6668    XYY      -7.9626
       YYY      11.7343    XXZ       0.0016    XYZ      -0.0056
       YYZ       0.0046    XZZ      -2.0459    YZZ       2.4052
       ZZZ      -0.0023
    Hexadecapole Moments (Debye-Ang^3)
      XXXX    -804.8536   XXXY     -23.3495   XXYY    -194.7058
      XYYY     -17.7058   YYYY    -363.8827   XXXZ       0.0044
      XXYZ       0.0106   XYYZ      -0.0083   YYYZ       0.0110
      XXZZ    -188.9712   XYZZ      -2.5589   YYZZ     -93.1352
      XZZZ       0.0080   YZZZ      -0.0008   ZZZZ     -72.1973
 -----------------------------------------------------------------
 Calculating analytic gradient of the CIS energy
 CIS relaxed dipole moment
            1
    1   2.1125092
    2  -1.9672077
    3  -0.0007084
	Magnitude:	 2.887 au	 7.337 Debye
 CIS 3 State Energy is -363.5102795037
 Gradient of the state energy (including CIS Excitation Energy)
            1           2           3           4           5           6
    1   0.0023988   0.0011632   0.0031666  -0.0124963   0.0091167  -0.0019963
    2   0.0010934  -0.0002246  -0.0013760  -0.0047005   0.0008871   0.0020961
    3   0.0000060   0.0000012  -0.0000085   0.0000002   0.0000007  -0.0000142
            7           8           9          10          11          12
    1   0.0092709  -0.0104390  -0.0055112   0.0027765   0.0009526   0.0015441
    2   0.0173356   0.0136203  -0.0210525  -0.0074566  -0.0000578   0.0008494
    3  -0.0000066   0.0000309  -0.0000140   0.0000116  -0.0000052  -0.0000060
           13          14          15          16
    1   0.0003953  -0.0011154   0.0004942   0.0002793
    2  -0.0008933   0.0000995   0.0001508  -0.0003709
    3  -0.0000001   0.0000019   0.0000006   0.0000013
 Gradient time:  CPU 49.06 s  wall 12.34 s
 Geometry Optimization Parameters
   NAtoms,    NIC,     NZ,  NCons,   NDum,   NFix, NCnnct, MaxDiis
       16     116       0       0       0       0       0       0

 Cartesian Hessian Update
 Hessian updated using BFGS update


** GEOMETRY OPTIMIZATION IN DELOCALIZED INTERNAL COORDINATES **
   Searching for a Minimum

   Optimization Cycle:   2

                       Coordinates (Angstroms)
     ATOM                X               Y               Z
      1  C         2.1746274655   -0.6971466426   -0.0000289748
      2  C         2.1291152227    0.6972905016   -0.0000147572
      3  C         0.9090397419    1.4042875648   -0.0000207504
      4  C        -0.2508838530    0.6589133396    0.0000633978
      5  C        -0.2290833018   -0.7506171100    0.0000407214
      6  C         0.9935850025   -1.4379537259   -0.0000519478
      7  N        -1.5839545463    1.0688692834    0.0000238383
      8  C        -1.5968607499   -1.1541211502    0.0001040969
      9  C        -2.3852216832    0.0044176478   -0.0000374708
     10  H        -1.9167969165    2.0452243829    0.0006486700
     11  H        -1.9759409245   -2.1703795949    0.0000035181
     12  H        -3.4606064984    0.1291788810   -0.0000943222
     13  H         3.0612803610    1.2546239445   -0.0000148388
     14  H         0.8794491507    2.4881893184   -0.0000082798
     15  H         3.1353005469   -1.2039113306   -0.0000383719
     16  H         1.0200459339   -2.5243128172   -0.0000485476
   Point Group: c1    Number of degrees of freedom:    42


   Energy is   -363.510279504

 Hessian updated using BFGS update

 40 Hessian modes will be used to form the next step
  Hessian Eigenvalues:
     0.018594    0.019738    0.020011    0.020794    0.021683    0.022200
     0.022636    0.023004    0.023236    0.023608    0.023851    0.023984
     0.024127    0.158860    0.160000    0.160000    0.160000    0.161361
     0.217578    0.221243    0.225683    0.244359    0.249036    0.346377
     0.357130    0.357347    0.357975    0.358449    0.364482    0.368201
     0.372587    0.398983    0.426788    0.441934    0.458582    0.468786
     0.474582    0.476898    0.490813    0.521526

 Minimum search - taking simple RFO step
 Searching for Lamda that Minimizes Along All modes
 Value Taken    Lamda =  -0.00170797
 Step Taken.  Stepsize is  0.079625

                             Maximum     Tolerance    Cnvgd?
         Gradient           0.012013      0.000300      NO
         Displacement       0.043387      0.001200      NO
         Energy change     -0.006996      0.000001      NO


 New Cartesian Coordinates Obtained by Inverse Iteration

 Displacement from previous Coordinates is:  0.076008
 ----------------------------------------------------------------
             Standard Nuclear Orientation (Angstroms)
    I     Atom           X                Y                Z
 ----------------------------------------------------------------
    1      C       2.1675968010    -0.6990408829    -0.0000061245
    2      C       2.1234918306     0.6970827718    -0.0000033331
    3      C       0.9074567086     1.4126360155     0.0000286147
    4      C      -0.2425776682     0.6628389216     0.0000643116
    5      C      -0.2290217903    -0.7529814146    -0.0000049569
    6      C       0.9910648606    -1.4450333858     0.0000377778
    7      N      -1.5859414321     1.0642153271    -0.0000078894
    8      C      -1.5852051696    -1.1653171936    -0.0001265560
    9      C      -2.3727590090     0.0144749858     0.0001270952
   10      H      -1.9309558204     2.0509042450     0.0003623121
   11      H      -1.9725000093    -2.1798891683    -0.0002046850
   12      H      -3.4517147850     0.1356401782     0.0002808182
   13      H       3.0541811068     1.2581482281    -0.0000239158
   14      H       0.8864292913     2.4967040571     0.0000184848
   15      H       3.1275894126    -1.2066373009    -0.0000300027
   16      H       1.0159606236    -2.5311928915     0.0000140303
 ----------------------------------------------------------------
 Molecular Point Group                 C1    NOp =  1
 Largest Abelian Subgroup              C1    NOp =  1
 Nuclear Repulsion Energy =         401.06766740 hartrees
 There are       31 alpha and       31 beta electrons
 Applying Cartesian multipole field
    Component          Value
    ---------          -----
     (2,0,0)        1.00000E-11
     (0,2,0)        2.00000E-11
     (0,0,2)       -3.00000E-11
 Nucleus-field energy     =     0.0000000117 hartrees
 Requested basis set is 6-31+G(d)
 There are 59 shells and 185 basis functions
 A cutoff of  1.0D-12 yielded   1657 shell pairs
 There are     17105 function pairs
 Smallest overlap matrix eigenvalue = 1.19E-06
 Guess MOs from SCF MO coefficient file

 -----------------------------------------------------------------------
  General SCF calculation program by
  Eric Jon Sundstrom, Paul Horn, Yuezhi Mao, Dmitri Zuev, Alec White,
  David Stuck, Shaama M.S., Shane Yost, Joonho Lee, David Small,
  Daniel Levine, Susi Lehtola, Hugh Burton, Evgeny Epifanovsky,
  Bang C. Huynh
 -----------------------------------------------------------------------
 Exchange:     0.1577 Hartree-Fock + 1.0000 wB97X + LR-HF
 Correlation:  1.0000 wB97X
 Using SG-2 standard quadrature grid
 using 4 threads for integral computing
 -------------------------------------------------------
 OpenMP Integral computing Module                
 Release: version 1.0, May 2013, Q-Chem Inc. Pittsburgh 
 -------------------------------------------------------
 using 4 threads for integral computing
 -------------------------------------------------------
 OpenMP Integral computing Module                
 Release: version 1.0, May 2013, Q-Chem Inc. Pittsburgh 
 -------------------------------------------------------
 A restricted SCF calculation will be
 performed using DIIS
 SCF converges when DIIS error is below 1.0e-08
 ---------------------------------------
  Cycle       Energy         DIIS error
 ---------------------------------------
    1    -363.7148714794      3.68e-04  
    2    -363.7155394853      7.44e-05  
    3    -363.7155833116      4.39e-05  
    4    -363.7155938178      1.73e-05  
    5    -363.7155968269      5.26e-06  
    6    -363.7155974003      3.61e-06  
    7    -363.7155975409      8.49e-07  
    8    -363.7155975529      4.70e-07  
    9    -363.7155975546      1.42e-07  
   10    -363.7155975549      6.23e-08  
   11    -363.7155975549      1.63e-08  
   12    -363.7155975549      6.33e-09  Convergence criterion met
 ---------------------------------------
 SCF time:   CPU 70.74s  wall 18.00s 
 SCF   energy in the final basis set =     -363.7155975549
 Total energy in the final basis set =     -363.7155975549
 
 Direct TDDFT/TDA calculation will be performed
 Exchange:     0.1577 Hartree-Fock + 1.0000 wB97X + LR-HF
 Correlation:  1.0000 wB97X
 Using SG-2 standard quadrature grid
 Singlet excitation energies requested
 CIS energy converged when residual is below 10e- 6
 ---------------------------------------------------
 Iter    Rts Conv    Rts Left    Ttl Dev     Max Dev
 ---------------------------------------------------
   1         0           3      0.002511    0.001713
   2         0           3      0.000693    0.000415
   3         0           3      0.000401    0.000225
   4         0           3      0.000294    0.000114
   5         0           3      0.000139    0.000057
   6         0           3      0.000128    0.000059
   7         0           3      0.000935    0.000867
   8         0           3      0.000499    0.000431
   9         0           3      0.000233    0.000195
  10         1           2      0.000104    0.000087
  11         1           2      0.000045    0.000038
  12         1           2      0.000015    0.000013
  13         2           1      0.000006    0.000005
  14         2           1      0.000003    0.000002
  15         3           0      0.000001    0.000001    Roots Converged
 ---------------------------------------------------
 
 ---------------------------------------------------
         TDDFT/TDA Excitation Energies              
 ---------------------------------------------------

 Excited state   1: excitation energy (eV) =    5.0818
 Total energy for state  1:                  -363.52884419 au
    Multiplicity: Singlet
    Trans. Mom.: -1.0174 X   0.6984 Y   0.0001 Z
    Strength   :     0.1896164985
    D(   30) --> V(    5) amplitude =  0.2588
    D(   31) --> V(    1) amplitude =  0.8972
    D(   31) --> V(    5) amplitude =  0.2250

 Excited state   2: excitation energy (eV) =    5.2763
 Total energy for state  2:                  -363.52169735 au
    Multiplicity: Singlet
    Trans. Mom.:  0.2714 X  -0.3380 Y  -0.0000 Z
    Strength   :     0.0242909729
    D(   30) --> V(    1) amplitude = -0.6905
    D(   31) --> V(    1) amplitude = -0.2688
    D(   31) --> V(    5) amplitude =  0.6073

 Excited state   3: excitation energy (eV) =    5.5631
 Total energy for state  3:                  -363.51115670 au
    Multiplicity: Singlet
    Trans. Mom.:  0.0003 X  -0.0002 Y   0.1985 Z
    Strength   :     0.0053713924
    D(   31) --> V(    2) amplitude =  0.9382
 
 ---------------------------------------------------
 Calculating Relaxed Density
 ---------------------------------------------------
 Iter    Rts Conv    Rts Left    Ttl Dev     Max Dev
 ---------------------------------------------------
   1         0           3      0.000888    0.000412
   2         0           3      0.000355    0.000179
   3         0           3      0.000124    0.000050
   4         0           3      0.000040    0.000015
   5         0           3      0.000014    0.000005
   6         1           2      0.000003    0.000002
   7         3           0      0.000000    0.000000    Roots Converged
 ---------------------------------------------------
  SETman timing summary (seconds)
  CPU time               340.02s
  System time              0.00s
  Wall time               85.52s
 
 --------------------------------------------------------------
 
                    Orbital Energies (a.u.)
 --------------------------------------------------------------
 
 Alpha MOs
 -- Occupied --
-14.4698 -10.3107 -10.3046 -10.2784 -10.2714 -10.2712 -10.2706 -10.2678
-10.2589  -1.1266  -0.9777  -0.9089  -0.8735  -0.8379  -0.7508  -0.7148
 -0.7018  -0.6591  -0.5941  -0.5852  -0.5507  -0.5465  -0.5428  -0.5099
 -0.4942  -0.4567  -0.4506  -0.4392  -0.3777  -0.3215  -0.2802
 -- Virtual --
  0.0564   0.0629   0.0836   0.0892   0.0986   0.1011   0.1053   0.1205
  0.1256   0.1293   0.1312   0.1339   0.1543   0.1599   0.1683   0.1694
  0.1796   0.1958   0.2053   0.2082   0.2191   0.2262   0.2318   0.2392
  0.2416   0.2515   0.2576   0.2607   0.2649   0.2724   0.2788   0.2891
  0.2907   0.2977   0.3060   0.3077   0.3126   0.3155   0.3242   0.3340
  0.3459   0.3476   0.3639   0.3774   0.3840   0.3978   0.4060   0.4225
  0.4398   0.4554   0.4681   0.4951   0.5364   0.5492   0.6220   0.6890
  0.7312   0.7775   0.7786   0.8015   0.8271   0.8282   0.8383   0.8389
  0.8517   0.8603   0.8760   0.8817   0.8979   0.9060   0.9261   0.9602
  0.9961   1.0057   1.0185   1.0488   1.0527   1.0635   1.0677   1.0948
  1.1130   1.1338   1.1525   1.1539   1.1983   1.2217   1.2294   1.2843
  1.2892   1.3145   1.3295   1.3419   1.3590   1.4223   1.4386   1.4533
  1.4747   1.5218   1.5251   1.5575   1.5753   1.5764   1.6029   1.6109
  1.6552   1.6924   1.7620   1.8837   1.9478   1.9925   2.0063   2.0246
  2.0503   2.0992   2.1066   2.1186   2.1719   2.2052   2.2583   2.2759
  2.2880   2.2997   2.3534   2.3673   2.3879   2.4131   2.4348   2.4923
  2.5293   2.5683   2.6422   2.6770   2.7487   2.7583   2.7819   2.8053
  2.8491   2.9217   2.9540   2.9674   3.0641   3.0958   3.2149   3.3604
  3.5580   4.2755   4.3788   4.4122   4.4383   4.4835   4.5205   4.6025
  4.6441   4.9101
 --------------------------------------------------------------
 
          Ground-State Mulliken Net Atomic Charges

     Atom                 Charge (a.u.)
  ----------------------------------------
      1 C                    -0.064392
      2 C                    -0.427034
      3 C                    -0.113429
      4 C                    -0.720177
      5 C                     0.888473
      6 C                    -0.475260
      7 N                    -0.511636
      8 C                     0.002683
      9 C                    -0.238965
     10 H                     0.430895
     11 H                     0.210283
     12 H                     0.215551
     13 H                     0.194239
     14 H                     0.203834
     15 H                     0.198149
     16 H                     0.206786
  ----------------------------------------
  Sum of atomic charges =     0.000000

 -----------------------------------------------------------------
                    Cartesian Multipole Moments
 -----------------------------------------------------------------
    Charge (ESU x 10^10)
                -0.0000
    Dipole Moment (Debye)
         X      -1.5545      Y       1.8871      Z       0.0007
       Tot       2.4449
    Quadrupole Moments (Debye-Ang)
        XX     -44.8361     XY      -4.2730     YY     -44.0854
        XZ      -0.0022     YZ       0.0018     ZZ     -58.9053
    Octopole Moments (Debye-Ang^2)
       XXX     -16.2533    XXY      10.0705    XYY      -8.1412
       YYY      12.1954    XXZ       0.0039    XYZ      -0.0037
       YYZ       0.0011    XZZ      -2.1002    YZZ       2.5450
       ZZZ      -0.0027
    Hexadecapole Moments (Debye-Ang^3)
      XXXX    -803.4630   XXXY     -24.3376   XXYY    -193.6155
      XYYY     -17.7579   YYYY    -365.1537   XXXZ      -0.0144
      XXYZ       0.0060   XYYZ      -0.0038   YYYZ       0.0035
      XXZZ    -188.2342   XYZZ      -2.7476   YYZZ     -93.7766
      XZZZ       0.0027   YZZZ      -0.0050   ZZZZ     -72.3998
 -----------------------------------------------------------------
 Calculating analytic gradient of the CIS energy
 CIS relaxed dipole moment
            1
    1   2.1756691
    2  -2.0076015
    3  -0.0004483
	Magnitude:	 2.960 au	 7.525 Debye
 CIS 3 State Energy is -363.5111566988
 Gradient of the state energy (including CIS Excitation Energy)
            1           2           3           4           5           6
    1   0.0019722   0.0014803  -0.0027110  -0.0006454   0.0049842  -0.0043068
    2   0.0032164  -0.0031368   0.0003806  -0.0007281   0.0005751  -0.0005345
    3  -0.0000061  -0.0000015   0.0000020   0.0000144   0.0000020   0.0000174
            7           8           9          10          11          12
    1  -0.0018874  -0.0026653   0.0033226   0.0004598   0.0000662   0.0001369
    2  -0.0005013   0.0022870   0.0001333  -0.0014869  -0.0010495   0.0007655
    3  -0.0000347  -0.0000299   0.0000342   0.0000051   0.0000010   0.0000004
           13          14          15          16
    1   0.0001144  -0.0002888  -0.0000257  -0.0000062
    2   0.0003240   0.0004108  -0.0002903  -0.0003654
    3   0.0000005  -0.0000016  -0.0000012  -0.0000021
 Gradient time:  CPU 49.10 s  wall 12.35 s
 Geometry Optimization Parameters
   NAtoms,    NIC,     NZ,  NCons,   NDum,   NFix, NCnnct, MaxDiis
       16     116       0       0       0       0       0       0

 Cartesian Hessian Update
 Hessian updated using BFGS update


** GEOMETRY OPTIMIZATION IN DELOCALIZED INTERNAL COORDINATES **
   Searching for a Minimum

   Optimization Cycle:   3

                       Coordinates (Angstroms)
     ATOM                X               Y               Z
      1  C         2.1675968010   -0.6990408829   -0.0000061245
      2  C         2.1234918306    0.6970827718   -0.0000033331
      3  C         0.9074567086    1.4126360155    0.0000286147
      4  C        -0.2425776682    0.6628389216    0.0000643116
      5  C        -0.2290217903   -0.7529814146   -0.0000049569
      6  C         0.9910648606   -1.4450333858    0.0000377778
      7  N        -1.5859414321    1.0642153271   -0.0000078894
      8  C        -1.5852051696   -1.1653171936   -0.0001265560
      9  C        -2.3727590090    0.0144749858    0.0001270952
     10  H        -1.9309558204    2.0509042450    0.0003623121
     11  H        -1.9725000093   -2.1798891683   -0.0002046850
     12  H        -3.4517147850    0.1356401782    0.0002808182
     13  H         3.0541811068    1.2581482281   -0.0000239158
     14  H         0.8864292913    2.4967040571    0.0000184848
     15  H         3.1275894126   -1.2066373009   -0.0000300027
     16  H         1.0159606236   -2.5311928915    0.0000140303
   Point Group: c1    Number of degrees of freedom:    42


   Energy is   -363.511156699

 Hessian updated using BFGS update

 40 Hessian modes will be used to form the next step
  Hessian Eigenvalues:
     0.018593    0.019738    0.020011    0.020794    0.021684    0.022200
     0.022636    0.023004    0.023236    0.023609    0.023851    0.023984
     0.024127    0.153835    0.160000    0.160000    0.160450    0.161183
     0.218655    0.221249    0.231860    0.238542    0.246842    0.328690
     0.357193    0.357516    0.357918    0.358312    0.365084    0.365564
     0.373248    0.403692    0.429386    0.441751    0.463065    0.470591
     0.476837    0.486236    0.494109    0.529079

 Minimum search - taking simple RFO step
 Searching for Lamda that Minimizes Along All modes
 Value Taken    Lamda =  -0.00011239
 Step Taken.  Stepsize is  0.018385

                             Maximum     Tolerance    Cnvgd?
         Gradient           0.002815      0.000300      NO
         Displacement       0.007379      0.001200      NO
         Energy change     -0.000877      0.000001      NO


 New Cartesian Coordinates Obtained by Inverse Iteration

 Displacement from previous Coordinates is:  0.023160
 ----------------------------------------------------------------
             Standard Nuclear Orientation (Angstroms)
    I     Atom           X                Y                Z
 ----------------------------------------------------------------
    1      C       2.1667795668    -0.7000388038    -0.0000630729
    2      C       2.1237367946     0.6977114476    -0.0000141081
    3      C       0.9100640212     1.4132605320     0.0000332481
    4      C      -0.2420735913     0.6644108321     0.0001031114
    5      C      -0.2315000297    -0.7529431958     0.0000432964
    6      C       0.9922381690    -1.4444972080    -0.0000804054
    7      N      -1.5870610488     1.0655069432     0.0001615096
    8      C      -1.5847440998    -1.1666602825     0.0001257588
    9      C      -2.3755663289     0.0142950014    -0.0000645831
   10      H      -1.9329740043     2.0546661046     0.0004159079
   11      H      -1.9732343863    -2.1794340365     0.0000813426
   12      H      -3.4554626887     0.1292987909    -0.0001122835
   13      H       3.0552646287     1.2567728645    -0.0000179759
   14      H       0.8923889777     2.4967887811     0.0000835199
   15      H       3.1272700123    -1.2064456449    -0.0000856250
   16      H       1.0179689588    -2.5301396332    -0.0000836595
 ----------------------------------------------------------------
 Molecular Point Group                 C1    NOp =  1
 Largest Abelian Subgroup              C1    NOp =  1
 Nuclear Repulsion Energy =         400.86445748 hartrees
 There are       31 alpha and       31 beta electrons
 Applying Cartesian multipole field
    Component          Value
    ---------          -----
     (2,0,0)        1.00000E-11
     (0,2,0)        2.00000E-11
     (0,0,2)       -3.00000E-11
 Nucleus-field energy     =     0.0000000117 hartrees
 Requested basis set is 6-31+G(d)
 There are 59 shells and 185 basis functions
 A cutoff of  1.0D-12 yielded   1657 shell pairs
 There are     17105 function pairs
 Smallest overlap matrix eigenvalue = 1.20E-06
 Guess MOs from SCF MO coefficient file

 -----------------------------------------------------------------------
  General SCF calculation program by
  Eric Jon Sundstrom, Paul Horn, Yuezhi Mao, Dmitri Zuev, Alec White,
  David Stuck, Shaama M.S., Shane Yost, Joonho Lee, David Small,
  Daniel Levine, Susi Lehtola, Hugh Burton, Evgeny Epifanovsky,
  Bang C. Huynh
 -----------------------------------------------------------------------
 Exchange:     0.1577 Hartree-Fock + 1.0000 wB97X + LR-HF
 Correlation:  1.0000 wB97X
 Using SG-2 standard quadrature grid
 using 4 threads for integral computing
 -------------------------------------------------------
 OpenMP Integral computing Module                
 Release: version 1.0, May 2013, Q-Chem Inc. Pittsburgh 
 -------------------------------------------------------
 using 4 threads for integral computing
 -------------------------------------------------------
 OpenMP Integral computing Module                
 Release: version 1.0, May 2013, Q-Chem Inc. Pittsburgh 
 -------------------------------------------------------
 A restricted SCF calculation will be
 performed using DIIS
 SCF converges when DIIS error is below 1.0e-08
 ---------------------------------------
  Cycle       Energy         DIIS error
 ---------------------------------------
    1    -363.7155870073      1.05e-04  
    2    -363.7156286151      2.30e-05  
    3    -363.7156306190      2.00e-05  
    4    -363.7156323921      3.84e-06  
    5    -363.7156326350      2.01e-06  
    6    -363.7156327058      1.02e-06  
    7    -363.7156327313      3.21e-07  
    8    -363.7156327330      1.41e-07  
    9    -363.7156327331      2.44e-08  
   10    -363.7156327331      9.92e-09  Convergence criterion met
 ---------------------------------------
 SCF time:   CPU 58.88s  wall 15.00s 
 SCF   energy in the final basis set =     -363.7156327331
 Total energy in the final basis set =     -363.7156327331
 
 Direct TDDFT/TDA calculation will be performed
 Exchange:     0.1577 Hartree-Fock + 1.0000 wB97X + LR-HF
 Correlation:  1.0000 wB97X
 Using SG-2 standard quadrature grid
 Singlet excitation energies requested
 CIS energy converged when residual is below 10e- 6
 ---------------------------------------------------
 Iter    Rts Conv    Rts Left    Ttl Dev     Max Dev
 ---------------------------------------------------
   1         0           3      0.002512    0.001715
   2         0           3      0.000694    0.000416
   3         0           3      0.000401    0.000226
   4         0           3      0.000294    0.000115
   5         0           3      0.000141    0.000058
   6         0           3      0.000132    0.000061
   7         0           3      0.000933    0.000864
   8         0           3      0.000495    0.000425
   9         0           3      0.000227    0.000190
  10         1           2      0.000104    0.000087
  11         1           2      0.000045    0.000037
  12         1           2      0.000015    0.000013
  13         2           1      0.000007    0.000005
  14         2           1      0.000003    0.000002
  15         3           0      0.000001    0.000001    Roots Converged
 ---------------------------------------------------
 
 ---------------------------------------------------
         TDDFT/TDA Excitation Energies              
 ---------------------------------------------------

 Excited state   1: excitation energy (eV) =    5.0809
 Total energy for state  1:                  -363.52891485 au
    Multiplicity: Singlet
    Trans. Mom.:  1.0416 X  -0.6871 Y   0.0001 Z
    Strength   :     0.1938340925
    D(   30) --> V(    5) amplitude = -0.2587
    D(   31) --> V(    1) amplitude =  0.8954
    D(   31) --> V(    5) amplitude =  0.2280

 Excited state   2: excitation energy (eV) =    5.2747
 Total energy for state  2:                  -363.52178965 au
    Multiplicity: Singlet
    Trans. Mom.: -0.2863 X   0.3404 Y  -0.0000 Z
    Strength   :     0.0255600486
    D(   30) --> V(    1) amplitude =  0.6894
    D(   31) --> V(    1) amplitude = -0.2737
    D(   31) --> V(    5) amplitude =  0.6064

 Excited state   3: excitation energy (eV) =    5.5621
 Total energy for state  3:                  -363.51122783 au
    Multiplicity: Singlet
    Trans. Mom.: -0.0002 X   0.0001 Y   0.1988 Z
    Strength   :     0.0053847155
    D(   31) --> V(    2) amplitude =  0.9386
 
 ---------------------------------------------------
 Calculating Relaxed Density
 ---------------------------------------------------
 Iter    Rts Conv    Rts Left    Ttl Dev     Max Dev
 ---------------------------------------------------
   1         0           3      0.000892    0.000413
   2         0           3      0.000357    0.000180
   3         0           3      0.000126    0.000050
   4         0           3      0.000040    0.000015
   5         0           3      0.000014    0.000005
   6         1           2      0.000003    0.000002
   7         3           0      0.000000    0.000000    Roots Converged
 ---------------------------------------------------
  SETman timing summary (seconds)
  CPU time               349.38s
  System time              0.00s
  Wall time               88.11s
 
 --------------------------------------------------------------
 
                    Orbital Energies (a.u.)
 --------------------------------------------------------------
 
 Alpha MOs
 -- Occupied --
-14.4705 -10.3111 -10.3049 -10.2785 -10.2714 -10.2710 -10.2707 -10.2676
-10.2591  -1.1254  -0.9774  -0.9088  -0.8733  -0.8378  -0.7503  -0.7148
 -0.7015  -0.6589  -0.5942  -0.5853  -0.5506  -0.5459  -0.5426  -0.5098
 -0.4942  -0.4567  -0.4504  -0.4392  -0.3777  -0.3214  -0.2801
 -- Virtual --
  0.0563   0.0629   0.0836   0.0892   0.0985   0.1011   0.1052   0.1205
  0.1257   0.1292   0.1312   0.1339   0.1542   0.1598   0.1682   0.1694
  0.1796   0.1956   0.2052   0.2081   0.2190   0.2262   0.2318   0.2393
  0.2416   0.2515   0.2575   0.2607   0.2649   0.2724   0.2786   0.2890
  0.2907   0.2975   0.3059   0.3077   0.3125   0.3156   0.3242   0.3339
  0.3459   0.3471   0.3643   0.3773   0.3839   0.3977   0.4059   0.4220
  0.4391   0.4557   0.4677   0.4940   0.5362   0.5488   0.6213   0.6885
  0.7308   0.7775   0.7788   0.8016   0.8270   0.8275   0.8383   0.8389
  0.8522   0.8603   0.8753   0.8818   0.8980   0.9057   0.9257   0.9602
  0.9960   1.0059   1.0184   1.0488   1.0532   1.0633   1.0676   1.0947
  1.1130   1.1335   1.1519   1.1540   1.1983   1.2214   1.2291   1.2836
  1.2889   1.3142   1.3292   1.3420   1.3593   1.4228   1.4379   1.4533
  1.4742   1.5224   1.5247   1.5571   1.5749   1.5762   1.6031   1.6110
  1.6542   1.6914   1.7613   1.8825   1.9471   1.9927   2.0053   2.0252
  2.0499   2.0979   2.1068   2.1182   2.1699   2.2047   2.2587   2.2748
  2.2863   2.2982   2.3529   2.3681   2.3876   2.4109   2.4326   2.4911
  2.5283   2.5682   2.6406   2.6754   2.7488   2.7584   2.7808   2.8044
  2.8484   2.9203   2.9536   2.9672   3.0640   3.0941   3.2123   3.3589
  3.5569   4.2739   4.3790   4.4127   4.4374   4.4822   4.5210   4.6019
  4.6436   4.9093
 --------------------------------------------------------------
 
          Ground-State Mulliken Net Atomic Charges

     Atom                 Charge (a.u.)
  ----------------------------------------
      1 C                    -0.061222
      2 C                    -0.427328
      3 C                    -0.106451
      4 C                    -0.716448
      5 C                     0.876142
      6 C                    -0.482782
      7 N                    -0.511583
      8 C                     0.011282
      9 C                    -0.241375
     10 H                     0.430598
     11 H                     0.210372
     12 H                     0.215923
     13 H                     0.194203
     14 H                     0.204012
     15 H                     0.198086
     16 H                     0.206571
  ----------------------------------------
  Sum of atomic charges =     0.000000

 -----------------------------------------------------------------
                    Cartesian Multipole Moments
 -----------------------------------------------------------------
    Charge (ESU x 10^10)
                -0.0000
    Dipole Moment (Debye)
         X      -1.5545      Y       1.8830      Z       0.0003
       Tot       2.4417
    Quadrupole Moments (Debye-Ang)
        XX     -44.7968     XY      -4.2397     YY     -44.0763
        XZ      -0.0005     YZ       0.0015     ZZ     -58.9221
    Octopole Moments (Debye-Ang^2)
       XXX     -16.2901    XXY       9.9914    XYY      -8.1604
       YYY      12.2276    XXZ      -0.0013    XYZ      -0.0024
       YYZ       0.0020    XZZ      -2.0496    YZZ       2.5178
       ZZZ      -0.0046
    Hexadecapole Moments (Debye-Ang^3)
      XXXX    -803.6550   XXXY     -24.0965   XXYY    -193.7102
      XYYY     -17.8321   YYYY    -365.3354   XXXZ       0.0115
      XXYZ       0.0038   XYYZ      -0.0027   YYYZ       0.0018
      XXZZ    -188.4546   XYZZ      -2.7485   YYZZ     -93.8387
      XZZZ       0.0121   YZZZ      -0.0065   ZZZZ     -72.4415
 -----------------------------------------------------------------
 Calculating analytic gradient of the CIS energy
 CIS relaxed dipole moment
            1
    1   2.1738113
    2  -2.0115287
    3  -0.0004560
	Magnitude:	 2.962 au	 7.528 Debye
 CIS 3 State Energy is -363.5112278298
 Gradient of the state energy (including CIS Excitation Energy)
            1           2           3           4           5           6
    1   0.0010895   0.0010716  -0.0014821   0.0010375   0.0019076  -0.0021856
    2   0.0020424  -0.0019115   0.0005141   0.0002425   0.0001485  -0.0005162
    3   0.0000047   0.0000022  -0.0000100  -0.0000029  -0.0000022  -0.0000179
            7           8           9          10          11          12
    1  -0.0003287  -0.0013632   0.0003276   0.0000053   0.0001317  -0.0002677
    2  -0.0000982  -0.0000824  -0.0003633  -0.0000458  -0.0001303   0.0001537
    3   0.0000187   0.0000373  -0.0000408   0.0000066  -0.0000023  -0.0000005
           13          14          15          16
    1  -0.0000231   0.0000379  -0.0000384   0.0000801
    2   0.0001314   0.0000209  -0.0001217   0.0000158
    3  -0.0000001   0.0000023   0.0000016   0.0000031
 Gradient time:  CPU 49.53 s  wall 12.46 s
 Geometry Optimization Parameters
   NAtoms,    NIC,     NZ,  NCons,   NDum,   NFix, NCnnct, MaxDiis
       16     116       0       0       0       0       0       0

 Cartesian Hessian Update
 Hessian updated using BFGS update


** GEOMETRY OPTIMIZATION IN DELOCALIZED INTERNAL COORDINATES **
   Searching for a Minimum

   Optimization Cycle:   4

                       Coordinates (Angstroms)
     ATOM                X               Y               Z
      1  C         2.1667795668   -0.7000388038   -0.0000630729
      2  C         2.1237367946    0.6977114476   -0.0000141081
      3  C         0.9100640212    1.4132605320    0.0000332481
      4  C        -0.2420735913    0.6644108321    0.0001031114
      5  C        -0.2315000297   -0.7529431958    0.0000432964
      6  C         0.9922381690   -1.4444972080   -0.0000804054
      7  N        -1.5870610488    1.0655069432    0.0001615096
      8  C        -1.5847440998   -1.1666602825    0.0001257588
      9  C        -2.3755663289    0.0142950014   -0.0000645831
     10  H        -1.9329740043    2.0546661046    0.0004159079
     11  H        -1.9732343863   -2.1794340365    0.0000813426
     12  H        -3.4554626887    0.1292987909   -0.0001122835
     13  H         3.0552646287    1.2567728645   -0.0000179759
     14  H         0.8923889777    2.4967887811    0.0000835199
     15  H         3.1272700123   -1.2064456449   -0.0000856250
     16  H         1.0179689588   -2.5301396332   -0.0000836595
   Point Group: c1    Number of degrees of freedom:    42


   Energy is   -363.511227830

 Hessian updated using BFGS update

 40 Hessian modes will be used to form the next step
  Hessian Eigenvalues:
     0.018593    0.019740    0.020013    0.020794    0.021698    0.022202
     0.022636    0.023004    0.023236    0.023609    0.023851    0.023984
     0.024127    0.139392    0.159542    0.160000    0.160507    0.161731
     0.218896    0.221439    0.233229    0.239333    0.246187    0.273352
     0.357181    0.357527    0.357881    0.358448    0.360915    0.366975
     0.371229    0.403319    0.417042    0.430966    0.442345    0.471177
     0.475236    0.486407    0.489209    0.584990

 Minimum search - taking simple RFO step
 Searching for Lamda that Minimizes Along All modes
 Value Taken    Lamda =  -0.00002995
 Step Taken.  Stepsize is  0.011746

                             Maximum     Tolerance    Cnvgd?
         Gradient           0.001905      0.000300      NO
         Displacement       0.006691      0.001200      NO
         Energy change     -0.000071      0.000001      NO


 New Cartesian Coordinates Obtained by Inverse Iteration

 Displacement from previous Coordinates is:  0.009770
 ----------------------------------------------------------------
             Standard Nuclear Orientation (Angstroms)
    I     Atom           X                Y                Z
 ----------------------------------------------------------------
    1      C       2.1660524967    -0.7013991270    -0.0000009909
    2      C       2.1224421666     0.6983384256     0.0000264356
    3      C       0.9104383943     1.4127624148     0.0000824978
    4      C      -0.2428912399     0.6642728371     0.0000558642
    5      C      -0.2325812873    -0.7534679616    -0.0000184195
    6      C       0.9937423254    -1.4448223497     0.0000338260
    7      N      -1.5873980373     1.0665033545    -0.0000027448
    8      C      -1.5833872523    -1.1665047843    -0.0001688492
    9      C      -2.3754493555     0.0151497697     0.0002514342
   10      H      -1.9333533568     2.0565364305     0.0000682978
   11      H      -1.9736465621    -2.1782571335    -0.0002403152
   12      H      -3.4551909474     0.1274228261     0.0004412103
   13      H       3.0543957809     1.2564502554     0.0000067940
   14      H       0.8931488826     2.4961575044     0.0000803526
   15      H       3.1273491076    -1.2061707330    -0.0000523904
   16      H       1.0194238358    -2.5304192366    -0.0000370214
 ----------------------------------------------------------------
 Molecular Point Group                 C1    NOp =  1
 Largest Abelian Subgroup              C1    NOp =  1
 Nuclear Repulsion Energy =         400.87176887 hartrees
 There are       31 alpha and       31 beta electrons
 Applying Cartesian multipole field
    Component          Value
    ---------          -----
     (2,0,0)        1.00000E-11
     (0,2,0)        2.00000E-11
     (0,0,2)       -3.00000E-11
 Nucleus-field energy     =     0.0000000117 hartrees
 Requested basis set is 6-31+G(d)
 There are 59 shells and 185 basis functions
 A cutoff of  1.0D-12 yielded   1657 shell pairs
 There are     17105 function pairs
 Smallest overlap matrix eigenvalue = 1.20E-06
 Guess MOs from SCF MO coefficient file

 -----------------------------------------------------------------------
  General SCF calculation program by
  Eric Jon Sundstrom, Paul Horn, Yuezhi Mao, Dmitri Zuev, Alec White,
  David Stuck, Shaama M.S., Shane Yost, Joonho Lee, David Small,
  Daniel Levine, Susi Lehtola, Hugh Burton, Evgeny Epifanovsky,
  Bang C. Huynh
 -----------------------------------------------------------------------
 Exchange:     0.1577 Hartree-Fock + 1.0000 wB97X + LR-HF
 Correlation:  1.0000 wB97X
 Using SG-2 standard quadrature grid
 using 4 threads for integral computing
 -------------------------------------------------------
 OpenMP Integral computing Module                
 Release: version 1.0, May 2013, Q-Chem Inc. Pittsburgh 
 -------------------------------------------------------
 using 4 threads for integral computing
 -------------------------------------------------------
 OpenMP Integral computing Module                
 Release: version 1.0, May 2013, Q-Chem Inc. Pittsburgh 
 -------------------------------------------------------
 A restricted SCF calculation will be
 performed using DIIS
 SCF converges when DIIS error is below 1.0e-08
 ---------------------------------------
  Cycle       Energy         DIIS error
 ---------------------------------------
    1    -363.7155116603      5.20e-05  
    2    -363.7155280341      1.23e-05  
    3    -363.7155296567      6.97e-06  
    4    -363.7155300923      3.23e-06  
    5    -363.7155302848      1.49e-06  
    6    -363.7155303380      8.30e-07  
    7    -363.7155303486      1.75e-07  
    8    -363.7155303489      6.08e-08  
    9    -363.7155303490      2.06e-08  
   10    -363.7155303490      7.55e-09  Convergence criterion met
 ---------------------------------------
 SCF time:   CPU 58.92s  wall 15.00s 
 SCF   energy in the final basis set =     -363.7155303490
 Total energy in the final basis set =     -363.7155303490
 
 Direct TDDFT/TDA calculation will be performed
 Exchange:     0.1577 Hartree-Fock + 1.0000 wB97X + LR-HF
 Correlation:  1.0000 wB97X
 Using SG-2 standard quadrature grid
 Singlet excitation energies requested
 CIS energy converged when residual is below 10e- 6
 ---------------------------------------------------
 Iter    Rts Conv    Rts Left    Ttl Dev     Max Dev
 ---------------------------------------------------
   1         0           3      0.002510    0.001714
   2         0           3      0.000694    0.000417
   3         0           3      0.000400    0.000227
   4         0           3      0.000293    0.000117
   5         0           3      0.000142    0.000058
   6         0           3      0.000135    0.000061
   7         0           3      0.000909    0.000836
   8         0           3      0.000480    0.000409
   9         0           3      0.000218    0.000181
  10         1           2      0.000097    0.000081
  11         1           2      0.000043    0.000035
  12         1           2      0.000014    0.000011
  13         2           1      0.000006    0.000005
  14         2           1      0.000003    0.000002
  15         3           0      0.000001    0.000001    Roots Converged
 ---------------------------------------------------
 
 ---------------------------------------------------
         TDDFT/TDA Excitation Energies              
 ---------------------------------------------------

 Excited state   1: excitation energy (eV) =    5.0813
 Total energy for state  1:                  -363.52879687 au
    Multiplicity: Singlet
    Trans. Mom.:  1.0573 X  -0.6741 Y  -0.0002 Z
    Strength   :     0.1957351739
    D(   30) --> V(    5) amplitude = -0.2583
    D(   31) --> V(    1) amplitude =  0.8924
    D(   31) --> V(    5) amplitude = -0.2343

 Excited state   2: excitation energy (eV) =    5.2792
 Total energy for state  2:                  -363.52152399 au
    Multiplicity: Singlet
    Trans. Mom.: -0.3107 X   0.3442 Y   0.0001 Z
    Strength   :     0.0278110967
    D(   30) --> V(    1) amplitude = -0.6864
    D(   31) --> V(    1) amplitude = -0.2833
    D(   31) --> V(    5) amplitude = -0.6053

 Excited state   3: excitation energy (eV) =    5.5589
 Total energy for state  3:                  -363.51124630 au
    Multiplicity: Singlet
    Trans. Mom.: -0.0003 X   0.0002 Y  -0.1993 Z
    Strength   :     0.0054110676
    D(   31) --> V(    2) amplitude =  0.9390
 
 ---------------------------------------------------
 Calculating Relaxed Density
 ---------------------------------------------------
 Iter    Rts Conv    Rts Left    Ttl Dev     Max Dev
 ---------------------------------------------------
   1         0           3      0.000896    0.000414
   2         0           3      0.000359    0.000181
   3         0           3      0.000127    0.000049
   4         0           3      0.000040    0.000015
   5         0           3      0.000014    0.000005
   6         1           2      0.000003    0.000002
   7         3           0      0.000000    0.000000    Roots Converged
 ---------------------------------------------------
  SETman timing summary (seconds)
  CPU time               340.84s
  System time              0.00s
  Wall time               85.76s
 
 --------------------------------------------------------------
 
                    Orbital Energies (a.u.)
 --------------------------------------------------------------
 
 Alpha MOs
 -- Occupied --
-14.4709 -10.3110 -10.3048 -10.2784 -10.2713 -10.2709 -10.2707 -10.2676
-10.2590  -1.1255  -0.9773  -0.9089  -0.8733  -0.8377  -0.7500  -0.7150
 -0.7015  -0.6589  -0.5943  -0.5854  -0.5507  -0.5459  -0.5425  -0.5095
 -0.4941  -0.4569  -0.4504  -0.4391  -0.3778  -0.3214  -0.2800
 -- Virtual --
  0.0564   0.0629   0.0836   0.0892   0.0985   0.1011   0.1052   0.1205
  0.1257   0.1292   0.1313   0.1338   0.1542   0.1597   0.1682   0.1695
  0.1796   0.1955   0.2050   0.2081   0.2190   0.2263   0.2318   0.2393
  0.2417   0.2516   0.2576   0.2607   0.2649   0.2725   0.2786   0.2890
  0.2907   0.2976   0.3059   0.3076   0.3124   0.3157   0.3241   0.3338
  0.3459   0.3469   0.3647   0.3772   0.3839   0.3977   0.4061   0.4220
  0.4391   0.4562   0.4676   0.4936   0.5365   0.5489   0.6213   0.6882
  0.7309   0.7775   0.7791   0.8015   0.8270   0.8273   0.8384   0.8391
  0.8530   0.8603   0.8753   0.8818   0.8981   0.9057   0.9256   0.9602
  0.9961   1.0060   1.0186   1.0488   1.0536   1.0632   1.0675   1.0949
  1.1131   1.1332   1.1516   1.1540   1.1983   1.2214   1.2290   1.2836
  1.2886   1.3142   1.3292   1.3419   1.3595   1.4229   1.4380   1.4533
  1.4740   1.5224   1.5246   1.5571   1.5747   1.5762   1.6033   1.6112
  1.6541   1.6917   1.7614   1.8814   1.9471   1.9938   2.0048   2.0260
  2.0498   2.0972   2.1072   2.1185   2.1696   2.2054   2.2596   2.2746
  2.2855   2.2984   2.3527   2.3697   2.3872   2.4110   2.4322   2.4911
  2.5285   2.5687   2.6406   2.6757   2.7493   2.7585   2.7806   2.8049
  2.8484   2.9205   2.9538   2.9674   3.0642   3.0937   3.2126   3.3592
  3.5568   4.2738   4.3791   4.4132   4.4370   4.4816   4.5217   4.6019
  4.6435   4.9094
 --------------------------------------------------------------
 
          Ground-State Mulliken Net Atomic Charges

     Atom                 Charge (a.u.)
  ----------------------------------------
      1 C                    -0.060002
      2 C                    -0.428945
      3 C                    -0.107062
      4 C                    -0.713198
      5 C                     0.873413
      6 C                    -0.483722
      7 N                    -0.510776
      8 C                     0.014028
      9 C                    -0.243279
     10 H                     0.430693
     11 H                     0.210318
     12 H                     0.215886
     13 H                     0.194094
     14 H                     0.203960
     15 H                     0.198088
     16 H                     0.206503
  ----------------------------------------
  Sum of atomic charges =     0.000000

 -----------------------------------------------------------------
                    Cartesian Multipole Moments
 -----------------------------------------------------------------
    Charge (ESU x 10^10)
                -0.0000
    Dipole Moment (Debye)
         X      -1.5571      Y       1.8864      Z       0.0003
       Tot       2.4461
    Quadrupole Moments (Debye-Ang)
        XX     -44.7935     XY      -4.2450     YY     -44.0685
        XZ      -0.0017     YZ       0.0008     ZZ     -58.9208
    Octopole Moments (Debye-Ang^2)
       XXX     -16.2533    XXY       9.9693    XYY      -8.2097
       YYY      12.2828    XXZ       0.0024    XYZ      -0.0011
       YYZ      -0.0027    XZZ      -2.0410    YZZ       2.5150
       ZZZ      -0.0052
    Hexadecapole Moments (Debye-Ang^3)
      XXXX    -803.4328   XXXY     -23.8924   XXYY    -193.6489
      XYYY     -17.7752   YYYY    -365.4338   XXXZ      -0.0153
      XXYZ       0.0011   XYYZ       0.0021   YYYZ      -0.0027
      XXZZ    -188.4132   XYZZ      -2.6841   YYZZ     -93.8499
      XZZZ       0.0046   YZZZ      -0.0080   ZZZZ     -72.4383
 -----------------------------------------------------------------
 Calculating analytic gradient of the CIS energy
 CIS relaxed dipole moment
            1
    1   2.1732950
    2  -2.0154904
    3  -0.0000718
	Magnitude:	 2.964 au	 7.534 Debye
 CIS 3 State Energy is -363.5112463008
 Gradient of the state energy (including CIS Excitation Energy)
            1           2           3           4           5           6
    1   0.0003036   0.0004105  -0.0006023   0.0007372   0.0002114  -0.0006244
    2   0.0007022  -0.0006643   0.0001349   0.0001598  -0.0001284  -0.0001340
    3  -0.0000069  -0.0000030   0.0000093   0.0000157   0.0000040   0.0000246
            7           8           9          10          11          12
    1  -0.0001615  -0.0001873  -0.0001320  -0.0001327   0.0000820  -0.0000185
    2  -0.0001165  -0.0002053  -0.0001087   0.0003323   0.0001360  -0.0000678
    3  -0.0000414  -0.0000531   0.0000586  -0.0000029   0.0000025   0.0000016
           13          14          15          16
    1  -0.0000634   0.0001059  -0.0000284   0.0000999
    2   0.0000208  -0.0000837  -0.0000387   0.0000615
    3   0.0000001  -0.0000031  -0.0000020  -0.0000038
 Gradient time:  CPU 48.61 s  wall 12.23 s
 Geometry Optimization Parameters
   NAtoms,    NIC,     NZ,  NCons,   NDum,   NFix, NCnnct, MaxDiis
       16     116       0       0       0       0       0       0

 Cartesian Hessian Update
 Hessian updated using BFGS update


** GEOMETRY OPTIMIZATION IN DELOCALIZED INTERNAL COORDINATES **
   Searching for a Minimum

   Optimization Cycle:   5

                       Coordinates (Angstroms)
     ATOM                X               Y               Z
[...]
 There are     17105 function pairs
 Smallest overlap matrix eigenvalue = 1.20E-06
 Guess MOs from SCF MO coefficient file

 -----------------------------------------------------------------------
  General SCF calculation program by
  Eric Jon Sundstrom, Paul Horn, Yuezhi Mao, Dmitri Zuev, Alec White,
  David Stuck, Shaama M.S., Shane Yost, Joonho Lee, David Small,
  Daniel Levine, Susi Lehtola, Hugh Burton, Evgeny Epifanovsky,
  Bang C. Huynh
 -----------------------------------------------------------------------
 Exchange:     0.1577 Hartree-Fock + 1.0000 wB97X + LR-HF
 Correlation:  1.0000 wB97X
 Using SG-2 standard quadrature grid
 using 4 threads for integral computing
 -------------------------------------------------------
 OpenMP Integral computing Module                
 Release: version 1.0, May 2013, Q-Chem Inc. Pittsburgh 
 -------------------------------------------------------
 using 4 threads for integral computing
 -------------------------------------------------------
 OpenMP Integral computing Module                
 Release: version 1.0, May 2013, Q-Chem Inc. Pittsburgh 
 -------------------------------------------------------
 A restricted SCF calculation will be
 performed using DIIS
 SCF converges when DIIS error is below 1.0e-08
 ---------------------------------------
  Cycle       Energy         DIIS error
 ---------------------------------------
    1    -363.7155739566      1.46e-05  
    2    -363.7155750910      2.89e-06  
    3    -363.7155751475      2.35e-06  
    4    -363.7155751693      4.82e-07  
    5    -363.7155751723      1.88e-07  
    6    -363.7155751727      9.49e-08  
    7    -363.7155751729      2.94e-08  
    8    -363.7155751729      1.60e-08  
    9    -363.7155751729      5.00e-09  Convergence criterion met
 ---------------------------------------
 SCF time:   CPU 52.27s  wall 14.00s 
 SCF   energy in the final basis set =     -363.7155751729
 Total energy in the final basis set =     -363.7155751729
 
 Direct TDDFT/TDA calculation will be performed
 Exchange:     0.1577 Hartree-Fock + 1.0000 wB97X + LR-HF
 Correlation:  1.0000 wB97X
 Using SG-2 standard quadrature grid
 Singlet excitation energies requested
 CIS energy converged when residual is below 10e- 6
 ---------------------------------------------------
 Iter    Rts Conv    Rts Left    Ttl Dev     Max Dev
 ---------------------------------------------------
   1         0           3      0.002509    0.001713
   2         0           3      0.000694    0.000418
   3         0           3      0.000400    0.000227
   4         0           3      0.000294    0.000117
   5         0           3      0.000143    0.000058
   6         0           3      0.000136    0.000063
   7         0           3      0.000899    0.000824
   8         0           3      0.000474    0.000402
   9         0           3      0.000212    0.000175
  10         1           2      0.000093    0.000076
  11         1           2      0.000041    0.000034
  12         1           2      0.000013    0.000011
  13         2           1      0.000006    0.000004
  14         2           1      0.000003    0.000002
  15         3           0      0.000001    0.000001    Roots Converged
 ---------------------------------------------------
 
 ---------------------------------------------------
         TDDFT/TDA Excitation Energies              
 ---------------------------------------------------

 Excited state   1: excitation energy (eV) =    5.0830
 Total energy for state  1:                  -363.52877818 au
    Multiplicity: Singlet
    Trans. Mom.:  1.0604 X  -0.6678 Y  -0.0003 Z
    Strength   :     0.1955627461
    D(   30) --> V(    5) amplitude = -0.2583
    D(   31) --> V(    1) amplitude =  0.8906
    D(   31) --> V(    5) amplitude = -0.2374

 Excited state   2: excitation energy (eV) =    5.2818
 Total energy for state  2:                  -363.52147331 au
    Multiplicity: Singlet
    Trans. Mom.: -0.3177 X   0.3478 Y   0.0001 Z
    Strength   :     0.0287103557
    D(   30) --> V(    1) amplitude = -0.6857
    D(   31) --> V(    1) amplitude = -0.2884
    D(   31) --> V(    5) amplitude = -0.6036

 Excited state   3: excitation energy (eV) =    5.5600
 Total energy for state  3:                  -363.51124899 au
    Multiplicity: Singlet
    Trans. Mom.: -0.0005 X   0.0004 Y  -0.2001 Z
    Strength   :     0.0054541231
    D(   31) --> V(    2) amplitude =  0.9391
 
 ---------------------------------------------------
 Calculating Relaxed Density
 ---------------------------------------------------
 Iter    Rts Conv    Rts Left    Ttl Dev     Max Dev
 ---------------------------------------------------
   1         0           3      0.000897    0.000414
   2         0           3      0.000360    0.000180
   3         0           3      0.000128    0.000049
   4         0           3      0.000040    0.000015
   5         0           3      0.000014    0.000005
   6         1           2      0.000003    0.000002
   7         3           0      0.000000    0.000000    Roots Converged
 ---------------------------------------------------
  SETman timing summary (seconds)
  CPU time               343.29s
  System time              0.00s
  Wall time               86.51s
 
 --------------------------------------------------------------
 
                    Orbital Energies (a.u.)
 --------------------------------------------------------------
 
 Alpha MOs
 -- Occupied --
-14.4709 -10.3110 -10.3047 -10.2784 -10.2713 -10.2709 -10.2707 -10.2676
-10.2590  -1.1258  -0.9773  -0.9089  -0.8733  -0.8377  -0.7499  -0.7151
 -0.7015  -0.6589  -0.5944  -0.5854  -0.5507  -0.5460  -0.5425  -0.5093
 -0.4941  -0.4570  -0.4504  -0.4390  -0.3779  -0.3213  -0.2801
 -- Virtual --
  0.0564   0.0629   0.0836   0.0892   0.0986   0.1011   0.1052   0.1205
  0.1257   0.1292   0.1313   0.1338   0.1542   0.1597   0.1682   0.1695
  0.1796   0.1955   0.2051   0.2081   0.2190   0.2263   0.2318   0.2393
  0.2417   0.2516   0.2576   0.2608   0.2649   0.2725   0.2786   0.2890
  0.2907   0.2977   0.3059   0.3076   0.3124   0.3157   0.3241   0.3339
  0.3459   0.3469   0.3648   0.3771   0.3838   0.3976   0.4063   0.4220
  0.4392   0.4563   0.4675   0.4934   0.5366   0.5491   0.6212   0.6881
  0.7309   0.7775   0.7793   0.8015   0.8270   0.8273   0.8384   0.8391
  0.8533   0.8603   0.8752   0.8817   0.8981   0.9058   0.9255   0.9602
  0.9961   1.0060   1.0186   1.0488   1.0536   1.0631   1.0675   1.0950
  1.1130   1.1332   1.1516   1.1540   1.1982   1.2216   1.2289   1.2838
  1.2884   1.3141   1.3294   1.3418   1.3594   1.4229   1.4381   1.4534
  1.4740   1.5221   1.5245   1.5571   1.5747   1.5763   1.6033   1.6113
  1.6543   1.6919   1.7613   1.8813   1.9472   1.9946   2.0046   2.0262
  2.0496   2.0968   2.1073   2.1188   2.1697   2.2056   2.2601   2.2747
  2.2854   2.2987   2.3526   2.3704   2.3869   2.4112   2.4321   2.4910
  2.5286   2.5688   2.6410   2.6760   2.7495   2.7586   2.7805   2.8053
  2.8483   2.9207   2.9538   2.9674   3.0641   3.0935   3.2128   3.3594
  3.5566   4.2740   4.3790   4.4134   4.4369   4.4814   4.5219   4.6019
  4.6436   4.9094
 --------------------------------------------------------------
 
          Ground-State Mulliken Net Atomic Charges

     Atom                 Charge (a.u.)
  ----------------------------------------
      1 C                    -0.060253
      2 C                    -0.429771
      3 C                    -0.109542
      4 C                    -0.712038
      5 C                     0.875516
      6 C                    -0.482866
      7 N                    -0.510386
      8 C                     0.013065
      9 C                    -0.243286
     10 H                     0.430801
     11 H                     0.210311
     12 H                     0.215845
     13 H                     0.194070
     14 H                     0.203911
     15 H                     0.198101
     16 H                     0.206522
  ----------------------------------------
  Sum of atomic charges =     0.000000

 -----------------------------------------------------------------
                    Cartesian Multipole Moments
 -----------------------------------------------------------------
    Charge (ESU x 10^10)
                -0.0000
    Dipole Moment (Debye)
         X      -1.5571      Y       1.8883      Z       0.0002
       Tot       2.4475
    Quadrupole Moments (Debye-Ang)
        XX     -44.8029     XY      -4.2493     YY     -44.0677
        XZ      -0.0022     YZ       0.0005     ZZ     -58.9196
    Octopole Moments (Debye-Ang^2)
       XXX     -16.2132    XXY       9.9690    XYY      -8.2345
       YYY      12.2954    XXZ       0.0045    XYZ      -0.0002
       YYZ      -0.0048    XZZ      -2.0454    YZZ       2.5229
       ZZZ      -0.0051
    Hexadecapole Moments (Debye-Ang^3)
      XXXX    -803.3028   XXXY     -23.8553   XXYY    -193.6831
      XYYY     -17.7382   YYYY    -365.5218   XXXZ      -0.0277
      XXYZ      -0.0009   XYYZ       0.0044   YYYZ      -0.0057
      XXZZ    -188.3757   XYZZ      -2.6746   YYZZ     -93.8575
      XZZZ       0.0012   YZZZ      -0.0092   ZZZZ     -72.4360
 -----------------------------------------------------------------
 Calculating analytic gradient of the CIS energy
 CIS relaxed dipole moment
            1
    1   2.1722629
    2  -2.0160367
    3   0.0001212
	Magnitude:	 2.964 au	 7.533 Debye
 CIS 3 State Energy is -363.5112489871
 Gradient of the state energy (including CIS Excitation Energy)
            1           2           3           4           5           6
    1  -0.0000202  -0.0000194   0.0000239  -0.0000376  -0.0000323   0.0000531
    2  -0.0000581   0.0000595  -0.0000197   0.0000058  -0.0000259   0.0000289
    3  -0.0000110  -0.0000051   0.0000186   0.0000284   0.0000041   0.0000413
            7           8           9          10          11          12
    1   0.0000326   0.0000034   0.0000141  -0.0000133  -0.0000103   0.0000034
    2  -0.0000284   0.0000461  -0.0000261   0.0000307  -0.0000107  -0.0000125
    3  -0.0000724  -0.0000937   0.0001062  -0.0000077   0.0000049   0.0000024
           13          14          15          16
    1  -0.0000009   0.0000013   0.0000002   0.0000020
    2   0.0000052   0.0000065   0.0000024  -0.0000039
    3  -0.0000000  -0.0000060  -0.0000036  -0.0000064
 Gradient time:  CPU 48.58 s  wall 12.22 s
 Geometry Optimization Parameters
   NAtoms,    NIC,     NZ,  NCons,   NDum,   NFix, NCnnct, MaxDiis
       16     116       0       0       0       0       0       0

 Cartesian Hessian Update
 Hessian updated using BFGS update


** GEOMETRY OPTIMIZATION IN DELOCALIZED INTERNAL COORDINATES **
   Searching for a Minimum

   Optimization Cycle:   7

                       Coordinates (Angstroms)
     ATOM                X               Y               Z
      1  C         2.1658217118   -0.7019725479    0.0000274180
      2  C         2.1216969673    0.6989652781    0.0000580600
      3  C         0.9104003943    1.4126869797    0.0001101449
      4  C        -0.2433252926    0.6637724484    0.0000294650
      5  C        -0.2326928447   -0.7538168443   -0.0000622897
      6  C         0.9945667014   -1.4452208351    0.0000623084
      7  N        -1.5868631412    1.0664391468   -0.0000986402
      8  C        -1.5830765215   -1.1665101998   -0.0002929346
      9  C        -2.3751440257    0.0155465636    0.0004064465
     10  H        -1.9320495584    2.0561151548   -0.0001198368
     11  H        -1.9741188726   -2.1782088874   -0.0003557936
     12  H        -3.4547963487    0.1284769878    0.0007114065
     13  H         3.0540097787    1.2566126308    0.0000405938
     14  H         0.8916577992    2.4962035459    0.0000840755
     15  H         3.1277187487   -1.2056060229   -0.0000329309
     16  H         1.0192894554   -2.5309309059   -0.0000415115
   Point Group: c1    Number of degrees of freedom:    42


   Energy is   -363.511248987

 Hessian updated using BFGS update

 42 Hessian modes will be used to form the next step
  Hessian Eigenvalues:
     0.018605    0.019873    0.020261    0.020805    0.022128    0.022632
     0.023004    0.023227    0.023524    0.023826    0.023983    0.024125
     0.042787    0.123839    0.141830    0.159930    0.160000    0.160015
     0.160380    0.160757    0.218301    0.220848    0.232217    0.238323
     0.243548    0.252113    0.332451    0.357216    0.357643    0.357967
     0.358597    0.362952    0.367435    0.378120    0.410317    0.429911
     0.443213    0.458682    0.475978    0.478802    0.488493    0.548494

 Minimum search - taking simple RFO step
 Searching for Lamda that Minimizes Along All modes
 Value Taken    Lamda =  -0.00000019
 Step Taken.  Stepsize is  0.001979

                             Maximum     Tolerance    Cnvgd?
         Gradient           0.000048      0.000300     YES
         Displacement       0.001141      0.001200     YES
         Energy change     -0.000000      0.000001     YES

 Final energy is   -363.511248987119     


 ******************************
 **  OPTIMIZATION CONVERGED  **
 ******************************

                       Coordinates (Angstroms)
     ATOM                X               Y               Z
      1  C         2.1658217118   -0.7019725479    0.0000274180
      2  C         2.1216969673    0.6989652781    0.0000580600
      3  C         0.9104003943    1.4126869797    0.0001101449
      4  C        -0.2433252926    0.6637724484    0.0000294650
      5  C        -0.2326928447   -0.7538168443   -0.0000622897
      6  C         0.9945667014   -1.4452208351    0.0000623084
      7  N        -1.5868631412    1.0664391468   -0.0000986402
      8  C        -1.5830765215   -1.1665101998   -0.0002929346
      9  C        -2.3751440257    0.0155465636    0.0004064465
     10  H        -1.9320495584    2.0561151548   -0.0001198368
     11  H        -1.9741188726   -2.1782088874   -0.0003557936
     12  H        -3.4547963487    0.1284769878    0.0007114065
     13  H         3.0540097787    1.2566126308    0.0000405938
     14  H         0.8916577992    2.4962035459    0.0000840755
     15  H         3.1277187487   -1.2056060229   -0.0000329309
     16  H         1.0192894554   -2.5309309059   -0.0000415115

Z-matrix Print:
$molecule
0 1
C 
C  1 1.375484
H  2 1.083679 1 121.997692
N  1 1.402581 2 130.327506 3 0.000000 0
H  4 1.048147 1 125.911925 2 -0.002393 0
C  4 1.313683 1 110.189980 2 -179.974638 0
H  6 1.085542 4 120.902429 1 179.980750 0
C  2 1.405930 1 116.503811 3 -179.992227 0
H  8 1.086360 2 118.607454 1 179.995295 0
C  8 1.401633 2 122.311521 1 -0.004674 0
H  10 1.085768 8 119.439840 2 179.998769 0
C  10 1.387176 8 120.594136 2 -0.000000 0
H  12 1.085992 10 121.093701 8 179.995042 0
C  12 1.408618 10 118.206135 8 0.008831 0
C  14 1.412038 12 133.610519 10 179.987549 0
H  15 1.084642 14 128.126320 12 0.005040 0
$end

 
 --------------------------------------------------------------
 
                    Orbital Energies (a.u.)
 --------------------------------------------------------------
 
 Alpha MOs
 -- Occupied --
-14.4709 -10.3110 -10.3047 -10.2784 -10.2713 -10.2709 -10.2707 -10.2676
-10.2590  -1.1258  -0.9773  -0.9089  -0.8733  -0.8377  -0.7499  -0.7151
 -0.7015  -0.6589  -0.5944  -0.5854  -0.5507  -0.5460  -0.5425  -0.5093
 -0.4941  -0.4570  -0.4504  -0.4390  -0.3779  -0.3213  -0.2801
 -- Virtual --
  0.0564   0.0629   0.0836   0.0892   0.0986   0.1011   0.1052   0.1205
  0.1257   0.1292   0.1313   0.1338   0.1542   0.1597   0.1682   0.1695
  0.1796   0.1955   0.2051   0.2081   0.2190   0.2263   0.2318   0.2393
  0.2417   0.2516   0.2576   0.2608   0.2649   0.2725   0.2786   0.2890
  0.2907   0.2977   0.3059   0.3076   0.3124   0.3157   0.3241   0.3339
  0.3459   0.3469   0.3648   0.3771   0.3838   0.3976   0.4063   0.4220
  0.4392   0.4563   0.4675   0.4934   0.5366   0.5491   0.6212   0.6881
  0.7309   0.7775   0.7793   0.8015   0.8270   0.8273   0.8384   0.8391
  0.8533   0.8603   0.8752   0.8817   0.8981   0.9058   0.9255   0.9602
  0.9961   1.0060   1.0186   1.0488   1.0536   1.0631   1.0675   1.0950
  1.1130   1.1332   1.1516   1.1540   1.1982   1.2216   1.2289   1.2838
  1.2884   1.3141   1.3294   1.3418   1.3594   1.4229   1.4381   1.4534
  1.4740   1.5221   1.5245   1.5571   1.5747   1.5763   1.6033   1.6113
  1.6543   1.6919   1.7613   1.8813   1.9472   1.9946   2.0046   2.0262
  2.0496   2.0968   2.1073   2.1188   2.1697   2.2056   2.2601   2.2747
  2.2854   2.2987   2.3526   2.3704   2.3869   2.4112   2.4321   2.4910
  2.5286   2.5688   2.6410   2.6760   2.7495   2.7586   2.7805   2.8053
  2.8483   2.9207   2.9538   2.9674   3.0641   3.0935   3.2128   3.3594
  3.5566   4.2740   4.3790   4.4134   4.4369   4.4814   4.5219   4.6019
  4.6436   4.9094
 --------------------------------------------------------------
 
          Ground-State Mulliken Net Atomic Charges

     Atom                 Charge (a.u.)
  ----------------------------------------
      1 C                    -0.060253
      2 C                    -0.429771
      3 C                    -0.109542
      4 C                    -0.712038
      5 C                     0.875516
      6 C                    -0.482866
      7 N                    -0.510386
      8 C                     0.013065
      9 C                    -0.243286
     10 H                     0.430801
     11 H                     0.210311
     12 H                     0.215845
     13 H                     0.194070
     14 H                     0.203911
     15 H                     0.198101
     16 H                     0.206522
  ----------------------------------------
  Sum of atomic charges =     0.000000

 -----------------------------------------------------------------
                    Cartesian Multipole Moments
 -----------------------------------------------------------------
    Charge (ESU x 10^10)
                -0.0000
    Dipole Moment (Debye)
         X      -1.5571      Y       1.8883      Z       0.0002
       Tot       2.4475
    Quadrupole Moments (Debye-Ang)
        XX     -44.8029     XY      -4.2493     YY     -44.0677
        XZ      -0.0022     YZ       0.0005     ZZ     -58.9196
    Octopole Moments (Debye-Ang^2)
       XXX     -16.2132    XXY       9.9690    XYY      -8.2345
       YYY      12.2954    XXZ       0.0045    XYZ      -0.0002
       YYZ      -0.0048    XZZ      -2.0454    YZZ       2.5229
       ZZZ      -0.0051
    Hexadecapole Moments (Debye-Ang^3)
      XXXX    -803.3028   XXXY     -23.8553   XXYY    -193.6831
      XYYY     -17.7382   YYYY    -365.5218   XXXZ      -0.0277
      XXYZ      -0.0009   XYYZ       0.0044   YYYZ      -0.0057
      XXZZ    -188.3757   XYZZ      -2.6746   YYZZ     -93.8575
      XZZZ       0.0012   YZZZ      -0.0092   ZZZZ     -72.4360
 -----------------------------------------------------------------
Archival summary:
1\1\exp-2-52\OPT\ProcedureUnspecified\6-31+G*\187\scaparas\WedJun2314:05:572021WedJun2314:05:572021\0\\#,OPT,ProcedureUnspecified,6-31+G*,\\0,1\C\C,1,1.37548\H,2,1.08368,1,121.998\N,1,1.40258,2,130.328,3,0,0\H,4,1.04815,1,125.912,2,-0.00239319,0\C,4,1.31368,1,110.19,2,-179.975,0\H,6,1.08554,4,120.902,1,179.981,0\C,2,1.40593,1,116.504,3,-179.992,0\H,8,1.08636,2,118.607,1,179.995,0\C,8,1.40163,2,122.312,1,-0.00467425,0\H,10,1.08577,8,119.44,2,179.999,0\C,10,1.38718,8,120.594,2,-0,0\H,12,1.08599,10,121.094,8,179.995,0\C,12,1.40862,10,118.206,8,0.00883109,0\C,14,1.41204,12,133.611,10,179.988,0\H,15,1.08464,14,128.126,12,0.00504003,0\\\@

 Total job time:  801.09s(wall), 3180.56s(cpu) 
 Wed Jun 23 14:05:57 2021

        *************************************************************
        *                                                           *
        *  Thank you very much for using Q-Chem.  Have a nice day.  *
        *                                                           *
        *************************************************************


