
Running Job 1 of 1 QfuncsCAM-B3LYP-VI-3rd.in
qchem QfuncsCAM-B3LYP-VI-3rd.in_119570.0 /scratch/scaparas/job_3584625/qchem119570/ 0
/cm/shared/apps/spack/cpu/opt/spack/linux-centos8-zen2/gcc-10.2.0/qchem-5.3-5qddma6gy34jvefiv7mbcb7qm253n45r/exe/qcprog.exe_s QfuncsCAM-B3LYP-VI-3rd.in_119570.0 /scratch/scaparas/job_3584625/qchem119570/
                  Welcome to Q-Chem
     A Quantum Leap Into The Future Of Chemistry


 Q-Chem 5.3, Q-Chem, Inc., Pleasanton, CA (2020)

 License issued to: University of California, San Diego (site)

 Yihan Shao,  Zhengting Gan,  E. Epifanovsky,  A. T. B. Gilbert,  M. Wormit,  
 J. Kussmann,  A. W. Lange,  A. Behn,  Jia Deng,  Xintian Feng,  D. Ghosh,  
 M. Goldey,  P. R. Horn,  L. D. Jacobson,  I. Kaliman,  T. Kus,  A. Landau,  
 Jie Liu,  E. I. Proynov,  R. M. Richard,  R. P. Steele,  E. J. Sundstrom,  
 H. L. Woodcock III,  P. M. Zimmerman,  D. Zuev,  B. Alam,  B. Albrecht,  
 A. Aldossary,  E. Alguire,  S. A. Baeppler,  D. Barton,  Z. Benda,  
 Y. A. Bernard,  E. J. Berquist,  K. B. Bravaya,  H. Burton,  K. Carter-Fenk,  
 D. Casanova,  Chun-Min Chang,  Yunqing Chen,  A. Chien,  K. D. Closser,  
 M. P. Coons,  S. Coriani,  S. Dasgupta,  A. L. Dempwolff,  M. Diedenhofen,  
 Hainam Do,  R. G. Edgar,  Po-Tung Fang,  S. Faraji,  S. Fatehi,  
 Qingguo Feng,  J. Fosso-Tande,  J. Gayvert,  Qinghui Ge,  A. Ghysels,  
 G. Gidofalvi,  J. Gomes,  J. Gonthier,  S. Gulania,  A. Gunina,  D. Hait,  
 M. W. D. Hanson-Heine,  S. Hammes-Schiffer,  P. H. P. Harbach,  
 A. W. Hauser,  M. F. Herbst,  J. E. Herr,  E. G. Hohenstein,  Z. C. Holden,  
 S. Houck,  Kerwin Hui,  B. C. Huynh,  M. Ivanov,  T.-C. Jagau,  Hyunjun Ji,  
 B. Kaduk,  K. Khistyaev,  Jaehoon Kim,  P. Klunzinger,  K. Koh,  
 D. Kosenkov,  L. Koulias,  T. Kowalczyk,  C. M. Krauter,  A. Kunitsa,  
 Ka Un Lao,  A. Laurent,  K. V. Lawler,  Joonho Lee,  D. Lefrancois,  
 S. Lehtola,  D. S. Levine,  Yi-Pei Li,  You-Sheng Lin,  Fenglai Liu,  
 Kuan-Yu Liu,  E. Livshits,  M. Loipersberger,  A. Luenser,  P. Manohar,  
 E. Mansoor,  S. F. Manzer,  Shan-Ping Mao,  Yuezhi Mao,  N. Mardirossian,  
 A. V. Marenich,  T. Markovich,  L. A. Martinez-Martinez,  S. A. Maurer,  
 N. J. Mayhall,  S. C. McKenzie,  J.-M. Mewes,  P. Morgante,  A. F. Morrison,  
 J. W. Mullinax,  K. Nanda,  T. S. Nguyen-Beck,  R. Olivares-Amaya,  
 K. J. Oosterbaan,  J. A. Parkhill,  S. K. Paul,  F. Pavosevic,  Zheng Pei,  
 T. M. Perrine,  F. Plasser,  P. Pokhilko,  S. Prager,  A. Prociuk,  
 E. Ramos,  B. Rana,  D. R. Rehn,  F. Rob,  E. Rossomme,  M. Scheurer,  
 M. Schneider,  N. Sergueev,  S. M. Sharada,  S. Sharma,  W. Skomorowski,  
 D. W. Small,  T. Stauch,  C. J. Stein,  T. Stein,  Yu-Chuan Su,  
 S. P. Veccham,  Zhen Tao,  A. J. W. Thom,  A. Tkatchenko,  T. Tsuchimochi,  
 N. M. Tubman,  L. Vogt,  M. L. Vidal,  O. Vydrov,  M. A. Watson,  J. Wenzel,  
 M. de Wergifosse,  T. A. Wesolowski,  A. White,  J. Witte,  A. Yamada,  
 Jun Yang,  K. Yao,  S. Yeganeh,  S. R. Yost,  Zhi-Qiang You,  A. Zech,  
 Igor Ying Zhang,  Xing Zhang,  Yan Zhao,  Ying Zhu,  B. R. Brooks,  
 G. K. L. Chan,  C. J. Cramer,  M. S. Gordon,  W. J. Hehre,  A. Klamt,  
 M. W. Schmidt,  C. D. Sherrill,  D. G. Truhlar,  A. Aspuru-Guzik,  R. Baer,  
 A. T. Bell,  N. A. Besley,  Jeng-Da Chai,  A. E. DePrince, III,  
 R. A. DiStasio Jr.,  A. Dreuw,  B. D. Dunietz,  T. R. Furlani,  
 Chao-Ping Hsu,  Yousung Jung,  Jing Kong,  D. S. Lambrecht,  WanZhen Liang,  
 C. Ochsenfeld,  V. A. Rassolov,  L. V. Slipchenko,  J. E. Subotnik,  
 T. Van Voorhis,  J. M. Herbert,  A. I. Krylov,  P. M. W. Gill,  M. Head-Gordon

 Contributors to earlier versions of Q-Chem not listed above: 
 R. D. Adamson,  B. Austin,  J. Baker,  G. J. O. Beran,  K. Brandhorst,  
 S. T. Brown,  E. F. C. Byrd,  A. K. Chakraborty,  C.-L. Cheng,  
 Siu Hung Chien,  D. M. Chipman,  D. L. Crittenden,  H. Dachsel,  
 R. J. Doerksen,  A. D. Dutoi,  L. Fusti-Molnar,  W. A. Goddard III,  
 A. Golubeva-Zadorozhnaya,  S. R. Gwaltney,  G. Hawkins,  A. Heyden,  
 S. Hirata,  G. Kedziora,  F. J. Keil,  C. Kelley,  Jihan Kim,  R. A. King,  
 R. Z. Khaliullin,  P. P. Korambath,  W. Kurlancheek,  A. M. Lee,  M. S. Lee,  
 S. V. Levchenko,  Ching Yeh Lin,  D. Liotard,  R. C. Lochan,  I. Lotan,  
 P. E. Maslen,  N. Nair,  D. P. O'Neill,  D. Neuhauser,  E. Neuscamman,  
 C. M. Oana,  R. Olson,  B. Peters,  R. Peverati,  P. A. Pieniazek,  
 Y. M. Rhee,  J. Ritchie,  M. A. Rohrdanz,  E. Rosta,  N. J. Russ,  
 H. F. Schaefer III,  N. E. Schultz,  N. Shenvi,  A. C. Simmonett,  A. Sodt,  
 D. Stuck,  K. S. Thanthiriwatte,  V. Vanovschi,  Tao Wang,  A. Warshel,  
 C. F. Williams,  Q. Wu,  X. Xu,  W. Zhang

 Please cite Q-Chem as follows:
 Y. Shao et al., Mol. Phys. 113, 184-215 (2015)
 DOI: 10.1080/00268976.2014.952696

 Q-Chem 5.3.1 for Intel X86 EM64T Linux

 Parts of Q-Chem use Armadillo 9.800.1 (Horizon Scraper).
 http://arma.sourceforge.net/

 Q-Chem begins on Wed Jun 23 13:28:58 2021  

Host: 
0

     Scratch files written to /scratch/scaparas/job_3584625/qchem119570//
 Aug2920 |scratch|qcdevops|jenkins|workspace|build_RNUM    
Processing $rem in /cm/shared/apps/spack/cpu/opt/spack/linux-centos8-zen2/gcc-10.2.0/qchem-5.3-5qddma6gy34jvefiv7mbcb7qm253n45r/config/preferences:
Processing $rem in /home/scaparas/.qchemrc:

Checking the input file for inconsistencies... 	...done.

--------------------------------------------------------------
User input:
--------------------------------------------------------------
$molecule
0 1
C   -2.1510630    0.6892080    0.0000880
C   -2.1279270   -0.7158180    0.0000750
C   -0.9322970   -1.4131000   -0.0000110
C    0.2469110   -0.6702010   -0.0000420
C    0.2481930    0.7482990    0.0000000
C   -0.9794740    1.4235260    0.0000320
N    1.5617740   -1.0775920   -0.0002850
C    1.6201330    1.1629000   -0.0001570
C    2.3820130    0.0308060    0.0002480
H    1.8763150   -2.0300110    0.0004380
H    1.9921730    2.1730100   -0.0003480
H    3.4525490   -0.0824250    0.0004080
H   -3.0615940   -1.2620200    0.0000880
H   -0.9172520   -2.4953420   -0.0000730
H   -3.1042030    1.2007850    0.0000900
H   -1.0093480    2.5054210   -0.0000150
$end

$rem
BASIS  =  6-31+G*
GUI  =  2
JOB_TYPE  =  Optimization
METHOD  = CAM-B3LYP
SCF_CONVERGENCE  =  8
THRESH = 12
CIS_N_ROOTS  = 3
CIS_SINGLETS = true
CIS_TRIPLETS = false
CIS_STATE_DERIV = 3
MEM_STATIC=500
MEM_TOTAL=3000
$end
--------------------------------------------------------------
 ----------------------------------------------------------------
             Standard Nuclear Orientation (Angstroms)
    I     Atom           X                Y                Z
 ----------------------------------------------------------------
    1      C       2.1510629040    -0.6892079969     0.0000583065
    2      C       2.1279268385     0.7158180020     0.0000481775
    3      C       0.9322968051     1.4130999466    -0.0000206639
    4      C      -0.2469111607     0.6702008918    -0.0000373513
    5      C      -0.2481930942    -0.7482991083     0.0000020775
    6      C       0.9794739374    -1.4235260513     0.0000165335
    7      N      -1.5617741827     1.0775918311    -0.0002621374
    8      C      -1.6201330769    -1.1629001718    -0.0001374500
    9      C      -2.3820131241    -0.0308062080     0.0002797387
   10      H      -1.8763152174     2.0300108152     0.0004667797
   11      H      -1.9921730325    -2.1730101887    -0.0003253498
   12      H      -3.4525491271     0.0824247420     0.0004541695
   13      H       3.0615938132     1.2620200454     0.0000497686
   14      H       0.9172517540     2.4953419460    -0.0000804893
   15      H       3.1042029277    -1.2007849526     0.0000467087
   16      H       1.0093479871    -2.5054210498    -0.0000328375
 ----------------------------------------------------------------
 Molecular Point Group                 C1    NOp =  1
 Largest Abelian Subgroup              C1    NOp =  1
 Nuclear Repulsion Energy =         401.33686680 hartrees
 There are       31 alpha and       31 beta electrons
 Requested basis set is 6-31+G(d)
 There are 59 shells and 185 basis functions

 Total QAlloc Memory Limit   3000 MB
 Mega-Array Size       489 MB
 MEM_STATIC part       500 MB
 A cutoff of  1.0D-12 yielded   1657 shell pairs
 There are     17105 function pairs
 Smallest overlap matrix eigenvalue = 1.26E-06

 Scale SEOQF with 1.000000e-01/1.000000e-01/1.000000e-01

 Standard Electronic Orientation quadrupole field applied
 Nucleus-field energy     =     0.0000000117 hartrees
 Guess from superposition of atomic densities
 Warning:  Energy on first SCF cycle will be non-variational
 SAD guess density has 62.000000 electrons

 -----------------------------------------------------------------------
  General SCF calculation program by
  Eric Jon Sundstrom, Paul Horn, Yuezhi Mao, Dmitri Zuev, Alec White,
  David Stuck, Shaama M.S., Shane Yost, Joonho Lee, David Small,
  Daniel Levine, Susi Lehtola, Hugh Burton, Evgeny Epifanovsky,
  Bang C. Huynh
 -----------------------------------------------------------------------
 Exchange:     0.1900 Hartree-Fock + 0.3500 B88 + 0.4600 muB88 + LR-HF
 Correlation:  0.1900 VWN5 + 0.8100 LYP
 Using SG-1 standard quadrature grid
 using 4 threads for integral computing
 -------------------------------------------------------
 OpenMP Integral computing Module                
 Release: version 1.0, May 2013, Q-Chem Inc. Pittsburgh 
 -------------------------------------------------------
 using 4 threads for integral computing
 -------------------------------------------------------
 OpenMP Integral computing Module                
 Release: version 1.0, May 2013, Q-Chem Inc. Pittsburgh 
 -------------------------------------------------------
 A restricted SCF calculation will be
 performed using DIIS
 SCF converges when DIIS error is below 1.0e-08
 ---------------------------------------
  Cycle       Energy         DIIS error
 ---------------------------------------
    1    -366.5269421691      5.59e-02  
    2    -363.5416758681      4.00e-03  
    3    -363.5688029305      3.49e-03  
    4    -363.6224082085      7.19e-04  
    5    -363.6241979082      3.39e-04  
    6    -363.6246703704      5.18e-05  
    7    -363.6246808351      2.11e-05  
    8    -363.6246829127      3.96e-06  
    9    -363.6246830654      2.13e-06  
   10    -363.6246830985      7.17e-07  
   11    -363.6246831040      2.81e-07  
   12    -363.6246831046      7.96e-08  
   13    -363.6246831047      3.36e-08  
   14    -363.6246831047      1.60e-08  
   15    -363.6246831047      3.55e-09  Convergence criterion met
 ---------------------------------------
 SCF time:   CPU 59.01s  wall 15.00s 
 SCF   energy in the final basis set =     -363.6246831047
 Total energy in the final basis set =     -363.6246831047
 
 Direct TDDFT/TDA calculation will be performed
 Exchange:     0.1900 Hartree-Fock + 0.3500 B88 + 0.4600 muB88 + LR-HF
 Correlation:  0.1900 VWN5 + 0.8100 LYP
 Using SG-1 standard quadrature grid
 Singlet excitation energies requested
 CIS energy converged when residual is below 10e- 6
 ---------------------------------------------------
 Iter    Rts Conv    Rts Left    Ttl Dev     Max Dev
 ---------------------------------------------------
   1         0           3      0.002309    0.001722
   2         0           3      0.000659    0.000427
   3         0           3      0.000347    0.000209
   4         0           3      0.000184    0.000095
   5         0           3      0.000214    0.000165
   6         0           3      0.000713    0.000661
   7         0           3      0.000499    0.000363
   8         0           3      0.000350    0.000265
   9         1           2      0.000147    0.000119
  10         1           2      0.000061    0.000049
  11         1           2      0.000022    0.000018
  12         1           2      0.000011    0.000009
  13         2           1      0.000004    0.000003
  14         3           0      0.000002    0.000001    Roots Converged
 ---------------------------------------------------
 
 ---------------------------------------------------
         TDDFT/TDA Excitation Energies              
 ---------------------------------------------------

 Excited state   1: excitation energy (eV) =    5.1591
 Total energy for state  1:                  -363.43508897 au
    Multiplicity: Singlet
    Trans. Mom.: -0.3310 X  -0.3500 Y  -0.0001 Z
    Strength   :     0.0293253961
    D(   30) --> V(    2) amplitude = -0.7896
    D(   31) --> V(    6) amplitude =  0.5366

 Excited state   2: excitation energy (eV) =    5.2636
 Total energy for state  2:                  -363.43124805 au
    Multiplicity: Singlet
    Trans. Mom.:  0.7982 X  -0.6298 Y  -0.0017 Z
    Strength   :     0.1333057385
    D(   30) --> V(    6) amplitude =  0.3157
    D(   31) --> V(    2) amplitude =  0.9042

 Excited state   3: excitation energy (eV) =    5.2882
 Total energy for state  3:                  -363.43034691 au
    Multiplicity: Singlet
    Trans. Mom.:  0.0080 X  -0.0064 Y   0.1613 Z
    Strength   :     0.0033840001
    D(   31) --> V(    1) amplitude =  0.9702
 
 ---------------------------------------------------
 Calculating Relaxed Density
 ---------------------------------------------------
 Iter    Rts Conv    Rts Left    Ttl Dev     Max Dev
 ---------------------------------------------------
   1         0           3      0.000943    0.000465
   2         0           3      0.000381    0.000198
   3         0           3      0.000111    0.000044
   4         0           3      0.000036    0.000017
   5         0           3      0.000011    0.000005
   6         2           1      0.000001    0.000001
   7         3           0      0.000000    0.000000    Roots Converged
 ---------------------------------------------------
  SETman timing summary (seconds)
  CPU time               221.40s
  System time              0.00s
  Wall time               55.72s
 
 --------------------------------------------------------------
 
                    Orbital Energies (a.u.)
 --------------------------------------------------------------
 
 Alpha MOs
 -- Occupied --
-14.4575 -10.2980 -10.2950 -10.2650 -10.2601 -10.2598 -10.2595 -10.2543
-10.2512  -1.0688  -0.9265  -0.8675  -0.8188  -0.8002  -0.7032  -0.6723
 -0.6591  -0.6157  -0.5552  -0.5441  -0.5077  -0.5001  -0.4970  -0.4810
 -0.4600  -0.4219  -0.4041  -0.4005  -0.3422  -0.2775  -0.2602
 -- Virtual --
  0.0245   0.0247   0.0429   0.0476   0.0622   0.0631   0.0638   0.0806
  0.0860   0.0908   0.0914   0.0940   0.1128   0.1200   0.1305   0.1318
  0.1407   0.1544   0.1674   0.1680   0.1825   0.1864   0.1947   0.1988
  0.2032   0.2170   0.2186   0.2188   0.2288   0.2360   0.2401   0.2494
  0.2509   0.2609   0.2649   0.2704   0.2736   0.2797   0.2914   0.2961
  0.3077   0.3097   0.3238   0.3384   0.3512   0.3601   0.3609   0.3770
  0.3982   0.4197   0.4300   0.4542   0.4979   0.5063   0.5718   0.6435
  0.6878   0.7288   0.7317   0.7550   0.7728   0.7765   0.7901   0.7927
  0.8012   0.8096   0.8162   0.8346   0.8494   0.8585   0.8747   0.9114
  0.9514   0.9582   0.9700   0.9937   1.0007   1.0110   1.0203   1.0423
  1.0624   1.0886   1.1060   1.1233   1.1550   1.1746   1.1806   1.2316
  1.2435   1.2694   1.2850   1.3104   1.3170   1.3824   1.3973   1.4169
  1.4323   1.4824   1.4915   1.5159   1.5377   1.5432   1.5750   1.5812
  1.6027   1.6560   1.7196   1.8625   1.9188   1.9587   1.9701   1.9946
  2.0132   2.0703   2.0734   2.0849   2.1397   2.1760   2.2182   2.2490
  2.2546   2.2743   2.3303   2.3416   2.3467   2.3621   2.3903   2.4628
  2.4910   2.5227   2.6252   2.6423   2.7139   2.7352   2.7534   2.7772
  2.8131   2.8875   2.9238   2.9359   3.0335   3.0567   3.1945   3.3216
  3.5294   4.2205   4.3266   4.3564   4.3918   4.4279   4.4650   4.5480
  4.5877   4.8596
 --------------------------------------------------------------
 
          Ground-State Mulliken Net Atomic Charges

     Atom                 Charge (a.u.)
  ----------------------------------------
      1 C                     0.021487
      2 C                    -0.462244
      3 C                    -0.120311
      4 C                    -0.775867
      5 C                     1.156029
      6 C                    -0.695367
      7 N                    -0.537449
      8 C                     0.130315
      9 C                    -0.257292
     10 H                     0.418440
     11 H                     0.195025
     12 H                     0.197793
     13 H                     0.180247
     14 H                     0.183077
     15 H                     0.178913
     16 H                     0.187206
  ----------------------------------------
  Sum of atomic charges =     0.000000

 -----------------------------------------------------------------
                    Cartesian Multipole Moments
 -----------------------------------------------------------------
    Charge (ESU x 10^10)
                -0.0000
    Dipole Moment (Debye)
         X      -1.4846      Y       1.5572      Z       0.0011
       Tot       2.1515
    Quadrupole Moments (Debye-Ang)
        XX     -45.6446     XY      -3.1668     YY     -44.7385
        XZ      -0.0032     YZ       0.0033     ZZ     -58.9022
    Octopole Moments (Debye-Ang^2)
       XXX     -14.8371    XXY       8.3326    XYY      -7.9601
       YYY      10.5457    XXZ       0.0075    XYZ      -0.0067
       YYZ       0.0021    XZZ      -1.9952    YZZ       2.0412
       ZZZ      -0.0011
    Hexadecapole Moments (Debye-Ang^3)
      XXXX    -820.3035   XXXY     -21.7369   XXYY    -197.9011
      XYYY     -19.9255   YYYY    -372.9389   XXXZ      -0.0239
      XXYZ       0.0132   XYYZ      -0.0072   YYYZ       0.0143
      XXZZ    -189.8136   XYZZ      -4.0134   YYZZ     -94.1949
      XZZZ      -0.0009   YZZZ       0.0031   ZZZZ     -74.3092
 -----------------------------------------------------------------
 Calculating analytic gradient of the CIS energy
 CIS relaxed dipole moment
            1
    1   2.2188281
    2  -2.3833265
    3   0.0115759
	Magnitude:	 3.256 au	 8.277 Debye
 CIS 3 State Energy is -363.4303469121
 Gradient of the state energy (including CIS Excitation Energy)
            1           2           3           4           5           6
    1  -0.0101128  -0.0128247   0.0297364  -0.0170842   0.0013376   0.0083482
    2  -0.0138024   0.0245687  -0.0058300   0.0036254  -0.0042440   0.0061502
    3  -0.0000251  -0.0000041   0.0001078  -0.0000631   0.0000329   0.0001036
            7           8           9          10          11          12
    1   0.0265975  -0.0357690  -0.0062478   0.0124408   0.0019954   0.0040058
    2   0.0609403   0.0197411  -0.0679043  -0.0269686   0.0043452  -0.0028450
    3  -0.0002011  -0.0000927   0.0001735   0.0000610  -0.0000046  -0.0000047
           13          14          15          16
    1  -0.0018725   0.0016417  -0.0018292  -0.0003634
    2  -0.0010769  -0.0000853   0.0011865   0.0021992
    3  -0.0000019  -0.0000422  -0.0000114  -0.0000279
 Gradient time:  CPU 38.47 s  wall 9.67 s
 Geometry Optimization Parameters
   NAtoms,    NIC,     NZ,  NCons,   NDum,   NFix, NCnnct, MaxDiis
       16     116       0       0       0       0       0       0


** GEOMETRY OPTIMIZATION IN DELOCALIZED INTERNAL COORDINATES **
   Searching for a Minimum

   Optimization Cycle:   1

                       Coordinates (Angstroms)
     ATOM                X               Y               Z
      1  C         2.1510629040   -0.6892079969    0.0000583065
      2  C         2.1279268385    0.7158180020    0.0000481775
      3  C         0.9322968051    1.4130999466   -0.0000206639
      4  C        -0.2469111607    0.6702008918   -0.0000373513
      5  C        -0.2481930942   -0.7482991083    0.0000020775
      6  C         0.9794739374   -1.4235260513    0.0000165335
      7  N        -1.5617741827    1.0775918311   -0.0002621374
      8  C        -1.6201330769   -1.1629001718   -0.0001374500
      9  C        -2.3820131241   -0.0308062080    0.0002797387
     10  H        -1.8763152174    2.0300108152    0.0004667797
     11  H        -1.9921730325   -2.1730101887   -0.0003253498
     12  H        -3.4525491271    0.0824247420    0.0004541695
     13  H         3.0615938132    1.2620200454    0.0000497686
     14  H         0.9172517540    2.4953419460   -0.0000804893
     15  H         3.1042029277   -1.2007849526    0.0000467087
     16  H         1.0093479871   -2.5054210498   -0.0000328375
   Point Group: c1    Number of degrees of freedom:    42


   Energy is   -363.430346912


 Attempting to generate delocalized internal coordinates
 Initial Hessian constructed with Jon Baker's OPTIMIZE code

 42 Hessian modes will be used to form the next step
  Hessian Eigenvalues:
     0.018594    0.019738    0.020011    0.020794    0.021683    0.022200
     0.022636    0.023004    0.023236    0.023608    0.023851    0.023984
     0.024127    0.160000    0.160000    0.160000    0.160000    0.160000
     0.160000    0.160000    0.220000    0.221879    0.226618    0.240111
     0.246509    0.357123    0.357170    0.357835    0.357899    0.364196
     0.364272    0.370088    0.384319    0.426334    0.434649    0.457693
     0.466917    0.471622    0.474685    0.475669    0.481247    0.509555

 Minimum search - taking simple RFO step
 Searching for Lamda that Minimizes Along All modes
 Value Taken    Lamda =  -0.01302523
 Step Taken.  Stepsize is  0.168263

                             Maximum     Tolerance    Cnvgd?
         Gradient           0.035838      0.000300      NO
         Displacement       0.091021      0.001200      NO
         Energy change     *********      0.000001      NO


 New Cartesian Coordinates Obtained by Inverse Iteration

 Displacement from previous Coordinates is:  0.231617
 ----------------------------------------------------------------
             Standard Nuclear Orientation (Angstroms)
    I     Atom           X                Y                Z
 ----------------------------------------------------------------
    1      C       2.1730947245    -0.6986660626    -0.0001857917
    2      C       2.1254213719     0.6955230818    -0.0001276282
    3      C       0.9058689912     1.4014846347    -0.0000648958
    4      C      -0.2537630701     0.6592053940     0.0004125910
    5      C      -0.2298017714    -0.7522655367     0.0001720966
    6      C       0.9943802448    -1.4388622022    -0.0003735436
    7      N      -1.5823399947     1.0696820042     0.0003702649
    8      C      -1.5915990434    -1.1545751170     0.0005491721
    9      C      -2.3787708058     0.0069269794    -0.0001753158
   10      H      -1.9224704543     2.0474437584     0.0001991112
   11      H      -1.9696351926    -2.1695981081     0.0004005899
   12      H      -3.4533863874     0.1374619818    -0.0006774464
   13      H       3.0559900093     1.2530100214    -0.0000359443
   14      H       0.8746503134     2.4835381828     0.0003755777
   15      H       3.1331726587    -1.2037916227    -0.0001054173
   16      H       1.0222833572    -2.5239648966    -0.0002074392
 ----------------------------------------------------------------
 Molecular Point Group                 C1    NOp =  1
 Largest Abelian Subgroup              C1    NOp =  1
 Nuclear Repulsion Energy =         401.38294608 hartrees
 There are       31 alpha and       31 beta electrons
 Applying Cartesian multipole field
    Component          Value
    ---------          -----
     (2,0,0)        1.00000E-11
     (0,2,0)        2.00000E-11
     (0,0,2)       -3.00000E-11
 Nucleus-field energy     =     0.0000000117 hartrees
 Requested basis set is 6-31+G(d)
 There are 59 shells and 185 basis functions
 A cutoff of  1.0D-12 yielded   1658 shell pairs
 There are     17111 function pairs
 Smallest overlap matrix eigenvalue = 1.17E-06
 Guess MOs from SCF MO coefficient file

 -----------------------------------------------------------------------
  General SCF calculation program by
  Eric Jon Sundstrom, Paul Horn, Yuezhi Mao, Dmitri Zuev, Alec White,
  David Stuck, Shaama M.S., Shane Yost, Joonho Lee, David Small,
  Daniel Levine, Susi Lehtola, Hugh Burton, Evgeny Epifanovsky,
  Bang C. Huynh
 -----------------------------------------------------------------------
 Exchange:     0.1900 Hartree-Fock + 0.3500 B88 + 0.4600 muB88 + LR-HF
 Correlation:  0.1900 VWN5 + 0.8100 LYP
 Using SG-1 standard quadrature grid
 using 4 threads for integral computing
 -------------------------------------------------------
 OpenMP Integral computing Module                
 Release: version 1.0, May 2013, Q-Chem Inc. Pittsburgh 
 -------------------------------------------------------
 using 4 threads for integral computing
 -------------------------------------------------------
 OpenMP Integral computing Module                
 Release: version 1.0, May 2013, Q-Chem Inc. Pittsburgh 
 -------------------------------------------------------
 A restricted SCF calculation will be
 performed using DIIS
 SCF converges when DIIS error is below 1.0e-08
 ---------------------------------------
  Cycle       Energy         DIIS error
 ---------------------------------------
    1    -363.6152011870      8.15e-04  
    2    -363.6187449199      1.82e-04  
    3    -363.6188798780      1.33e-04  
    4    -363.6189498145      4.43e-05  
    5    -363.6189600071      1.58e-05  
    6    -363.6189620324      8.09e-06  
    7    -363.6189625739      1.79e-06  
    8    -363.6189626071      8.84e-07  
    9    -363.6189626120      2.97e-07  
   10    -363.6189626125      9.28e-08  
   11    -363.6189626126      2.55e-08  
   12    -363.6189626126      1.21e-08  
   13    -363.6189626126      3.21e-09  Convergence criterion met
 ---------------------------------------
 SCF time:   CPU 51.80s  wall 13.00s 
 SCF   energy in the final basis set =     -363.6189626126
 Total energy in the final basis set =     -363.6189626126
 
 Direct TDDFT/TDA calculation will be performed
 Exchange:     0.1900 Hartree-Fock + 0.3500 B88 + 0.4600 muB88 + LR-HF
 Correlation:  0.1900 VWN5 + 0.8100 LYP
 Using SG-1 standard quadrature grid
 Singlet excitation energies requested
 CIS energy converged when residual is below 10e- 6
 ---------------------------------------------------
 Iter    Rts Conv    Rts Left    Ttl Dev     Max Dev
 ---------------------------------------------------
   1         0           3      0.002301    0.001733
   2         0           3      0.000546    0.000387
   3         0           3      0.000284    0.000181
   4         0           3      0.000158    0.000081
   5         0           3      0.000087    0.000044
   6         0           3      0.000081    0.000039
   7         0           3      0.000748    0.000704
   8         1           2      0.000329    0.000296
   9         1           2      0.000164    0.000146
  10         1           2      0.000066    0.000059
  11         1           2      0.000023    0.000020
  12         2           1      0.000009    0.000008
  13         2           1      0.000004    0.000003
  14         3           0      0.000001    0.000001    Roots Converged
 ---------------------------------------------------
 
 ---------------------------------------------------
         TDDFT/TDA Excitation Energies              
 ---------------------------------------------------

 Excited state   1: excitation energy (eV) =    4.9181
 Total energy for state  1:                  -363.43822574 au
    Multiplicity: Singlet
    Trans. Mom.: -0.0064 X   0.0049 Y  -0.1590 Z
    Strength   :     0.0030526539
    D(   31) --> V(    1) amplitude =  0.9767

 Excited state   2: excitation energy (eV) =    4.9696
 Total energy for state  2:                  -363.43633139 au
    Multiplicity: Singlet
    Trans. Mom.:  0.9576 X  -0.6906 Y  -0.0010 Z
    Strength   :     0.1697148924
    D(   30) --> V(    6) amplitude = -0.2494
    D(   31) --> V(    2) amplitude =  0.9167

 Excited state   3: excitation energy (eV) =    5.1680
 Total energy for state  3:                  -363.42904143 au
    Multiplicity: Singlet
    Trans. Mom.: -0.0866 X   0.2905 Y  -0.0000 Z
    Strength   :     0.0116361953
    D(   30) --> V(    2) amplitude =  0.7238
    D(   31) --> V(    6) amplitude =  0.6116
 
 ---------------------------------------------------
 Calculating Relaxed Density
 ---------------------------------------------------
 Iter    Rts Conv    Rts Left    Ttl Dev     Max Dev
 ---------------------------------------------------
   1         0           3      0.001049    0.000525
   2         0           3      0.000407    0.000205
   3         0           3      0.000118    0.000049
   4         0           3      0.000036    0.000017
   5         0           3      0.000010    0.000005
   6         3           0      0.000000    0.000000    Roots Converged
 ---------------------------------------------------
  SETman timing summary (seconds)
  CPU time               210.34s
  System time              0.00s
  Wall time               52.88s
 
 --------------------------------------------------------------
 
                    Orbital Energies (a.u.)
 --------------------------------------------------------------
 
 Alpha MOs
 -- Occupied --
-14.4635 -10.2995 -10.2937 -10.2667 -10.2610 -10.2603 -10.2596 -10.2568
-10.2493  -1.0775  -0.9284  -0.8620  -0.8253  -0.7921  -0.7060  -0.6710
 -0.6582  -0.6160  -0.5535  -0.5449  -0.5096  -0.5020  -0.5017  -0.4726
 -0.4588  -0.4219  -0.4067  -0.4009  -0.3385  -0.2854  -0.2498
 -- Virtual --
  0.0212   0.0222   0.0428   0.0484   0.0620   0.0634   0.0643   0.0811
  0.0856   0.0905   0.0911   0.0930   0.1136   0.1192   0.1306   0.1318
  0.1399   0.1548   0.1658   0.1670   0.1805   0.1860   0.1927   0.1986
  0.2035   0.2141   0.2194   0.2197   0.2285   0.2361   0.2413   0.2491
  0.2512   0.2595   0.2666   0.2696   0.2717   0.2790   0.2889   0.2962
  0.3088   0.3105   0.3228   0.3391   0.3457   0.3586   0.3640   0.3801
  0.4007   0.4151   0.4279   0.4537   0.4927   0.5072   0.5754   0.6440
  0.6868   0.7292   0.7319   0.7537   0.7779   0.7796   0.7894   0.7912
  0.7996   0.8116   0.8230   0.8340   0.8492   0.8559   0.8747   0.9119
  0.9459   0.9540   0.9659   0.9972   1.0014   1.0122   1.0189   1.0448
  1.0624   1.0844   1.1024   1.1049   1.1525   1.1744   1.1808   1.2378
  1.2410   1.2710   1.2821   1.3098   1.3139   1.3894   1.3920   1.4207
  1.4303   1.4815   1.4907   1.5164   1.5416   1.5451   1.5730   1.5797
  1.6092   1.6561   1.7203   1.8497   1.9133   1.9579   1.9754   1.9843
  2.0181   2.0674   2.0680   2.0847   2.1355   2.1720   2.2234   2.2494
  2.2542   2.2620   2.3292   2.3391   2.3509   2.3758   2.3949   2.4593
  2.4972   2.5318   2.6161   2.6480   2.7148   2.7278   2.7537   2.7711
  2.8091   2.8870   2.9190   2.9339   3.0308   3.0579   3.1817   3.3289
  3.5266   4.2271   4.3228   4.3526   4.3849   4.4285   4.4659   4.5482
  4.5883   4.8617
 --------------------------------------------------------------
 
          Ground-State Mulliken Net Atomic Charges

     Atom                 Charge (a.u.)
  ----------------------------------------
      1 C                     0.004351
      2 C                    -0.453578
      3 C                    -0.178829
      4 C                    -0.782641
      5 C                     1.204153
      6 C                    -0.610529
      7 N                    -0.498399
      8 C                     0.016985
      9 C                    -0.243631
     10 H                     0.420421
     11 H                     0.191169
     12 H                     0.198499
     13 H                     0.178693
     14 H                     0.182539
     15 H                     0.181916
     16 H                     0.188883
  ----------------------------------------
  Sum of atomic charges =     0.000000

 -----------------------------------------------------------------
                    Cartesian Multipole Moments
 -----------------------------------------------------------------
    Charge (ESU x 10^10)
                -0.0000
    Dipole Moment (Debye)
         X      -1.5339      Y       1.7995      Z      -0.0003
       Tot       2.3646
    Quadrupole Moments (Debye-Ang)
        XX     -45.5160     XY      -4.1934     YY     -44.8211
        XZ       0.0043     YZ       0.0007     ZZ     -59.0338
    Octopole Moments (Debye-Ang^2)
       XXX     -15.5290    XXY       9.8608    XYY      -8.3334
       YYY      11.9327    XXZ      -0.0111    XYZ       0.0009
       YYZ       0.0011    XZZ      -2.0898    YZZ       2.4783
       ZZZ      -0.0096
    Hexadecapole Moments (Debye-Ang^3)
      XXXX    -820.3398   XXXY     -23.5997   XXYY    -197.7731
      XYYY     -17.6638   YYYY    -372.4071   XXXZ       0.0802
      XXYZ      -0.0034   XYYZ       0.0146   YYYZ      -0.0023
      XXZZ    -190.7544   XYZZ      -2.4915   YYZZ     -94.5406
      XZZZ       0.0455   YZZZ      -0.0084   ZZZZ     -74.9119
 -----------------------------------------------------------------
 Calculating analytic gradient of the CIS energy
 CIS relaxed dipole moment
            1
    1  -0.8740349
    2   0.5220329
    3   0.0004319
	Magnitude:	 1.018 au	 2.588 Debye
 CIS 3 State Energy is -363.4290414289
 Gradient of the state energy (including CIS Excitation Energy)
            1           2           3           4           5           6
    1  -0.0146572  -0.0149724  -0.0080837   0.0098836   0.0101840   0.0178314
    2   0.0084211  -0.0266043  -0.0152227  -0.0326993   0.0275219   0.0175353
    3   0.0000136   0.0000006  -0.0000316   0.0000210  -0.0000410  -0.0000400
            7           8           9          10          11          12
    1  -0.0356256   0.0206241   0.0275923  -0.0110472   0.0003662  -0.0010110
    2  -0.0512359  -0.0028589   0.0554438   0.0196415  -0.0013457   0.0042919
    3   0.0000213   0.0000960  -0.0000563  -0.0000003  -0.0000014  -0.0000124
           13          14          15          16
    1   0.0002628  -0.0025431   0.0001943   0.0010015
    2  -0.0007085  -0.0022612   0.0002610  -0.0001800
    3   0.0000005   0.0000134   0.0000023   0.0000143
 Gradient time:  CPU 38.72 s  wall 9.73 s
 Geometry Optimization Parameters
   NAtoms,    NIC,     NZ,  NCons,   NDum,   NFix, NCnnct, MaxDiis
       16     116       0       0       0       0       0       0

 Cartesian Hessian Update
 Hessian updated using BFGS update


** GEOMETRY OPTIMIZATION IN DELOCALIZED INTERNAL COORDINATES **
   Searching for a Minimum

   Optimization Cycle:   2

                       Coordinates (Angstroms)
     ATOM                X               Y               Z
      1  C         2.1730947245   -0.6986660626   -0.0001857917
      2  C         2.1254213719    0.6955230818   -0.0001276282
      3  C         0.9058689912    1.4014846347   -0.0000648958
      4  C        -0.2537630701    0.6592053940    0.0004125910
      5  C        -0.2298017714   -0.7522655367    0.0001720966
      6  C         0.9943802448   -1.4388622022   -0.0003735436
      7  N        -1.5823399947    1.0696820042    0.0003702649
      8  C        -1.5915990434   -1.1545751170    0.0005491721
      9  C        -2.3787708058    0.0069269794   -0.0001753158
     10  H        -1.9224704543    2.0474437584    0.0001991112
     11  H        -1.9696351926   -2.1695981081    0.0004005899
     12  H        -3.4533863874    0.1374619818   -0.0006774464
     13  H         3.0559900093    1.2530100214   -0.0000359443
     14  H         0.8746503134    2.4835381828    0.0003755777
     15  H         3.1331726587   -1.2037916227   -0.0001054173
     16  H         1.0222833572   -2.5239648966   -0.0002074392
   Point Group: c1    Number of degrees of freedom:    42


   Energy is   -363.429041429

 Hessian updated using BFGS update

 40 Hessian modes will be used to form the next step
  Hessian Eigenvalues:
     0.018594    0.019738    0.020011    0.020794    0.021683    0.022200
     0.022636    0.023004    0.023236    0.023609    0.023851    0.023984
     0.024127    0.159784    0.160000    0.160000    0.160000    0.161871
     0.218211    0.221350    0.226481    0.245147    0.248916    0.348073
     0.357180    0.357431    0.357866    0.360118    0.364229    0.369605
     0.378042    0.386021    0.426731    0.446395    0.459380    0.467784
     0.473002    0.476357    0.494578    1.168306

 Minimum search - taking simple RFO step
 Searching for Lamda that Minimizes Along All modes
 Value Taken    Lamda =  -0.00822565
 Step Taken.  Stepsize is  0.095529

                             Maximum     Tolerance    Cnvgd?
         Gradient           0.045757      0.000300      NO
         Displacement       0.051565      0.001200      NO
         Energy change      0.001305      0.000001      NO


 New Cartesian Coordinates Obtained by Inverse Iteration

 Displacement from previous Coordinates is:  0.150725
 ----------------------------------------------------------------
             Standard Nuclear Orientation (Angstroms)
    I     Atom           X                Y                Z
 ----------------------------------------------------------------
    1      C       2.1756911632    -0.6964505393    -0.0001985234
    2      C       2.1453538907     0.7130604371    -0.0001508804
    3      C       0.9184677754     1.4257310204    -0.0000666420
    4      C      -0.2472921445     0.6733321318     0.0005058138
    5      C      -0.2425314508    -0.7595099595     0.0002410770
    6      C       0.9823022596    -1.4479182700    -0.0003790849
    7      N      -1.5769925830     1.0694686536     0.0004876298
    8      C      -1.6068373491    -1.1684063911     0.0005390133
    9      C      -2.3921339694    -0.0070324024    -0.0001479715
   10      H      -1.9101485453     2.0436532191    -0.0000191577
   11      H      -1.9868690920    -2.1834254820     0.0003448199
   12      H      -3.4678694294     0.1160702037    -0.0006550307
   13      H       3.0792290733     1.2666075482    -0.0000634820
   14      H       0.8925506541     2.5096523472     0.0004364912
   15      H       3.1328054860    -1.2086154567    -0.0001127157
   16      H       1.0073692126    -2.5336645677    -0.0002353756
 ----------------------------------------------------------------
 Molecular Point Group                 C1    NOp =  1
 Largest Abelian Subgroup              C1    NOp =  1
 Nuclear Repulsion Energy =         398.94814017 hartrees
 There are       31 alpha and       31 beta electrons
 Applying Cartesian multipole field
    Component          Value
    ---------          -----
     (2,0,0)        1.00000E-11
     (0,2,0)        2.00000E-11
     (0,0,2)       -3.00000E-11
 Nucleus-field energy     =     0.0000000118 hartrees
 Requested basis set is 6-31+G(d)
 There are 59 shells and 185 basis functions
 A cutoff of  1.0D-12 yielded   1657 shell pairs
 There are     17105 function pairs
 Smallest overlap matrix eigenvalue = 1.29E-06
 Guess MOs from SCF MO coefficient file

 -----------------------------------------------------------------------
  General SCF calculation program by
  Eric Jon Sundstrom, Paul Horn, Yuezhi Mao, Dmitri Zuev, Alec White,
  David Stuck, Shaama M.S., Shane Yost, Joonho Lee, David Small,
  Daniel Levine, Susi Lehtola, Hugh Burton, Evgeny Epifanovsky,
  Bang C. Huynh
 -----------------------------------------------------------------------
 Exchange:     0.1900 Hartree-Fock + 0.3500 B88 + 0.4600 muB88 + LR-HF
 Correlation:  0.1900 VWN5 + 0.8100 LYP
 Using SG-1 standard quadrature grid
 using 4 threads for integral computing
 -------------------------------------------------------
 OpenMP Integral computing Module                
 Release: version 1.0, May 2013, Q-Chem Inc. Pittsburgh 
 -------------------------------------------------------
 using 4 threads for integral computing
 -------------------------------------------------------
 OpenMP Integral computing Module                
 Release: version 1.0, May 2013, Q-Chem Inc. Pittsburgh 
 -------------------------------------------------------
 A restricted SCF calculation will be
 performed using DIIS
 SCF converges when DIIS error is below 1.0e-08
 ---------------------------------------
  Cycle       Energy         DIIS error
 ---------------------------------------
    1    -363.6192333979      5.98e-04  
    2    -363.6206386209      1.19e-04  
    3    -363.6206782287      9.21e-05  
    4    -363.6207152035      1.81e-05  
    5    -363.6207168836      7.68e-06  
    6    -363.6207173211      2.73e-06  
    7    -363.6207173905      1.25e-06  
    8    -363.6207174090      4.58e-07  
    9    -363.6207174110      2.32e-07  
   10    -363.6207174113      4.08e-08  
   11    -363.6207174113      2.37e-08  
   12    -363.6207174113      5.42e-09  Convergence criterion met
 ---------------------------------------
 SCF time:   CPU 50.13s  wall 13.00s 
 SCF   energy in the final basis set =     -363.6207174113
 Total energy in the final basis set =     -363.6207174113
 
 Direct TDDFT/TDA calculation will be performed
 Exchange:     0.1900 Hartree-Fock + 0.3500 B88 + 0.4600 muB88 + LR-HF
 Correlation:  0.1900 VWN5 + 0.8100 LYP
 Using SG-1 standard quadrature grid
 Singlet excitation energies requested
 CIS energy converged when residual is below 10e- 6
 ---------------------------------------------------
 Iter    Rts Conv    Rts Left    Ttl Dev     Max Dev
 ---------------------------------------------------
   1         0           3      0.002325    0.001755
   2         0           3      0.000565    0.000404
   3         0           3      0.000299    0.000189
   4         0           3      0.000183    0.000084
   5         0           3      0.000114    0.000076
   6         0           3      0.000082    0.000059
   7         0           3      0.000058    0.000035
   8         1           2      0.000627    0.000587
   9         1           2      0.000270    0.000232
  10         1           2      0.000127    0.000105
  11         1           2      0.000042    0.000034
  12         1           2      0.000015    0.000012
  13         2           1      0.000005    0.000004
  14         2           1      0.000002    0.000001
  15         3           0      0.000001    0.000001    Roots Converged
 ---------------------------------------------------
 
 ---------------------------------------------------
         TDDFT/TDA Excitation Energies              
 ---------------------------------------------------

 Excited state   1: excitation energy (eV) =    4.9810
 Total energy for state  1:                  -363.43767020 au
    Multiplicity: Singlet
    Trans. Mom.:  0.9177 X  -0.6694 Y   0.0019 Z
    Strength   :     0.1574544718
    D(   30) --> V(    5) amplitude = -0.2715
    D(   31) --> V(    1) amplitude =  0.8970
    D(   31) --> V(    5) amplitude =  0.2253

 Excited state   2: excitation energy (eV) =    5.0236
 Total energy for state  2:                  -363.43610345 au
    Multiplicity: Singlet
    Trans. Mom.:  0.0104 X  -0.0086 Y  -0.1644 Z
    Strength   :     0.0033506949
    D(   31) --> V(    2) amplitude =  0.9756

 Excited state   3: excitation energy (eV) =    5.0461
 Total energy for state  3:                  -363.43527584 au
    Multiplicity: Singlet
    Trans. Mom.:  0.0122 X   0.3757 Y  -0.0006 Z
    Strength   :     0.0174677512
    D(   30) --> V(    1) amplitude =  0.7433
    D(   31) --> V(    1) amplitude = -0.2394
    D(   31) --> V(    5) amplitude =  0.5698
 
 ---------------------------------------------------
 Calculating Relaxed Density
 ---------------------------------------------------
 Iter    Rts Conv    Rts Left    Ttl Dev     Max Dev
 ---------------------------------------------------
   1         0           3      0.001031    0.000525
   2         0           3      0.000403    0.000207
   3         0           3      0.000116    0.000046
   4         0           3      0.000037    0.000018
   5         0           3      0.000010    0.000005
   6         2           1      0.000001    0.000001
   7         3           0      0.000000    0.000000    Roots Converged
 ---------------------------------------------------
  SETman timing summary (seconds)
  CPU time               228.97s
  System time              0.00s
  Wall time               57.57s
 
 --------------------------------------------------------------
 
                    Orbital Energies (a.u.)
 --------------------------------------------------------------
 
 Alpha MOs
 -- Occupied --
-14.4632 -10.3020 -10.2978 -10.2697 -10.2645 -10.2640 -10.2629 -10.2601
-10.2528  -1.0717  -0.9220  -0.8622  -0.8194  -0.7933  -0.7042  -0.6707
 -0.6567  -0.6133  -0.5557  -0.5424  -0.5070  -0.5007  -0.4978  -0.4745
 -0.4602  -0.4209  -0.4022  -0.4022  -0.3400  -0.2808  -0.2523
 -- Virtual --
  0.0198   0.0223   0.0428   0.0480   0.0603   0.0617   0.0637   0.0804
  0.0857   0.0900   0.0905   0.0932   0.1133   0.1190   0.1300   0.1312
  0.1402   0.1546   0.1662   0.1663   0.1803   0.1858   0.1927   0.1977
  0.2031   0.2150   0.2183   0.2192   0.2284   0.2352   0.2387   0.2467
  0.2501   0.2585   0.2649   0.2691   0.2695   0.2784   0.2894   0.2955
  0.3071   0.3083   0.3219   0.3368   0.3438   0.3533   0.3605   0.3761
  0.3953   0.4119   0.4244   0.4488   0.4857   0.5030   0.5697   0.6340
  0.6710   0.7293   0.7307   0.7542   0.7724   0.7776   0.7870   0.7917
  0.7929   0.8105   0.8170   0.8334   0.8483   0.8502   0.8728   0.9098
  0.9445   0.9530   0.9646   0.9964   1.0008   1.0118   1.0186   1.0433
  1.0564   1.0865   1.1045   1.1065   1.1512   1.1723   1.1764   1.2317
  1.2398   1.2666   1.2821   1.3084   1.3111   1.3836   1.3937   1.4196
  1.4266   1.4755   1.4881   1.5073   1.5395   1.5458   1.5703   1.5747
  1.6024   1.6463   1.7141   1.8527   1.9019   1.9549   1.9714   1.9769
  2.0029   2.0596   2.0630   2.0816   2.1244   2.1472   2.2063   2.2291
  2.2379   2.2550   2.3205   2.3248   2.3391   2.3537   2.3818   2.4468
  2.4883   2.5228   2.6054   2.6332   2.7045   2.7217   2.7299   2.7555
  2.7946   2.8721   2.9069   2.9163   3.0286   3.0442   3.1705   3.3106
  3.4899   4.2172   4.3107   4.3514   4.3824   4.4234   4.4620   4.5424
  4.5840   4.8464
 --------------------------------------------------------------
 
          Ground-State Mulliken Net Atomic Charges

     Atom                 Charge (a.u.)
  ----------------------------------------
      1 C                    -0.005594
      2 C                    -0.433210
      3 C                    -0.165984
      4 C                    -0.747638
      5 C                     1.128952
      6 C                    -0.638786
      7 N                    -0.506000
      8 C                     0.064269
      9 C                    -0.245773
     10 H                     0.419828
     11 H                     0.193879
     12 H                     0.200040
     13 H                     0.181049
     14 H                     0.184488
     15 H                     0.181033
     16 H                     0.189448
  ----------------------------------------
  Sum of atomic charges =     0.000000

 -----------------------------------------------------------------
                    Cartesian Multipole Moments
 -----------------------------------------------------------------
    Charge (ESU x 10^10)
                -0.0000
    Dipole Moment (Debye)
         X      -1.5668      Y       1.7115      Z      -0.0007
       Tot       2.3204
    Quadrupole Moments (Debye-Ang)
        XX     -45.4888     XY      -3.7387     YY     -44.7122
        XZ       0.0055     YZ      -0.0002     ZZ     -59.2763
    Octopole Moments (Debye-Ang^2)
       XXX     -15.9278    XXY       9.4221    XYY      -8.1835
       YYY      11.3546    XXZ      -0.0143    XYZ       0.0032
       YYZ      -0.0024    XZZ      -2.2706    YZZ       2.3319
       ZZZ      -0.0132
    Hexadecapole Moments (Debye-Ang^3)
      XXXX    -825.7841   XXXY     -23.5603   XXYY    -199.9240
      XYYY     -19.3681   YYYY    -377.5017   XXXZ       0.0908
      XXYZ      -0.0081   XYYZ       0.0220   YYYZ      -0.0069
      XXZZ    -192.8945   XYZZ      -3.5841   YYZZ     -96.0344
      XZZZ       0.0517   YZZZ      -0.0114   ZZZZ     -75.5780
 -----------------------------------------------------------------
 Calculating analytic gradient of the CIS energy
 CIS relaxed dipole moment
            1
    1  -0.8335265
    2   0.4867341
    3   0.0014210
	Magnitude:	 0.965 au	 2.453 Debye
 CIS 3 State Energy is -363.4352758377
 Gradient of the state energy (including CIS Excitation Energy)
            1           2           3           4           5           6
    1  -0.0038761  -0.0059399  -0.0080312   0.0130777   0.0039117   0.0071469
    2   0.0025266  -0.0137453  -0.0061462  -0.0160511   0.0140314   0.0074615
    3   0.0000363  -0.0000251  -0.0000300   0.0000886  -0.0000756  -0.0000549
            7           8           9          10          11          12
    1  -0.0278104   0.0170128   0.0152053  -0.0079368  -0.0005940  -0.0018875
    2  -0.0354169  -0.0107470   0.0430975   0.0156618  -0.0017942   0.0020835
    3   0.0000055   0.0001030  -0.0000533  -0.0000126  -0.0000008  -0.0000119
           13          14          15          16
    1   0.0007944  -0.0014071   0.0005435  -0.0002092
    2   0.0005054  -0.0006581   0.0000306  -0.0008394
    3   0.0000002   0.0000109   0.0000057   0.0000141
 Gradient time:  CPU 39.96 s  wall 10.06 s
 Geometry Optimization Parameters
   NAtoms,    NIC,     NZ,  NCons,   NDum,   NFix, NCnnct, MaxDiis
       16     116       0       0       0       0       0       0

 Cartesian Hessian Update
 Hessian updated using BFGS update


** GEOMETRY OPTIMIZATION IN DELOCALIZED INTERNAL COORDINATES **
   Searching for a Minimum

   Optimization Cycle:   3

                       Coordinates (Angstroms)
     ATOM                X               Y               Z
      1  C         2.1756911632   -0.6964505393   -0.0001985234
      2  C         2.1453538907    0.7130604371   -0.0001508804
      3  C         0.9184677754    1.4257310204   -0.0000666420
      4  C        -0.2472921445    0.6733321318    0.0005058138
      5  C        -0.2425314508   -0.7595099595    0.0002410770
      6  C         0.9823022596   -1.4479182700   -0.0003790849
      7  N        -1.5769925830    1.0694686536    0.0004876298
      8  C        -1.6068373491   -1.1684063911    0.0005390133
      9  C        -2.3921339694   -0.0070324024   -0.0001479715
     10  H        -1.9101485453    2.0436532191   -0.0000191577
     11  H        -1.9868690920   -2.1834254820    0.0003448199
     12  H        -3.4678694294    0.1160702037   -0.0006550307
     13  H         3.0792290733    1.2666075482   -0.0000634820
     14  H         0.8925506541    2.5096523472    0.0004364912
     15  H         3.1328054860   -1.2086154567   -0.0001127157
     16  H         1.0073692126   -2.5336645677   -0.0002353756
   Point Group: c1    Number of degrees of freedom:    42


   Energy is   -363.435275838

 Hessian updated using BFGS update

 41 Hessian modes will be used to form the next step
  Hessian Eigenvalues:
     0.018594    0.019738    0.020011    0.020794    0.021683    0.022200
     0.022636    0.023004    0.023236    0.023609    0.023851    0.023984
     0.024127    0.159518    0.159949    0.160000    0.160000    0.160000
     0.161941    0.213166    0.220610    0.226616    0.245122    0.249739
     0.356814    0.357203    0.357587    0.357785    0.362903    0.364201
     0.370287    0.383768    0.413074    0.426939    0.435290    0.448398
     0.460841    0.471873    0.475382    0.481774    0.566688

 Minimum search - taking simple RFO step
 Searching for Lamda that Minimizes Along All modes
 Value Taken    Lamda =  -0.00764200
 Step Taken.  Stepsize is  0.139188

                             Maximum     Tolerance    Cnvgd?
         Gradient           0.028500      0.000300      NO
         Displacement       0.079468      0.001200      NO
         Energy change     -0.006234      0.000001      NO


 New Cartesian Coordinates Obtained by Inverse Iteration

 Displacement from previous Coordinates is:  0.194277
 ----------------------------------------------------------------
             Standard Nuclear Orientation (Angstroms)
    I     Atom           X                Y                Z
 ----------------------------------------------------------------
    1      C       2.1637208400    -0.6842000766    -0.0001841883
    2      C       2.1594769882     0.7340727541    -0.0000311760
    3      C       0.9339067226     1.4473130933    -0.0003438420
    4      C      -0.2425045157     0.6845451765     0.0000245862
    5      C      -0.2614918522    -0.7662561142     0.0003877533
    6      C       0.9657527015    -1.4494923147     0.0000402263
    7      N      -1.5548731634     1.0671918263     0.0005562446
    8      C      -1.6327978154    -1.1746443036    -0.0000257709
    9      C      -2.4062419949    -0.0359194033     0.0000730002
   10      H      -1.8661439997     2.0253096968     0.0001661162
   11      H      -2.0102005709    -2.1868182085    -0.0003586560
   12      H      -3.4784038227     0.0823784330     0.0000111860
   13      H       3.0980939523     1.2748049368     0.0001116003
   14      H       0.9158291460     2.5317253975     0.0001460658
   15      H       3.1155794751    -1.2043811562    -0.0001614753
   16      H       1.0033928606    -2.5330772446     0.0001143109
 ----------------------------------------------------------------
 Molecular Point Group                 C1    NOp =  1
 Largest Abelian Subgroup              C1    NOp =  1
 Nuclear Repulsion Energy =         397.80274111 hartrees
 There are       31 alpha and       31 beta electrons
 Applying Cartesian multipole field
    Component          Value
    ---------          -----
     (2,0,0)        1.00000E-11
     (0,2,0)        2.00000E-11
     (0,0,2)       -3.00000E-11
 Nucleus-field energy     =     0.0000000119 hartrees
 Requested basis set is 6-31+G(d)
 There are 59 shells and 185 basis functions
 A cutoff of  1.0D-12 yielded   1656 shell pairs
 There are     17099 function pairs
 Smallest overlap matrix eigenvalue = 1.40E-06
 Guess MOs from SCF MO coefficient file

 -----------------------------------------------------------------------
  General SCF calculation program by
  Eric Jon Sundstrom, Paul Horn, Yuezhi Mao, Dmitri Zuev, Alec White,
  David Stuck, Shaama M.S., Shane Yost, Joonho Lee, David Small,
  Daniel Levine, Susi Lehtola, Hugh Burton, Evgeny Epifanovsky,
  Bang C. Huynh
 -----------------------------------------------------------------------
 Exchange:     0.1900 Hartree-Fock + 0.3500 B88 + 0.4600 muB88 + LR-HF
 Correlation:  0.1900 VWN5 + 0.8100 LYP
 Using SG-1 standard quadrature grid
 using 4 threads for integral computing
 -------------------------------------------------------
 OpenMP Integral computing Module                
 Release: version 1.0, May 2013, Q-Chem Inc. Pittsburgh 
 -------------------------------------------------------
 using 4 threads for integral computing
 -------------------------------------------------------
 OpenMP Integral computing Module                
 Release: version 1.0, May 2013, Q-Chem Inc. Pittsburgh 
 -------------------------------------------------------
 A restricted SCF calculation will be
 performed using DIIS
 SCF converges when DIIS error is below 1.0e-08
 ---------------------------------------
  Cycle       Energy         DIIS error
 ---------------------------------------
    1    -363.6180210732      7.22e-04  
    2    -363.6206182976      1.32e-04  
    3    -363.6207055124      9.34e-05  
    4    -363.6207430110      3.39e-05  
    5    -363.6207494233      1.18e-05  
    6    -363.6207505592      6.34e-06  
    7    -363.6207508790      1.31e-06  
    8    -363.6207508998      7.25e-07  
    9    -363.6207509027      1.86e-07  
   10    -363.6207509029      8.09e-08  
   11    -363.6207509030      2.32e-08  
   12    -363.6207509030      9.89e-09  Convergence criterion met
 ---------------------------------------
 SCF time:   CPU 49.57s  wall 12.00s 
 SCF   energy in the final basis set =     -363.6207509030
 Total energy in the final basis set =     -363.6207509030
 
 Direct TDDFT/TDA calculation will be performed
 Exchange:     0.1900 Hartree-Fock + 0.3500 B88 + 0.4600 muB88 + LR-HF
 Correlation:  0.1900 VWN5 + 0.8100 LYP
 Using SG-1 standard quadrature grid
 Singlet excitation energies requested
 CIS energy converged when residual is below 10e- 6
 ---------------------------------------------------
 Iter    Rts Conv    Rts Left    Ttl Dev     Max Dev
 ---------------------------------------------------
   1         0           3      0.003702    0.001757
   2         0           3      0.001050    0.000516
   3         0           3      0.000597    0.000295
   4         0           3      0.000254    0.000115
   5         0           3      0.000087    0.000039
   6         0           3      0.000039    0.000015
   7         0           3      0.000016    0.000007
   8         0           3      0.000006    0.000002
   9         2           1      0.000003    0.000001
  10         3           0      0.000002    0.000001    Roots Converged
 ---------------------------------------------------
 
 ---------------------------------------------------
         TDDFT/TDA Excitation Energies              
 ---------------------------------------------------

 Excited state   1: excitation energy (eV) =    4.9311
 Total energy for state  1:                  -363.43953670 au
    Multiplicity: Singlet
    Trans. Mom.: -0.3063 X  -0.4836 Y   0.0003 Z
    Strength   :     0.0395863450
    D(   30) --> V(    1) amplitude =  0.7596
    D(   31) --> V(    1) amplitude =  0.3321
    D(   31) --> V(    5) amplitude = -0.4892

 Excited state   2: excitation energy (eV) =    5.1156
 Total energy for state  2:                  -363.43275615 au
    Multiplicity: Singlet
    Trans. Mom.:  0.7974 X  -0.6278 Y   0.0004 Z
    Strength   :     0.1290845098
    D(   30) --> V(    1) amplitude = -0.2633
    D(   30) --> V(    5) amplitude =  0.3030
    D(   31) --> V(    1) amplitude =  0.8513
    D(   31) --> V(    5) amplitude =  0.2613

 Excited state   3: excitation energy (eV) =    5.2668
 Total energy for state  3:                  -363.42720123 au
    Multiplicity: Singlet
    Trans. Mom.:  0.0000 X  -0.0009 Y  -0.1573 Z
    Strength   :     0.0031938453
    D(   31) --> V(    2) amplitude =  0.9695
 
 ---------------------------------------------------
 Calculating Relaxed Density
 ---------------------------------------------------
 Iter    Rts Conv    Rts Left    Ttl Dev     Max Dev
 ---------------------------------------------------
   1         0           3      0.000952    0.000480
   2         0           3      0.000384    0.000203
   3         0           3      0.000115    0.000050
   4         0           3      0.000039    0.000021
   5         0           3      0.000013    0.000007
   6         0           3      0.000004    0.000002
   7         3           0      0.000000    0.000000    Roots Converged
 ---------------------------------------------------
  SETman timing summary (seconds)
  CPU time               198.66s
  System time              0.00s
  Wall time               49.95s
 
 --------------------------------------------------------------
 
                    Orbital Energies (a.u.)
 --------------------------------------------------------------
 
 Alpha MOs
 -- Occupied --
-14.4592 -10.3025 -10.3004 -10.2705 -10.2667 -10.2659 -10.2647 -10.2601
-10.2554  -1.0667  -0.9166  -0.8666  -0.8123  -0.7985  -0.7030  -0.6711
 -0.6565  -0.6113  -0.5597  -0.5405  -0.5044  -0.4988  -0.4946  -0.4787
 -0.4630  -0.4197  -0.4025  -0.3977  -0.3433  -0.2738  -0.2589
 -- Virtual --
  0.0185   0.0244   0.0430   0.0473   0.0592   0.0617   0.0630   0.0801
  0.0857   0.0899   0.0902   0.0938   0.1129   0.1195   0.1296   0.1310
  0.1409   0.1544   0.1661   0.1675   0.1812   0.1858   0.1937   0.1974
  0.2022   0.2166   0.2175   0.2188   0.2287   0.2345   0.2358   0.2445
  0.2497   0.2591   0.2624   0.2694   0.2703   0.2779   0.2912   0.2948
  0.3030   0.3080   0.3234   0.3343   0.3444   0.3533   0.3566   0.3726
  0.3900   0.4140   0.4251   0.4470   0.4836   0.5044   0.5661   0.6271
  0.6615   0.7294   0.7298   0.7550   0.7640   0.7767   0.7871   0.7909
  0.7928   0.8088   0.8116   0.8331   0.8480   0.8485   0.8716   0.9082
  0.9465   0.9549   0.9660   0.9947   1.0001   1.0114   1.0189   1.0425
  1.0533   1.0875   1.1065   1.1226   1.1516   1.1704   1.1754   1.2257
  1.2400   1.2654   1.2831   1.3066   1.3119   1.3754   1.3974   1.4179
  1.4266   1.4712   1.4848   1.5007   1.5381   1.5468   1.5717   1.5729
  1.5917   1.6476   1.7086   1.8631   1.8999   1.9506   1.9674   1.9775
  1.9987   2.0612   2.0651   2.0799   2.1180   2.1288   2.1999   2.2063
  2.2275   2.2678   2.3112   2.3164   2.3369   2.3382   2.3744   2.4403
  2.4872   2.5156   2.6079   2.6265   2.6962   2.7152   2.7212   2.7504
  2.7882   2.8651   2.9003   2.9127   3.0316   3.0395   3.1737   3.3018
  3.4681   4.2099   4.3051   4.3513   4.3875   4.4232   4.4612   4.5406
  4.5820   4.8369
 --------------------------------------------------------------
 
          Ground-State Mulliken Net Atomic Charges

     Atom                 Charge (a.u.)
  ----------------------------------------
      1 C                    -0.003005
      2 C                    -0.421261
      3 C                    -0.149545
      4 C                    -0.706361
      5 C                     1.071548
      6 C                    -0.701605
      7 N                    -0.531766
      8 C                     0.133689
      9 C                    -0.244304
     10 H                     0.417773
     11 H                     0.196735
     12 H                     0.201679
     13 H                     0.183498
     14 H                     0.185381
     15 H                     0.178095
     16 H                     0.189449
  ----------------------------------------
  Sum of atomic charges =     0.000000

 -----------------------------------------------------------------
                    Cartesian Multipole Moments
 -----------------------------------------------------------------
    Charge (ESU x 10^10)
                -0.0000
    Dipole Moment (Debye)
         X      -1.5945      Y       1.5282      Z      -0.0002
       Tot       2.2086
    Quadrupole Moments (Debye-Ang)
        XX     -45.4833     XY      -2.9488     YY     -44.6789
        XZ       0.0029     YZ       0.0012     ZZ     -59.3284
    Octopole Moments (Debye-Ang^2)
       XXX     -16.0343    XXY       8.4201    XYY      -7.7326
       YYY      10.1869    XXZ      -0.0041    XYZ       0.0013
       YYZ      -0.0019    XZZ      -2.3876    YZZ       2.0368
       ZZZ      -0.0072
    Hexadecapole Moments (Debye-Ang^3)
      XXXX    -827.1223   XXXY     -22.4072   XXYY    -201.5232
      XYYY     -21.9758   YYYY    -380.7570   XXXZ       0.0447
      XXYZ       0.0075   XYYZ       0.0200   YYYZ       0.0099
      XXZZ    -193.5092   XYZZ      -5.1162   YYZZ     -96.6124
      XZZZ       0.0346   YZZZ       0.0004   ZZZZ     -75.6441
 -----------------------------------------------------------------
 Calculating analytic gradient of the CIS energy
 CIS relaxed dipole moment
            1
    1   2.1726656
    2  -2.4708638
    3  -0.0005722
	Magnitude:	 3.290 au	 8.363 Debye
 CIS 3 State Energy is -363.4272012257
 Gradient of the state energy (including CIS Excitation Energy)
            1           2           3           4           5           6
    1   0.0046425   0.0109025   0.0146689  -0.0171352  -0.0156901  -0.0022646
    2  -0.0159204   0.0316937   0.0131010   0.0228342  -0.0174786  -0.0158235
    3  -0.0000328   0.0000587  -0.0001216  -0.0000768   0.0001315  -0.0000234
            7           8           9          10          11          12
    1   0.0373813  -0.0198274  -0.0268981   0.0115419   0.0003675   0.0015083
    2   0.0511503   0.0092275  -0.0552597  -0.0238992   0.0019776  -0.0037461
    3   0.0001127  -0.0000335  -0.0000579  -0.0000074  -0.0000041   0.0000002
           13          14          15          16
    1  -0.0002392   0.0020321  -0.0000006  -0.0009899
    2  -0.0001781   0.0019579   0.0000857   0.0002778
    3   0.0000040   0.0000408   0.0000025   0.0000072
 Gradient time:  CPU 38.91 s  wall 9.78 s
 Geometry Optimization Parameters
   NAtoms,    NIC,     NZ,  NCons,   NDum,   NFix, NCnnct, MaxDiis
       16     116       0       0       0       0       0       0

 Cartesian Hessian Update
 Hessian updated using BFGS update


** GEOMETRY OPTIMIZATION IN DELOCALIZED INTERNAL COORDINATES **
   Searching for a Minimum

   Optimization Cycle:   4

                       Coordinates (Angstroms)
     ATOM                X               Y               Z
      1  C         2.1637208400   -0.6842000766   -0.0001841883
      2  C         2.1594769882    0.7340727541   -0.0000311760
      3  C         0.9339067226    1.4473130933   -0.0003438420
      4  C        -0.2425045157    0.6845451765    0.0000245862
      5  C        -0.2614918522   -0.7662561142    0.0003877533
      6  C         0.9657527015   -1.4494923147    0.0000402263
      7  N        -1.5548731634    1.0671918263    0.0005562446
      8  C        -1.6327978154   -1.1746443036   -0.0000257709
      9  C        -2.4062419949   -0.0359194033    0.0000730002
     10  H        -1.8661439997    2.0253096968    0.0001661162
     11  H        -2.0102005709   -2.1868182085   -0.0003586560
     12  H        -3.4784038227    0.0823784330    0.0000111860
     13  H         3.0980939523    1.2748049368    0.0001116003
     14  H         0.9158291460    2.5317253975    0.0001460658
     15  H         3.1155794751   -1.2043811562   -0.0001614753
     16  H         1.0033928606   -2.5330772446    0.0001143109
   Point Group: c1    Number of degrees of freedom:    42


   Energy is   -363.427201226

 Hessian updated using BFGS update

 41 Hessian modes will be used to form the next step
  Hessian Eigenvalues:
     0.018594    0.019738    0.020011    0.020794    0.021683    0.022200
     0.022636    0.023004    0.023236    0.023608    0.023851    0.023984
     0.024127    0.159804    0.159976    0.160000    0.160000    0.160311
     0.162165    0.219466    0.221636    0.226845    0.246907    0.252501
     0.357039    0.357191    0.357639    0.357971    0.364002    0.364211
     0.370654    0.384231    0.419227    0.426848    0.444983    0.451912
     0.470912    0.474081    0.477797    0.516756    1.162227

 Minimum search - taking simple RFO step
 Searching for Lamda that Minimizes Along All modes
 Value Taken    Lamda =  -0.00686617
 Step Taken.  Stepsize is  0.081017

                             Maximum     Tolerance    Cnvgd?
         Gradient           0.041218      0.000300      NO
         Displacement       0.044856      0.001200      NO
         Energy change      0.008075      0.000001      NO


 New Cartesian Coordinates Obtained by Inverse Iteration

 Displacement from previous Coordinates is:  0.116159
 ----------------------------------------------------------------
             Standard Nuclear Orientation (Angstroms)
    I     Atom           X                Y                Z
 ----------------------------------------------------------------
    1      C       2.1683117956    -0.6880718284    -0.0001169474
    2      C       2.1486273620     0.7194989078     0.0000142792
    3      C       0.9234552851     1.4316970056    -0.0000192526
    4      C      -0.2452880347     0.6769450859     0.0001288822
    5      C      -0.2497354763    -0.7627720071     0.0002326152
    6      C       0.9733986819    -1.4455108176     0.0000115879
    7      N      -1.5651971827     1.0687601671     0.0002078815
    8      C      -1.6177224085    -1.1705220822    -0.0000533423
    9      C      -2.3951388591    -0.0207258288     0.0001844601
   10      H      -1.8879995582     2.0364496633    -0.0001055787
   11      H      -1.9968372631    -2.1837287475    -0.0002690808
   12      H      -3.4684900297     0.1016636913     0.0002589771
   13      H       3.0838382450     1.2675920095     0.0000412964
   14      H       0.9016990282     2.5153213545     0.0001980915
   15      H       3.1223631624    -1.2043484465    -0.0001693104
   16      H       1.0078102033    -2.5296956344    -0.0000185777
 ----------------------------------------------------------------
 Molecular Point Group                 C1    NOp =  1
 Largest Abelian Subgroup              C1    NOp =  1
 Nuclear Repulsion Energy =         398.92689135 hartrees
 There are       31 alpha and       31 beta electrons
 Applying Cartesian multipole field
    Component          Value
    ---------          -----
     (2,0,0)        1.00000E-11
     (0,2,0)        2.00000E-11
     (0,0,2)       -3.00000E-11
 Nucleus-field energy     =     0.0000000118 hartrees
 Requested basis set is 6-31+G(d)
 There are 59 shells and 185 basis functions
 A cutoff of  1.0D-12 yielded   1657 shell pairs
 There are     17105 function pairs
 Smallest overlap matrix eigenvalue = 1.31E-06
 Guess MOs from SCF MO coefficient file

 -----------------------------------------------------------------------
  General SCF calculation program by
  Eric Jon Sundstrom, Paul Horn, Yuezhi Mao, Dmitri Zuev, Alec White,
  David Stuck, Shaama M.S., Shane Yost, Joonho Lee, David Small,
  Daniel Levine, Susi Lehtola, Hugh Burton, Evgeny Epifanovsky,
  Bang C. Huynh
 -----------------------------------------------------------------------
 Exchange:     0.1900 Hartree-Fock + 0.3500 B88 + 0.4600 muB88 + LR-HF
 Correlation:  0.1900 VWN5 + 0.8100 LYP
 Using SG-1 standard quadrature grid
 using 4 threads for integral computing
 -------------------------------------------------------
 OpenMP Integral computing Module                
 Release: version 1.0, May 2013, Q-Chem Inc. Pittsburgh 
 -------------------------------------------------------
 using 4 threads for integral computing
 -------------------------------------------------------
 OpenMP Integral computing Module                
 Release: version 1.0, May 2013, Q-Chem Inc. Pittsburgh 
 -------------------------------------------------------
 A restricted SCF calculation will be
 performed using DIIS
 SCF converges when DIIS error is below 1.0e-08
 ---------------------------------------
  Cycle       Energy         DIIS error
 ---------------------------------------
    1    -363.6212282072      4.17e-04  
    2    -363.6220472689      8.14e-05  
    3    -363.6220732790      6.13e-05  
    4    -363.6220897811      1.78e-05  
    5    -363.6220914801      7.32e-06  
    6    -363.6220918684      3.35e-06  
    7    -363.6220919569      9.12e-07  
    8    -363.6220919656      3.43e-07  
    9    -363.6220919664      1.16e-07  
   10    -363.6220919665      3.09e-08  
   11    -363.6220919665      1.19e-08  
   12    -363.6220919665      4.82e-09  Convergence criterion met
 ---------------------------------------
 SCF time:   CPU 48.15s  wall 12.00s 
 SCF   energy in the final basis set =     -363.6220919665
 Total energy in the final basis set =     -363.6220919665
 
 Direct TDDFT/TDA calculation will be performed
 Exchange:     0.1900 Hartree-Fock + 0.3500 B88 + 0.4600 muB88 + LR-HF
 Correlation:  0.1900 VWN5 + 0.8100 LYP
 Using SG-1 standard quadrature grid
 Singlet excitation energies requested
 CIS energy converged when residual is below 10e- 6
 ---------------------------------------------------
 Iter    Rts Conv    Rts Left    Ttl Dev     Max Dev
 ---------------------------------------------------
   1         0           3      0.003689    0.001771
   2         0           3      0.001043    0.000555
   3         0           3      0.000609    0.000291
   4         0           3      0.000249    0.000115
   5         0           3      0.000086    0.000043
   6         0           3      0.000036    0.000017
   7         0           3      0.000015    0.000008
   8         1           2      0.000005    0.000003
   9         3           0      0.000002    0.000001    Roots Converged
 ---------------------------------------------------
 
 ---------------------------------------------------
         TDDFT/TDA Excitation Energies              
 ---------------------------------------------------

 Excited state   1: excitation energy (eV) =    5.0129
 Total energy for state  1:                  -363.43787252 au
    Multiplicity: Singlet
    Trans. Mom.: -0.1056 X  -0.4686 Y   0.0002 Z
    Strength   :     0.0283352800
    D(   30) --> V(    1) amplitude =  0.7455
    D(   31) --> V(    1) amplitude =  0.3221
    D(   31) --> V(    5) amplitude = -0.5185

 Excited state   2: excitation energy (eV) =    5.0586
 Total energy for state  2:                  -363.43619154 au
    Multiplicity: Singlet
    Trans. Mom.:  0.8602 X  -0.6340 Y   0.0001 Z
    Strength   :     0.1415140890
    D(   30) --> V(    1) amplitude = -0.2356
    D(   30) --> V(    5) amplitude =  0.2813
    D(   31) --> V(    1) amplitude =  0.8644
    D(   31) --> V(    5) amplitude =  0.2681

 Excited state   3: excitation energy (eV) =    5.1405
 Total energy for state  3:                  -363.43318095 au
    Multiplicity: Singlet
    Trans. Mom.:  0.0002 X  -0.0005 Y  -0.1636 Z
    Strength   :     0.0033707615
    D(   31) --> V(    2) amplitude =  0.9735
 
 ---------------------------------------------------
 Calculating Relaxed Density
 ---------------------------------------------------
 Iter    Rts Conv    Rts Left    Ttl Dev     Max Dev
 ---------------------------------------------------
   1         0           3      0.000997    0.000506
   2         0           3      0.000394    0.000204
   3         0           3      0.000113    0.000045
   4         0           3      0.000037    0.000018
   5         0           3      0.000011    0.000005
   6         1           2      0.000002    0.000001
   7         3           0      0.000000    0.000000    Roots Converged
 ---------------------------------------------------
  SETman timing summary (seconds)
  CPU time               187.13s
  System time              0.00s
  Wall time               47.05s
 
 --------------------------------------------------------------
 
                    Orbital Energies (a.u.)
 --------------------------------------------------------------
 
 Alpha MOs
 -- Occupied --
-14.4610 -10.3018 -10.2983 -10.2691 -10.2645 -10.2641 -10.2631 -10.2591
-10.2536  -1.0696  -0.9206  -0.8646  -0.8166  -0.7962  -0.7041  -0.6709
 -0.6569  -0.6127  -0.5572  -0.5418  -0.5058  -0.5001  -0.4967  -0.4771
 -0.4616  -0.4202  -0.4022  -0.4007  -0.3417  -0.2777  -0.2555
 -- Virtual --
  0.0197   0.0233   0.0429   0.0477   0.0604   0.0618   0.0634   0.0803
  0.0857   0.0901   0.0906   0.0934   0.1131   0.1193   0.1300   0.1312
  0.1406   0.1546   0.1663   0.1668   0.1809   0.1859   0.1933   0.1977
  0.2028   0.2160   0.2181   0.2188   0.2286   0.2355   0.2374   0.2464
  0.2501   0.2592   0.2641   0.2698   0.2699   0.2784   0.2903   0.2954
  0.3061   0.3082   0.3226   0.3363   0.3453   0.3547   0.3592   0.3748
  0.3937   0.4136   0.4253   0.4498   0.4859   0.5045   0.5690   0.6332
  0.6693   0.7293   0.7299   0.7546   0.7693   0.7771   0.7885   0.7920
  0.7922   0.8099   0.8156   0.8335   0.8483   0.8504   0.8729   0.9096
  0.9459   0.9542   0.9660   0.9958   1.0004   1.0118   1.0191   1.0430
  1.0560   1.0873   1.1057   1.1129   1.1515   1.1721   1.1763   1.2298
  1.2409   1.2671   1.2831   1.3083   1.3114   1.3805   1.3955   1.4183
  1.4276   1.4754   1.4869   1.5059   1.5388   1.5460   1.5715   1.5743
  1.5995   1.6489   1.7133   1.8583   1.9024   1.9544   1.9713   1.9816
  2.0021   2.0631   2.0650   2.0817   2.1250   2.1415   2.2094   2.2191
  2.2358   2.2619   2.3186   2.3261   2.3368   2.3476   2.3813   2.4465
  2.4897   2.5206   2.6102   2.6325   2.7025   2.7227   2.7285   2.7552
  2.7943   2.8719   2.9077   2.9170   3.0336   3.0432   3.1754   3.3099
  3.4880   4.2148   4.3116   4.3514   4.3859   4.4248   4.4615   4.5429
  4.5840   4.8451
 --------------------------------------------------------------
 
          Ground-State Mulliken Net Atomic Charges

     Atom                 Charge (a.u.)
  ----------------------------------------
      1 C                    -0.000921
      2 C                    -0.430372
      3 C                    -0.153134
      4 C                    -0.736219
      5 C                     1.110215
      6 C                    -0.672564
      7 N                    -0.519197
      8 C                     0.099396
      9 C                    -0.246783
     10 H                     0.419003
     11 H                     0.195151
     12 H                     0.200390
     13 H                     0.181818
     14 H                     0.184515
     15 H                     0.179514
     16 H                     0.189189
  ----------------------------------------
  Sum of atomic charges =     0.000000

 -----------------------------------------------------------------
                    Cartesian Multipole Moments
 -----------------------------------------------------------------
    Charge (ESU x 10^10)
                -0.0000
    Dipole Moment (Debye)
         X      -1.5744      Y       1.6257      Z      -0.0003
       Tot       2.2631
    Quadrupole Moments (Debye-Ang)
        XX     -45.5147     XY      -3.3879     YY     -44.7081
        XZ       0.0009     YZ       0.0004     ZZ     -59.2429
    Octopole Moments (Debye-Ang^2)
       XXX     -15.8492    XXY       8.9412    XYY      -7.9819
       YYY      10.8660    XXZ      -0.0036    XYZ       0.0015
       YYZ      -0.0055    XZZ      -2.2773    YZZ       2.1986
       ZZZ      -0.0099
    Hexadecapole Moments (Debye-Ang^3)
      XXXX    -825.1149   XXXY     -22.9937   XXYY    -200.1249
      XYYY     -20.5370   YYYY    -377.9604   XXXZ       0.0133
      XXYZ       0.0007   XYYZ       0.0137   YYYZ      -0.0014
      XXZZ    -192.5877   XYZZ      -4.2219   YYZZ     -95.9822
      XZZZ       0.0197   YZZZ      -0.0063   ZZZZ     -75.4267
 -----------------------------------------------------------------
 Calculating analytic gradient of the CIS energy
 CIS relaxed dipole moment
            1
    1   2.2797834
    2  -2.4401265
    3  -0.0005607
	Magnitude:	 3.339 au	 8.488 Debye
 CIS 3 State Energy is -363.4331809539
 Gradient of the state energy (including CIS Excitation Energy)
            1           2           3           4           5           6
    1   0.0071716   0.0082311   0.0105001  -0.0151556  -0.0022346  -0.0089941
    2  -0.0061897   0.0186771   0.0089945   0.0139522  -0.0134681  -0.0096783
    3  -0.0000204   0.0000231  -0.0000459  -0.0000135   0.0000636  -0.0000060
            7           8           9          10          11          12
    1   0.0296083  -0.0190882  -0.0206618   0.0082082   0.0003750   0.0014821
    2   0.0407750   0.0097329  -0.0467929  -0.0157684   0.0008016  -0.0022196
    3   0.0000159  -0.0000432   0.0000113  -0.0000108  -0.0000022   0.0000046
           13          14          15          16
    1   0.0000296   0.0009147   0.0002240  -0.0006104
    2  -0.0002849   0.0013538   0.0000960   0.0000187
    3   0.0000010   0.0000175   0.0000016   0.0000034
 Gradient time:  CPU 39.54 s  wall 9.94 s
 Geometry Optimization Parameters
   NAtoms,    NIC,     NZ,  NCons,   NDum,   NFix, NCnnct, MaxDiis
       16     116       0       0       0       0       0       0

 Cartesian Hessian Update
 Hessian updated using BFGS update


** GEOMETRY OPTIMIZATION IN DELOCALIZED INTERNAL COORDINATES **
   Searching for a Minimum

   Optimization Cycle:   5

                       Coordinates (Angstroms)
     ATOM                X               Y               Z
      1  C         2.1683117956   -0.6880718284   -0.0001169474
      2  C         2.1486273620    0.7194989078    0.0000142792
[...]
    1   0.0000081   0.0008710   0.0001948  -0.0004221
    2  -0.0001090   0.0012662  -0.0000663  -0.0000498
    3  -0.0000000  -0.0000003  -0.0000001  -0.0000002
 Gradient time:  CPU 38.93 s  wall 9.79 s
 Geometry Optimization Parameters
   NAtoms,    NIC,     NZ,  NCons,   NDum,   NFix, NCnnct, MaxDiis
       16     116       0       0       0       0       0       0

 Cartesian Hessian Update
 Hessian updated using BFGS update


** GEOMETRY OPTIMIZATION IN DELOCALIZED INTERNAL COORDINATES **
   Searching for a Minimum

   Optimization Cycle:  49

                       Coordinates (Angstroms)
     ATOM                X               Y               Z
      1  C         2.1691979337   -0.6851627049   -0.0000436747
      2  C         2.1492179034    0.7189694895    0.0000150570
      3  C         0.9231259804    1.4298747526    0.0000749959
      4  C        -0.2459281232    0.6745060400    0.0000687768
      5  C        -0.2485064690   -0.7639933731    0.0000046618
      6  C         0.9718475386   -1.4443875078   -0.0000471894
      7  N        -1.5628685919    1.0658112222    0.0001167648
      8  C        -1.6206605259   -1.1701093256    0.0000131217
      9  C        -2.3934329728   -0.0216688088    0.0000927072
     10  H        -1.8863195341    2.0356096705    0.0001761504
     11  H        -2.0008031521   -2.1829922607   -0.0000232415
     12  H        -3.4664690404    0.1055888226    0.0001245671
     13  H         3.0830414430    1.2696390752    0.0000155180
     14  H         0.8998618813    2.5133844962    0.0001215066
     15  H         3.1219963393   -1.2039283129   -0.0000886218
     16  H         1.0097943409   -2.5285887822   -0.0000951185
   Point Group: c1    Number of degrees of freedom:    42


   Energy is   -363.433175133

 Hessian updated using BFGS update

 42 Hessian modes will be used to form the next step
  Hessian Eigenvalues:
     0.018594    0.019739    0.020011    0.020794    0.021684    0.022200
     0.022636    0.023004    0.023236    0.023609    0.023851    0.023984
     0.024128    0.064003    0.159966    0.159997    0.160064    0.160333
     0.160615    0.161698    0.169080    0.222277    0.231673    0.232656
     0.251259    0.257840    0.357144    0.357206    0.357678    0.358030
     0.364242    0.364486    0.373702    0.392938    0.422332    0.431498
     0.450309    0.470634    0.474738    0.489158    0.707636    3.908927

 Minimum search - taking simple RFO step
 Searching for Lamda that Minimizes Along All modes
 Value Taken    Lamda =  -0.03257964
 Calculated Step too Large.  Step scaled by  0.529640
 Step Taken.  Stepsize is  0.300000

                             Maximum     Tolerance    Cnvgd?
         Gradient           0.031057      0.000300      NO
         Displacement       0.155746      0.001200      NO
         Energy change     -0.006500      0.000001      NO


 New Cartesian Coordinates Obtained by Inverse Iteration

 Displacement from previous Coordinates is:  0.376982
 ----------------------------------------------------------------
             Standard Nuclear Orientation (Angstroms)
    I     Atom           X                Y                Z
 ----------------------------------------------------------------
    1      C       2.1781324356    -0.7146005527    -0.0000537429
    2      C       2.1174588972     0.6777843833     0.0000132691
    3      C       0.8965398475     1.3935009575     0.0000789768
    4      C      -0.2418761346     0.6690400123     0.0000815006
    5      C      -0.2217435757    -0.7468819167     0.0000016763
    6      C       1.0048088839    -1.4393698309    -0.0000761787
    7      N      -1.6179887654     1.0799732777     0.0001268207
    8      C      -1.5534547050    -1.1615039313     0.0000531580
    9      C      -2.3700808977     0.0415718301     0.0000744157
   10      H      -1.9821859371     2.0653990998     0.0001668873
   11      H      -1.9427680618    -2.1728113428     0.0000285606
   12      H      -3.4517211958     0.1423573580     0.0000812551
   13      H       3.0416114769     1.2473366113     0.0000221799
   14      H       0.8872314749     2.4755823642     0.0001394986
   15      H       3.1367346121    -1.2201071997    -0.0000938168
   16      H       1.0223965963    -2.5247186276    -0.0001184790
 ----------------------------------------------------------------
 Molecular Point Group                 C1    NOp =  1
 Largest Abelian Subgroup              C1    NOp =  1
 Nuclear Repulsion Energy =         401.41036910 hartrees
 There are       31 alpha and       31 beta electrons
 Applying Cartesian multipole field
    Component          Value
    ---------          -----
     (2,0,0)        1.00000E-11
     (0,2,0)        2.00000E-11
     (0,0,2)       -3.00000E-11
 Nucleus-field energy     =     0.0000000117 hartrees
 Requested basis set is 6-31+G(d)
 There are 59 shells and 185 basis functions
 A cutoff of  1.0D-12 yielded   1657 shell pairs
 There are     17105 function pairs
 Smallest overlap matrix eigenvalue = 1.10E-06
 Guess MOs from SCF MO coefficient file

 -----------------------------------------------------------------------
  General SCF calculation program by
  Eric Jon Sundstrom, Paul Horn, Yuezhi Mao, Dmitri Zuev, Alec White,
  David Stuck, Shaama M.S., Shane Yost, Joonho Lee, David Small,
  Daniel Levine, Susi Lehtola, Hugh Burton, Evgeny Epifanovsky,
  Bang C. Huynh
 -----------------------------------------------------------------------
 Exchange:     0.1900 Hartree-Fock + 0.3500 B88 + 0.4600 muB88 + LR-HF
 Correlation:  0.1900 VWN5 + 0.8100 LYP
 Using SG-1 standard quadrature grid
 using 4 threads for integral computing
 -------------------------------------------------------
 OpenMP Integral computing Module                
 Release: version 1.0, May 2013, Q-Chem Inc. Pittsburgh 
 -------------------------------------------------------
 using 4 threads for integral computing
 -------------------------------------------------------
 OpenMP Integral computing Module                
 Release: version 1.0, May 2013, Q-Chem Inc. Pittsburgh 
 -------------------------------------------------------
 A restricted SCF calculation will be
 performed using DIIS
 SCF converges when DIIS error is below 1.0e-08
 ---------------------------------------
  Cycle       Energy         DIIS error
 ---------------------------------------
    1    -363.5899993196      1.46e-03  
    2    -363.6026320148      2.91e-04  
    3    -363.6031920920      1.70e-04  
    4    -363.6033367412      7.56e-05  
    5    -363.6033710763      2.55e-05  
    6    -363.6033775567      1.67e-05  
    7    -363.6033794849      3.58e-06  
    8    -363.6033795987      1.90e-06  
    9    -363.6033796185      4.42e-07  
   10    -363.6033796196      1.68e-07  
   11    -363.6033796198      4.89e-08  
   12    -363.6033796198      2.25e-08  
   13    -363.6033796198      6.09e-09  Convergence criterion met
 ---------------------------------------
 SCF time:   CPU 52.67s  wall 14.00s 
 SCF   energy in the final basis set =     -363.6033796198
 Total energy in the final basis set =     -363.6033796198
 
 Direct TDDFT/TDA calculation will be performed
 Exchange:     0.1900 Hartree-Fock + 0.3500 B88 + 0.4600 muB88 + LR-HF
 Correlation:  0.1900 VWN5 + 0.8100 LYP
 Using SG-1 standard quadrature grid
 Singlet excitation energies requested
 CIS energy converged when residual is below 10e- 6
 ---------------------------------------------------
 Iter    Rts Conv    Rts Left    Ttl Dev     Max Dev
 ---------------------------------------------------
   1         0           3      0.002298    0.001743
   2         0           3      0.000517    0.000371
   3         0           3      0.000264    0.000172
   4         0           3      0.000150    0.000085
   5         0           3      0.000085    0.000051
   6         0           3      0.000089    0.000058
   7         1           2      0.000494    0.000457
   8         1           2      0.000239    0.000220
   9         1           2      0.000120    0.000111
  10         1           2      0.000054    0.000050
  11         1           2      0.000020    0.000018
  12         2           1      0.000008    0.000007
  13         2           1      0.000003    0.000003
  14         2           1      0.000002    0.000001
  15         3           0      0.000001    0.000001    Roots Converged
 ---------------------------------------------------
 
 ---------------------------------------------------
         TDDFT/TDA Excitation Energies              
 ---------------------------------------------------

 Excited state   1: excitation energy (eV) =    4.5488
 Total energy for state  1:                  -363.43621416 au
    Multiplicity: Singlet
    Trans. Mom.:  0.0001 X  -0.0001 Y   0.1475 Z
    Strength   :     0.0024229821
    D(   31) --> V(    1) amplitude =  0.9805

 Excited state   2: excitation energy (eV) =    4.7387
 Total energy for state  2:                  -363.42923381 au
    Multiplicity: Singlet
    Trans. Mom.:  1.1944 X  -0.6867 Y  -0.0001 Z
    Strength   :     0.2203542600
    D(   31) --> V(    2) amplitude =  0.9231
    D(   31) --> V(    6) amplitude = -0.2169

 Excited state   3: excitation energy (eV) =    5.1452
 Total energy for state  3:                  -363.41429575 au
    Multiplicity: Singlet
    Trans. Mom.: -0.6542 X   0.0632 Y   0.0000 Z
    Strength   :     0.0544577779
    D(   30) --> V(    2) amplitude =  0.5938
    D(   31) --> V(    6) amplitude = -0.7411
 
 ---------------------------------------------------
 Calculating Relaxed Density
 ---------------------------------------------------
 Iter    Rts Conv    Rts Left    Ttl Dev     Max Dev
 ---------------------------------------------------
   1         0           3      0.001135    0.000550
   2         0           3      0.000421    0.000196
   3         0           3      0.000130    0.000052
   4         0           3      0.000033    0.000013
   5         0           3      0.000011    0.000005
   6         1           2      0.000002    0.000001
   7         3           0      0.000000    0.000000    Roots Converged
 ---------------------------------------------------
  SETman timing summary (seconds)
  CPU time               220.20s
  System time              0.00s
  Wall time               55.92s
 
 --------------------------------------------------------------
 
                    Orbital Energies (a.u.)
 --------------------------------------------------------------
 
 Alpha MOs
 -- Occupied --
-14.4705 -10.3033 -10.2943 -10.2663 -10.2595 -10.2576 -10.2574 -10.2562
-10.2471  -1.0815  -0.9334  -0.8594  -0.8318  -0.7839  -0.7050  -0.6745
 -0.6568  -0.6180  -0.5507  -0.5453  -0.5165  -0.5035  -0.5035  -0.4671
 -0.4515  -0.4214  -0.4114  -0.4014  -0.3374  -0.2942  -0.2382
 -- Virtual --
  0.0188   0.0231   0.0424   0.0490   0.0622   0.0626   0.0643   0.0810
  0.0854   0.0902   0.0914   0.0930   0.1141   0.1184   0.1302   0.1324
  0.1390   0.1547   0.1640   0.1666   0.1790   0.1868   0.1920   0.1988
  0.2046   0.2097   0.2197   0.2208   0.2264   0.2340   0.2410   0.2508
  0.2520   0.2562   0.2675   0.2697   0.2705   0.2789   0.2853   0.2959
  0.3034   0.3090   0.3264   0.3394   0.3442   0.3572   0.3656   0.3837
  0.4011   0.4165   0.4296   0.4569   0.4917   0.5002   0.5798   0.6470
  0.6898   0.7285   0.7313   0.7510   0.7763   0.7787   0.7896   0.7898
  0.8063   0.8139   0.8335   0.8343   0.8503   0.8564   0.8784   0.9125
  0.9412   0.9528   0.9663   0.9966   1.0054   1.0141   1.0150   1.0465
  1.0655   1.0775   1.1011   1.1033   1.1534   1.1715   1.1843   1.2398
  1.2439   1.2703   1.2803   1.3122   1.3167   1.3897   1.3962   1.4246
  1.4298   1.4859   1.4991   1.5185   1.5412   1.5438   1.5731   1.5836
  1.6007   1.6459   1.7286   1.8301   1.9091   1.9309   1.9727   1.9930
  2.0205   2.0643   2.0734   2.0834   2.1280   2.1800   2.2249   2.2307
  2.2474   2.2788   2.3143   2.3482   2.3720   2.3885   2.4186   2.4617
  2.5074   2.5390   2.5913   2.6446   2.7192   2.7263   2.7616   2.7735
  2.8182   2.8876   2.9212   2.9357   3.0245   3.0638   3.1768   3.3256
  3.5391   4.2282   4.3223   4.3557   4.3761   4.4280   4.4693   4.5454
  4.5863   4.8617
 --------------------------------------------------------------
 
          Ground-State Mulliken Net Atomic Charges

     Atom                 Charge (a.u.)
  ----------------------------------------
      1 C                     0.004128
      2 C                    -0.450604
      3 C                    -0.208494
      4 C                    -0.781035
      5 C                     1.188204
      6 C                    -0.562388
      7 N                    -0.463022
      8 C                    -0.020701
      9 C                    -0.248061
     10 H                     0.422487
     11 H                     0.189761
     12 H                     0.197964
     13 H                     0.175720
     14 H                     0.184522
     15 H                     0.183779
     16 H                     0.187740
  ----------------------------------------
  Sum of atomic charges =     0.000000

 -----------------------------------------------------------------
                    Cartesian Multipole Moments
 -----------------------------------------------------------------
    Charge (ESU x 10^10)
                 0.0000
    Dipole Moment (Debye)
         X      -1.6416      Y       2.0106      Z       0.0001
       Tot       2.5956
    Quadrupole Moments (Debye-Ang)
        XX     -45.3602     XY      -4.8551     YY     -44.7763
        XZ      -0.0004     YZ       0.0008     ZZ     -59.0962
    Octopole Moments (Debye-Ang^2)
       XXX     -17.1236    XXY      10.5980    XYY      -8.7245
       YYY      13.0017    XXZ      -0.0012    XYZ      -0.0004
       YYZ      -0.0008    XZZ      -2.0633    YZZ       2.6826
       ZZZ      -0.0057
    Hexadecapole Moments (Debye-Ang^3)
      XXXX    -818.8640   XXXY     -24.5430   XXYY    -196.0684
      XYYY     -14.9484   YYYY    -372.9083   XXXZ       0.0072
      XXYZ       0.0001   XYYZ       0.0018   YYYZ      -0.0037
      XXZZ    -190.7928   XYZZ      -1.4083   YYZZ     -94.9921
      XZZZ       0.0125   YZZZ      -0.0092   ZZZZ     -75.3412
 -----------------------------------------------------------------
 Calculating analytic gradient of the CIS energy
 CIS relaxed dipole moment
            1
    1  -1.0417081
    2   0.5724652
    3   0.0000442
	Magnitude:	 1.189 au	 3.021 Debye
 CIS 3 State Energy is -363.4142957543
 Gradient of the state energy (including CIS Excitation Energy)
            1           2           3           4           5           6
    1  -0.0215230  -0.0147529  -0.0247561   0.0338714  -0.0055081   0.0295884
    2   0.0078809  -0.0354185  -0.0180226  -0.0264701   0.0293781   0.0166572
    3   0.0000015  -0.0000012  -0.0000008  -0.0000012  -0.0000015  -0.0000019
            7           8           9          10          11          12
    1  -0.0608903   0.0447902   0.0399919  -0.0166976  -0.0000270  -0.0029810
    2  -0.0867577  -0.0196105   0.1028626   0.0293638  -0.0018836   0.0047392
    3  -0.0000008   0.0000047  -0.0000011   0.0000015   0.0000002  -0.0000002
           13          14          15          16
    1   0.0001195  -0.0021653  -0.0004841   0.0014241
    2  -0.0001529  -0.0027178  -0.0000935   0.0002455
    3  -0.0000002   0.0000001   0.0000002   0.0000007
 Gradient time:  CPU 39.10 s  wall 9.83 s
 Geometry Optimization Parameters
   NAtoms,    NIC,     NZ,  NCons,   NDum,   NFix, NCnnct, MaxDiis
       16     116       0       0       0       0       0       0

 Cartesian Hessian Update
 Hessian updated using BFGS update


** GEOMETRY OPTIMIZATION IN DELOCALIZED INTERNAL COORDINATES **
   Searching for a Minimum

   Optimization Cycle:  50

                       Coordinates (Angstroms)
     ATOM                X               Y               Z
      1  C         2.1781324356   -0.7146005527   -0.0000537429
      2  C         2.1174588972    0.6777843833    0.0000132691
      3  C         0.8965398475    1.3935009575    0.0000789768
      4  C        -0.2418761346    0.6690400123    0.0000815006
      5  C        -0.2217435757   -0.7468819167    0.0000016763
      6  C         1.0048088839   -1.4393698309   -0.0000761787
      7  N        -1.6179887654    1.0799732777    0.0001268207
      8  C        -1.5534547050   -1.1615039313    0.0000531580
      9  C        -2.3700808977    0.0415718301    0.0000744157
     10  H        -1.9821859371    2.0653990998    0.0001668873
     11  H        -1.9427680618   -2.1728113428    0.0000285606
     12  H        -3.4517211958    0.1423573580    0.0000812551
     13  H         3.0416114769    1.2473366113    0.0000221799
     14  H         0.8872314749    2.4755823642    0.0001394986
     15  H         3.1367346121   -1.2201071997   -0.0000938168
     16  H         1.0223965963   -2.5247186276   -0.0001184790
   Point Group: c1    Number of degrees of freedom:    42


   Energy is   -363.414295754

 Hessian updated using BFGS update

 42 Hessian modes will be used to form the next step
  Hessian Eigenvalues:
     0.018594    0.019739    0.020011    0.020794    0.021684    0.022200
     0.022636    0.023004    0.023236    0.023609    0.023851    0.023984
     0.024128    0.159963    0.159997    0.160060    0.160248    0.160576
     0.161168    0.163183    0.221679    0.222430    0.232511    0.247737
     0.257825    0.357059    0.357203    0.357677    0.357957    0.364085
     0.364450    0.370498    0.388451    0.421045    0.430473    0.442410
     0.455090    0.472714    0.479944    0.489458    0.989806    3.912022

 Minimum search - taking simple RFO step
 Searching for Lamda that Minimizes Along All modes
 Value Taken    Lamda =  -0.02446943
 Step Taken.  Stepsize is  0.193524

                             Maximum     Tolerance    Cnvgd?
         Gradient           0.068477      0.000300      NO
         Displacement       0.101989      0.001200      NO
         Energy change      0.018879      0.000001      NO


 New Cartesian Coordinates Obtained by Inverse Iteration

 Displacement from previous Coordinates is:  0.245238
 ----------------------------------------------------------------
             Standard Nuclear Orientation (Angstroms)
    I     Atom           X                Y                Z
 ----------------------------------------------------------------
    1      C       2.1739450520    -0.6966128034    -0.0000506978
    2      C       2.1386929520     0.7042971674     0.0000158256
    3      C       0.9149865388     1.4176910463     0.0000784591
    4      C      -0.2442930785     0.6741027404     0.0000761398
    5      C      -0.2392163867    -0.7570939963     0.0000039611
    6      C       0.9830558089    -1.4418788806    -0.0000651761
    7      N      -1.5833651855     1.0728100670     0.0001209032
    8      C      -1.5966010704    -1.1682005383     0.0000374304
    9      C      -2.3851471297    -0.0002711991     0.0000842924
   10      H      -1.9227561791     2.0472613202     0.0001607998
   11      H      -1.9818435498    -2.1798072281     0.0000079299
   12      H      -3.4617570230     0.1140750623     0.0001029946
   13      H       3.0686202616     1.2626606888     0.0000225327
   14      H       0.8990360932     2.5008258038     0.0001350339
   15      H       3.1288132965    -1.2106333499    -0.0000936076
   16      H       1.0109245510    -2.5266734078    -0.0001108398
 ----------------------------------------------------------------
 Molecular Point Group                 C1    NOp =  1
 Largest Abelian Subgroup              C1    NOp =  1
 Nuclear Repulsion Energy =         399.73778000 hartrees
 There are       31 alpha and       31 beta electrons


 *******************************************
 **  MAXIMUM OPTIMIZATION CYCLES REACHED  **
 *******************************************

 Q-Chem fatal error occurred in module 0, line  455:

 Maximum optimization cycles reached

