
Running Job 1 of 1 QfuncsPBE0-V-2nd.in
qchem QfuncsPBE0-V-2nd.in_127162.0 /scratch/scaparas/job_3660070/qchem127162/ 0
/cm/shared/apps/spack/cpu/opt/spack/linux-centos8-zen2/gcc-10.2.0/qchem-5.3-5qddma6gy34jvefiv7mbcb7qm253n45r/exe/qcprog.exe_s QfuncsPBE0-V-2nd.in_127162.0 /scratch/scaparas/job_3660070/qchem127162/
                  Welcome to Q-Chem
     A Quantum Leap Into The Future Of Chemistry


 Q-Chem 5.3, Q-Chem, Inc., Pleasanton, CA (2020)

 License issued to: University of California, San Diego (site)

 Yihan Shao,  Zhengting Gan,  E. Epifanovsky,  A. T. B. Gilbert,  M. Wormit,  
 J. Kussmann,  A. W. Lange,  A. Behn,  Jia Deng,  Xintian Feng,  D. Ghosh,  
 M. Goldey,  P. R. Horn,  L. D. Jacobson,  I. Kaliman,  T. Kus,  A. Landau,  
 Jie Liu,  E. I. Proynov,  R. M. Richard,  R. P. Steele,  E. J. Sundstrom,  
 H. L. Woodcock III,  P. M. Zimmerman,  D. Zuev,  B. Alam,  B. Albrecht,  
 A. Aldossary,  E. Alguire,  S. A. Baeppler,  D. Barton,  Z. Benda,  
 Y. A. Bernard,  E. J. Berquist,  K. B. Bravaya,  H. Burton,  K. Carter-Fenk,  
 D. Casanova,  Chun-Min Chang,  Yunqing Chen,  A. Chien,  K. D. Closser,  
 M. P. Coons,  S. Coriani,  S. Dasgupta,  A. L. Dempwolff,  M. Diedenhofen,  
 Hainam Do,  R. G. Edgar,  Po-Tung Fang,  S. Faraji,  S. Fatehi,  
 Qingguo Feng,  J. Fosso-Tande,  J. Gayvert,  Qinghui Ge,  A. Ghysels,  
 G. Gidofalvi,  J. Gomes,  J. Gonthier,  S. Gulania,  A. Gunina,  D. Hait,  
 M. W. D. Hanson-Heine,  S. Hammes-Schiffer,  P. H. P. Harbach,  
 A. W. Hauser,  M. F. Herbst,  J. E. Herr,  E. G. Hohenstein,  Z. C. Holden,  
 S. Houck,  Kerwin Hui,  B. C. Huynh,  M. Ivanov,  T.-C. Jagau,  Hyunjun Ji,  
 B. Kaduk,  K. Khistyaev,  Jaehoon Kim,  P. Klunzinger,  K. Koh,  
 D. Kosenkov,  L. Koulias,  T. Kowalczyk,  C. M. Krauter,  A. Kunitsa,  
 Ka Un Lao,  A. Laurent,  K. V. Lawler,  Joonho Lee,  D. Lefrancois,  
 S. Lehtola,  D. S. Levine,  Yi-Pei Li,  You-Sheng Lin,  Fenglai Liu,  
 Kuan-Yu Liu,  E. Livshits,  M. Loipersberger,  A. Luenser,  P. Manohar,  
 E. Mansoor,  S. F. Manzer,  Shan-Ping Mao,  Yuezhi Mao,  N. Mardirossian,  
 A. V. Marenich,  T. Markovich,  L. A. Martinez-Martinez,  S. A. Maurer,  
 N. J. Mayhall,  S. C. McKenzie,  J.-M. Mewes,  P. Morgante,  A. F. Morrison,  
 J. W. Mullinax,  K. Nanda,  T. S. Nguyen-Beck,  R. Olivares-Amaya,  
 K. J. Oosterbaan,  J. A. Parkhill,  S. K. Paul,  F. Pavosevic,  Zheng Pei,  
 T. M. Perrine,  F. Plasser,  P. Pokhilko,  S. Prager,  A. Prociuk,  
 E. Ramos,  B. Rana,  D. R. Rehn,  F. Rob,  E. Rossomme,  M. Scheurer,  
 M. Schneider,  N. Sergueev,  S. M. Sharada,  S. Sharma,  W. Skomorowski,  
 D. W. Small,  T. Stauch,  C. J. Stein,  T. Stein,  Yu-Chuan Su,  
 S. P. Veccham,  Zhen Tao,  A. J. W. Thom,  A. Tkatchenko,  T. Tsuchimochi,  
 N. M. Tubman,  L. Vogt,  M. L. Vidal,  O. Vydrov,  M. A. Watson,  J. Wenzel,  
 M. de Wergifosse,  T. A. Wesolowski,  A. White,  J. Witte,  A. Yamada,  
 Jun Yang,  K. Yao,  S. Yeganeh,  S. R. Yost,  Zhi-Qiang You,  A. Zech,  
 Igor Ying Zhang,  Xing Zhang,  Yan Zhao,  Ying Zhu,  B. R. Brooks,  
 G. K. L. Chan,  C. J. Cramer,  M. S. Gordon,  W. J. Hehre,  A. Klamt,  
 M. W. Schmidt,  C. D. Sherrill,  D. G. Truhlar,  A. Aspuru-Guzik,  R. Baer,  
 A. T. Bell,  N. A. Besley,  Jeng-Da Chai,  A. E. DePrince, III,  
 R. A. DiStasio Jr.,  A. Dreuw,  B. D. Dunietz,  T. R. Furlani,  
 Chao-Ping Hsu,  Yousung Jung,  Jing Kong,  D. S. Lambrecht,  WanZhen Liang,  
 C. Ochsenfeld,  V. A. Rassolov,  L. V. Slipchenko,  J. E. Subotnik,  
 T. Van Voorhis,  J. M. Herbert,  A. I. Krylov,  P. M. W. Gill,  M. Head-Gordon

 Contributors to earlier versions of Q-Chem not listed above: 
 R. D. Adamson,  B. Austin,  J. Baker,  G. J. O. Beran,  K. Brandhorst,  
 S. T. Brown,  E. F. C. Byrd,  A. K. Chakraborty,  C.-L. Cheng,  
 Siu Hung Chien,  D. M. Chipman,  D. L. Crittenden,  H. Dachsel,  
 R. J. Doerksen,  A. D. Dutoi,  L. Fusti-Molnar,  W. A. Goddard III,  
 A. Golubeva-Zadorozhnaya,  S. R. Gwaltney,  G. Hawkins,  A. Heyden,  
 S. Hirata,  G. Kedziora,  F. J. Keil,  C. Kelley,  Jihan Kim,  R. A. King,  
 R. Z. Khaliullin,  P. P. Korambath,  W. Kurlancheek,  A. M. Lee,  M. S. Lee,  
 S. V. Levchenko,  Ching Yeh Lin,  D. Liotard,  R. C. Lochan,  I. Lotan,  
 P. E. Maslen,  N. Nair,  D. P. O'Neill,  D. Neuhauser,  E. Neuscamman,  
 C. M. Oana,  R. Olson,  B. Peters,  R. Peverati,  P. A. Pieniazek,  
 Y. M. Rhee,  J. Ritchie,  M. A. Rohrdanz,  E. Rosta,  N. J. Russ,  
 H. F. Schaefer III,  N. E. Schultz,  N. Shenvi,  A. C. Simmonett,  A. Sodt,  
 D. Stuck,  K. S. Thanthiriwatte,  V. Vanovschi,  Tao Wang,  A. Warshel,  
 C. F. Williams,  Q. Wu,  X. Xu,  W. Zhang

 Please cite Q-Chem as follows:
 Y. Shao et al., Mol. Phys. 113, 184-215 (2015)
 DOI: 10.1080/00268976.2014.952696

 Q-Chem 5.3.1 for Intel X86 EM64T Linux

 Parts of Q-Chem use Armadillo 9.800.1 (Horizon Scraper).
 http://arma.sourceforge.net/

 Q-Chem begins on Mon Jun 28 12:30:26 2021  

Host: 
0

     Scratch files written to /scratch/scaparas/job_3660070/qchem127162//
 Aug2920 |scratch|qcdevops|jenkins|workspace|build_RNUM    
Processing $rem in /cm/shared/apps/spack/cpu/opt/spack/linux-centos8-zen2/gcc-10.2.0/qchem-5.3-5qddma6gy34jvefiv7mbcb7qm253n45r/config/preferences:
Processing $rem in /home/scaparas/.qchemrc:

Checking the input file for inconsistencies... 	...done.

--------------------------------------------------------------
User input:
--------------------------------------------------------------
$molecule
0 1
C   -2.1510630    0.6892080    0.0000880
C   -2.1279270   -0.7158180    0.0000750
C   -0.9322970   -1.4131000   -0.0000110
C    0.2469110   -0.6702010   -0.0000420
C    0.2481930    0.7482990    0.0000000
C   -0.9794740    1.4235260    0.0000320
N    1.5617740   -1.0775920   -0.0002850
C    1.6201330    1.1629000   -0.0001570
C    2.3820130    0.0308060    0.0002480
H    1.8763150   -2.0300110    0.0004380
H    1.9921730    2.1730100   -0.0003480
H    3.4525490   -0.0824250    0.0004080
H   -3.0615940   -1.2620200    0.0000880
H   -0.9172520   -2.4953420   -0.0000730
H   -3.1042030    1.2007850    0.0000900
H   -1.0093480    2.5054210   -0.0000150
$end

$rem
BASIS  =  6-31+G*
GUI  =  2
JOB_TYPE  =  Optimization
METHOD  = PBE0
SCF_CONVERGENCE  =  8
THRESH = 12
CIS_N_ROOTS  = 3
CIS_SINGLETS = true
CIS_TRIPLETS = false
CIS_STATE_DERIV = 2
MEM_STATIC = 500
MEM_TOTAL = 3000
$end
--------------------------------------------------------------
 ----------------------------------------------------------------
             Standard Nuclear Orientation (Angstroms)
    I     Atom           X                Y                Z
 ----------------------------------------------------------------
    1      C       2.1510629040    -0.6892079969     0.0000583065
    2      C       2.1279268385     0.7158180020     0.0000481775
    3      C       0.9322968051     1.4130999466    -0.0000206639
    4      C      -0.2469111607     0.6702008918    -0.0000373513
    5      C      -0.2481930942    -0.7482991083     0.0000020775
    6      C       0.9794739374    -1.4235260513     0.0000165335
    7      N      -1.5617741827     1.0775918311    -0.0002621374
    8      C      -1.6201330769    -1.1629001718    -0.0001374500
    9      C      -2.3820131241    -0.0308062080     0.0002797387
   10      H      -1.8763152174     2.0300108152     0.0004667797
   11      H      -1.9921730325    -2.1730101887    -0.0003253498
   12      H      -3.4525491271     0.0824247420     0.0004541695
   13      H       3.0615938132     1.2620200454     0.0000497686
   14      H       0.9172517540     2.4953419460    -0.0000804893
   15      H       3.1042029277    -1.2007849526     0.0000467087
   16      H       1.0093479871    -2.5054210498    -0.0000328375
 ----------------------------------------------------------------
 Molecular Point Group                 C1    NOp =  1
 Largest Abelian Subgroup              C1    NOp =  1
 Nuclear Repulsion Energy =         401.33686680 hartrees
 There are       31 alpha and       31 beta electrons
 Requested basis set is 6-31+G(d)
 There are 59 shells and 185 basis functions

 Total QAlloc Memory Limit   3000 MB
 Mega-Array Size       489 MB
 MEM_STATIC part       500 MB
 A cutoff of  1.0D-12 yielded   1657 shell pairs
 There are     17105 function pairs
 Smallest overlap matrix eigenvalue = 1.26E-06

 Scale SEOQF with 1.000000e-01/1.000000e-01/1.000000e-01

 Standard Electronic Orientation quadrupole field applied
 Nucleus-field energy     =     0.0000000117 hartrees
 Guess from superposition of atomic densities
 Warning:  Energy on first SCF cycle will be non-variational
 SAD guess density has 62.000000 electrons

 -----------------------------------------------------------------------
  General SCF calculation program by
  Eric Jon Sundstrom, Paul Horn, Yuezhi Mao, Dmitri Zuev, Alec White,
  David Stuck, Shaama M.S., Shane Yost, Joonho Lee, David Small,
  Daniel Levine, Susi Lehtola, Hugh Burton, Evgeny Epifanovsky,
  Bang C. Huynh
 -----------------------------------------------------------------------
 Exchange:     0.2500 Hartree-Fock + 0.7500 PBE
 Correlation:  1.0000 PBE
 Using SG-1 standard quadrature grid
 using 4 threads for integral computing
 -------------------------------------------------------
 OpenMP Integral computing Module                
 Release: version 1.0, May 2013, Q-Chem Inc. Pittsburgh 
 -------------------------------------------------------
 A restricted SCF calculation will be
 performed using DIIS
 SCF converges when DIIS error is below 1.0e-08
 ---------------------------------------
  Cycle       Energy         DIIS error
 ---------------------------------------
    1    -365.9013529445      5.56e-02  
    2    -363.2957944551      4.64e-03  
    3    -363.2677149305      5.28e-03  
    4    -363.3964543729      1.28e-03  
    5    -363.4032792573      3.47e-04  
    6    -363.4037723372      9.94e-05  
    7    -363.4038100528      3.87e-05  
    8    -363.4038166384      7.41e-06  
    9    -363.4038168607      1.51e-06  
   10    -363.4038168705      6.14e-07  
   11    -363.4038168720      1.99e-07  
   12    -363.4038168722      6.64e-08  
   13    -363.4038168722      1.87e-08  
   14    -363.4038168722      5.67e-09  Convergence criterion met
 ---------------------------------------
 SCF time:   CPU 42.17s  wall 11.00s 
 SCF   energy in the final basis set =     -363.4038168722
 Total energy in the final basis set =     -363.4038168722
 
 Direct TDDFT/TDA calculation will be performed
 Exchange:     0.2500 Hartree-Fock + 0.7500 PBE
 Correlation:  1.0000 PBE
 Using SG-1 standard quadrature grid
 Singlet excitation energies requested
 CIS energy converged when residual is below 10e- 6
 ---------------------------------------------------
 Iter    Rts Conv    Rts Left    Ttl Dev     Max Dev
 ---------------------------------------------------
   1         0           3      0.003678    0.001810
   2         0           3      0.001454    0.000800
   3         0           3      0.000314    0.000187
   4         0           3      0.000131    0.000076
   5         0           3      0.000046    0.000028
   6         1           2      0.000010    0.000006
   7         1           2      0.000004    0.000002
   8         3           0      0.000001    0.000001    Roots Converged
 ---------------------------------------------------
 
 ---------------------------------------------------
         TDDFT/TDA Excitation Energies              
 ---------------------------------------------------

 Excited state   1: excitation energy (eV) =    5.0293
 Total energy for state  1:                  -363.21899437 au
    Multiplicity: Singlet
    Trans. Mom.:  0.3951 X  -0.6619 Y  -0.0003 Z
    Strength   :     0.0732287081
    D(   30) --> V(    1) amplitude = -0.4091
    D(   30) --> V(    4) amplitude = -0.2395
    D(   31) --> V(    1) amplitude =  0.8169

 Excited state   2: excitation energy (eV) =    5.0805
 Total energy for state  2:                  -363.21711177 au
    Multiplicity: Singlet
    Trans. Mom.:  0.6509 X  -0.1003 Y  -0.0005 Z
    Strength   :     0.0539944107
    D(   30) --> V(    1) amplitude =  0.6714
    D(   31) --> V(    1) amplitude =  0.4117
    D(   31) --> V(    4) amplitude =  0.5823

 Excited state   3: excitation energy (eV) =    5.1254
 Total energy for state  3:                  -363.21546317 au
    Multiplicity: Singlet
    Trans. Mom.:  0.0029 X  -0.0016 Y   0.1348 Z
    Strength   :     0.0022816839
    D(   31) --> V(    2) amplitude =  0.9936
 
 ---------------------------------------------------
 Calculating Relaxed Density
 ---------------------------------------------------
 Iter    Rts Conv    Rts Left    Ttl Dev     Max Dev
 ---------------------------------------------------
   1         0           3      0.001392    0.000682
   2         0           3      0.000530    0.000231
   3         0           3      0.000122    0.000051
   4         0           3      0.000032    0.000016
   5         0           3      0.000008    0.000003
   6         3           0      0.000000    0.000000    Roots Converged
 ---------------------------------------------------
  SETman timing summary (seconds)
  CPU time               118.19s
  System time              0.00s
  Wall time               31.20s
 
 --------------------------------------------------------------
 
                    Orbital Energies (a.u.)
 --------------------------------------------------------------
 
 Alpha MOs
 -- Occupied --
-14.4515 -10.2722 -10.2703 -10.2400 -10.2362 -10.2346 -10.2345 -10.2294
-10.2271  -1.0145  -0.8683  -0.8100  -0.7613  -0.7427  -0.6467  -0.6166
 -0.6029  -0.5598  -0.5009  -0.4884  -0.4540  -0.4452  -0.4401  -0.4267
 -0.4068  -0.3690  -0.3502  -0.3481  -0.2930  -0.2353  -0.2182
 -- Virtual --
 -0.0119   0.0061   0.0249   0.0250   0.0305   0.0459   0.0469   0.0528
  0.0674   0.0690   0.0750   0.0754   0.0938   0.0973   0.1155   0.1158
  0.1200   0.1345   0.1438   0.1475   0.1634   0.1660   0.1752   0.1763
  0.1808   0.1903   0.1961   0.1979   0.2061   0.2088   0.2107   0.2132
  0.2281   0.2338   0.2406   0.2448   0.2474   0.2555   0.2663   0.2704
  0.2807   0.2825   0.2887   0.3068   0.3126   0.3205   0.3264   0.3430
  0.3619   0.3786   0.3905   0.4114   0.4483   0.4625   0.5272   0.5959
  0.6412   0.6897   0.6912   0.7169   0.7324   0.7385   0.7465   0.7547
  0.7595   0.7711   0.7753   0.7958   0.8106   0.8179   0.8315   0.8717
  0.9119   0.9190   0.9306   0.9534   0.9609   0.9696   0.9784   1.0011
  1.0211   1.0479   1.0641   1.0811   1.1094   1.1282   1.1318   1.1864
  1.1948   1.2204   1.2395   1.2452   1.2679   1.3312   1.3345   1.3518
  1.3850   1.4258   1.4332   1.4689   1.4719   1.4788   1.5099   1.5157
  1.5556   1.6059   1.6660   1.8027   1.8615   1.9010   1.9069   1.9398
  1.9609   2.0135   2.0160   2.0209   2.0818   2.1187   2.1606   2.1901
  2.1917   2.2174   2.2657   2.2776   2.2829   2.3046   2.3337   2.3989
  2.4268   2.4662   2.5686   2.5774   2.6577   2.6794   2.6894   2.7219
  2.7583   2.8320   2.8692   2.8808   2.9774   3.0024   3.1363   3.2673
  3.4730   4.1821   4.2940   4.3238   4.3583   4.3943   4.4296   4.5130
  4.5522   4.8220
 --------------------------------------------------------------
 
          Ground-State Mulliken Net Atomic Charges

     Atom                 Charge (a.u.)
  ----------------------------------------
      1 C                     0.017565
      2 C                    -0.538746
      3 C                    -0.124896
      4 C                    -1.180642
      5 C                     1.578554
      6 C                    -0.795310
      7 N                    -0.466689
      8 C                     0.034566
      9 C                    -0.228456
     10 H                     0.436792
     11 H                     0.218965
     12 H                     0.217317
     13 H                     0.206176
     14 H                     0.207413
     15 H                     0.204745
     16 H                     0.212644
  ----------------------------------------
  Sum of atomic charges =     0.000000

 -----------------------------------------------------------------
                    Cartesian Multipole Moments
 -----------------------------------------------------------------
    Charge (ESU x 10^10)
                -0.0000
    Dipole Moment (Debye)
         X      -1.5173      Y       1.5693      Z       0.0011
       Tot       2.1829
    Quadrupole Moments (Debye-Ang)
        XX     -44.7777     XY      -3.1829     YY     -43.9417
        XZ      -0.0032     YZ       0.0033     ZZ     -58.6724
    Octopole Moments (Debye-Ang^2)
       XXX     -14.5714    XXY       8.2174    XYY      -7.9674
       YYY      10.4206    XXZ       0.0076    XYZ      -0.0067
       YYZ       0.0020    XZZ      -2.0071    YZZ       2.0022
       ZZZ      -0.0009
    Hexadecapole Moments (Debye-Ang^3)
      XXXX    -803.1552   XXXY     -21.5780   XXYY    -193.3175
      XYYY     -19.5449   YYYY    -363.4973   XXXZ      -0.0242
      XXYZ       0.0131   XYYZ      -0.0071   YYYZ       0.0143
      XXZZ    -187.6672   XYZZ      -3.9239   YYZZ     -92.7144
      XZZZ      -0.0010   YZZZ       0.0029   ZZZZ     -71.5603
 -----------------------------------------------------------------
 Calculating analytic gradient of the CIS energy
 CIS relaxed dipole moment
            1
    1  -1.1211989
    2   0.5934891
    3  -0.0014740
	Magnitude:	 1.269 au	 3.224 Debye
 CIS 2 State Energy is -363.2171117731
 Gradient of the state energy (including CIS Excitation Energy)
            1           2           3           4           5           6
    1  -0.0255772  -0.0143553   0.0063941   0.0092540   0.0176031   0.0162457
    2  -0.0010222  -0.0013678  -0.0293715  -0.0018863   0.0178188   0.0304678
    3   0.0000157  -0.0000141  -0.0000104   0.0000471   0.0000045  -0.0000228
            7           8           9          10          11          12
    1   0.0104537  -0.0346890   0.0126637   0.0020045   0.0013795   0.0040489
    2   0.0051660   0.0138857  -0.0319279  -0.0037209   0.0037634  -0.0006701
    3  -0.0000250  -0.0000186   0.0000404  -0.0000226  -0.0000056  -0.0000004
           13          14          15          16
    1  -0.0028843   0.0000083  -0.0029332   0.0003835
    2  -0.0019912  -0.0031020   0.0010526   0.0029055
    3  -0.0000018   0.0000061   0.0000050   0.0000025
 Gradient time:  CPU 22.95 s  wall 5.77 s
 Geometry Optimization Parameters
   NAtoms,    NIC,     NZ,  NCons,   NDum,   NFix, NCnnct, MaxDiis
       16     116       0       0       0       0       0       0


** GEOMETRY OPTIMIZATION IN DELOCALIZED INTERNAL COORDINATES **
   Searching for a Minimum

   Optimization Cycle:   1

                       Coordinates (Angstroms)
     ATOM                X               Y               Z
      1  C         2.1510629040   -0.6892079969    0.0000583065
      2  C         2.1279268385    0.7158180020    0.0000481775
      3  C         0.9322968051    1.4130999466   -0.0000206639
      4  C        -0.2469111607    0.6702008918   -0.0000373513
      5  C        -0.2481930942   -0.7482991083    0.0000020775
      6  C         0.9794739374   -1.4235260513    0.0000165335
      7  N        -1.5617741827    1.0775918311   -0.0002621374
      8  C        -1.6201330769   -1.1629001718   -0.0001374500
      9  C        -2.3820131241   -0.0308062080    0.0002797387
     10  H        -1.8763152174    2.0300108152    0.0004667797
     11  H        -1.9921730325   -2.1730101887   -0.0003253498
     12  H        -3.4525491271    0.0824247420    0.0004541695
     13  H         3.0615938132    1.2620200454    0.0000497686
     14  H         0.9172517540    2.4953419460   -0.0000804893
     15  H         3.1042029277   -1.2007849526    0.0000467087
     16  H         1.0093479871   -2.5054210498   -0.0000328375
   Point Group: c1    Number of degrees of freedom:    42


   Energy is   -363.217111773


 Attempting to generate delocalized internal coordinates
 Initial Hessian constructed with Jon Baker's OPTIMIZE code

 42 Hessian modes will be used to form the next step
  Hessian Eigenvalues:
     0.018594    0.019738    0.020011    0.020794    0.021683    0.022200
     0.022636    0.023004    0.023236    0.023608    0.023851    0.023984
     0.024127    0.160000    0.160000    0.160000    0.160000    0.160000
     0.160000    0.160000    0.220000    0.221879    0.226618    0.240111
     0.246509    0.357123    0.357170    0.357835    0.357899    0.364196
     0.364272    0.370088    0.384319    0.426334    0.434649    0.457693
     0.466917    0.471622    0.474685    0.475669    0.481247    0.509555

 Minimum search - taking simple RFO step
 Searching for Lamda that Minimizes Along All modes
 Value Taken    Lamda =  -0.01100563
 Step Taken.  Stepsize is  0.158374

                             Maximum     Tolerance    Cnvgd?
         Gradient           0.037672      0.000300      NO
         Displacement       0.089165      0.001200      NO
         Energy change     *********      0.000001      NO


 New Cartesian Coordinates Obtained by Inverse Iteration

 Displacement from previous Coordinates is:  0.224622
 ----------------------------------------------------------------
             Standard Nuclear Orientation (Angstroms)
    I     Atom           X                Y                Z
 ----------------------------------------------------------------
    1      C       2.1756115900    -0.7056089139    -0.0000167598
    2      C       2.1395654766     0.7236176175     0.0000436063
    3      C       0.9269611749     1.4461735996    -0.0000318252
    4      C      -0.2588314829     0.6750500606    -0.0001377968
    5      C      -0.2491673190    -0.7706401815     0.0000187763
    6      C       0.9823857499    -1.4726220592     0.0001181680
    7      N      -1.5819219277     1.0889497526    -0.0001531412
    8      C      -1.6086926114    -1.1654310456    -0.0000702309
    9      C      -2.3970741214    -0.0119511254    -0.0000017772
   10      H      -1.9003750755     2.0448773372     0.0008725350
   11      H      -1.9844961724    -2.1801779001    -0.0001226312
   12      H      -3.4735868006     0.0996830944     0.0000936392
   13      H       3.0768707655     1.2735285000     0.0000401657
   14      H       0.9093528192     2.5328375138    -0.0001044622
   15      H       3.1391712696    -1.2069324263    -0.0001153891
   16      H       1.0073216165    -2.5588013311     0.0000931043
 ----------------------------------------------------------------
 Molecular Point Group                 C1    NOp =  1
 Largest Abelian Subgroup              C1    NOp =  1
 Nuclear Repulsion Energy =         397.13459650 hartrees
 There are       31 alpha and       31 beta electrons
 Applying Cartesian multipole field
    Component          Value
    ---------          -----
     (2,0,0)        1.00000E-11
     (0,2,0)        2.00000E-11
     (0,0,2)       -3.00000E-11
 Nucleus-field energy     =     0.0000000120 hartrees
 Requested basis set is 6-31+G(d)
 There are 59 shells and 185 basis functions
 A cutoff of  1.0D-12 yielded   1656 shell pairs
 There are     17099 function pairs
 Smallest overlap matrix eigenvalue = 1.42E-06
 Guess MOs from SCF MO coefficient file

 -----------------------------------------------------------------------
  General SCF calculation program by
  Eric Jon Sundstrom, Paul Horn, Yuezhi Mao, Dmitri Zuev, Alec White,
  David Stuck, Shaama M.S., Shane Yost, Joonho Lee, David Small,
  Daniel Levine, Susi Lehtola, Hugh Burton, Evgeny Epifanovsky,
  Bang C. Huynh
 -----------------------------------------------------------------------
 Exchange:     0.2500 Hartree-Fock + 0.7500 PBE
 Correlation:  1.0000 PBE
 Using SG-1 standard quadrature grid
 using 4 threads for integral computing
 -------------------------------------------------------
 OpenMP Integral computing Module                
 Release: version 1.0, May 2013, Q-Chem Inc. Pittsburgh 
 -------------------------------------------------------
 A restricted SCF calculation will be
 performed using DIIS
 SCF converges when DIIS error is below 1.0e-08
 ---------------------------------------
  Cycle       Energy         DIIS error
 ---------------------------------------
    1    -363.3959648216      8.86e-04  
    2    -363.3994272232      2.53e-04  
    3    -363.3994863628      2.26e-04  
    4    -363.3997004272      5.92e-05  
    5    -363.3997155762      1.49e-05  
    6    -363.3997164930      6.85e-06  
    7    -363.3997167137      1.12e-06  
    8    -363.3997167188      6.43e-07  
    9    -363.3997167207      1.74e-07  
   10    -363.3997167208      7.44e-08  
   11    -363.3997167209      1.65e-08  
   12    -363.3997167209      3.33e-09  Convergence criterion met
 ---------------------------------------
 SCF time:   CPU 36.98s  wall 9.00s 
 SCF   energy in the final basis set =     -363.3997167209
 Total energy in the final basis set =     -363.3997167209
 
 Direct TDDFT/TDA calculation will be performed
 Exchange:     0.2500 Hartree-Fock + 0.7500 PBE
 Correlation:  1.0000 PBE
 Using SG-1 standard quadrature grid
 Singlet excitation energies requested
 CIS energy converged when residual is below 10e- 6
 ---------------------------------------------------
 Iter    Rts Conv    Rts Left    Ttl Dev     Max Dev
 ---------------------------------------------------
   1         0           3      0.003713    0.001843
   2         0           3      0.001565    0.000884
   3         0           3      0.000359    0.000219
   4         0           3      0.000151    0.000096
   5         0           3      0.000052    0.000032
   6         1           2      0.000013    0.000008
   7         1           2      0.000006    0.000004
   8         3           0      0.000002    0.000001    Roots Converged
 ---------------------------------------------------
 
 ---------------------------------------------------
         TDDFT/TDA Excitation Energies              
 ---------------------------------------------------

 Excited state   1: excitation energy (eV) =    4.7924
 Total energy for state  1:                  -363.22360059 au
    Multiplicity: Singlet
    Trans. Mom.:  0.8092 X  -0.4963 Y  -0.0002 Z
    Strength   :     0.1057972713
    D(   30) --> V(    1) amplitude =  0.2594
    D(   30) --> V(    3) amplitude = -0.2472
    D(   31) --> V(    1) amplitude =  0.8307
    D(   31) --> V(    3) amplitude =  0.3560

 Excited state   2: excitation energy (eV) =    4.8843
 Total energy for state  2:                  -363.22022377 au
    Multiplicity: Singlet
    Trans. Mom.: -0.0615 X   0.4848 Y  -0.0001 Z
    Strength   :     0.0285793832
    D(   30) --> V(    1) amplitude =  0.7314
    D(   31) --> V(    1) amplitude = -0.3809
    D(   31) --> V(    3) amplitude =  0.5079

 Excited state   3: excitation energy (eV) =    4.9784
 Total energy for state  3:                  -363.21676385 au
    Multiplicity: Singlet
    Trans. Mom.:  0.0014 X  -0.0004 Y   0.1479 Z
    Strength   :     0.0026664618
    D(   31) --> V(    2) amplitude =  0.9943
 
 ---------------------------------------------------
 Calculating Relaxed Density
 ---------------------------------------------------
 Iter    Rts Conv    Rts Left    Ttl Dev     Max Dev
 ---------------------------------------------------
   1         0           3      0.001501    0.000742
   2         0           3      0.000576    0.000235
   3         0           3      0.000144    0.000063
   4         0           3      0.000039    0.000017
   5         0           3      0.000009    0.000005
   6         2           1      0.000001    0.000001
   7         3           0      0.000000    0.000000    Roots Converged
 ---------------------------------------------------
  SETman timing summary (seconds)
  CPU time               121.23s
  System time              0.00s
  Wall time               30.49s
 
 --------------------------------------------------------------
 
                    Orbital Energies (a.u.)
 --------------------------------------------------------------
 
 Alpha MOs
 -- Occupied --
-14.4566 -10.2772 -10.2763 -10.2478 -10.2431 -10.2417 -10.2415 -10.2387
-10.2296  -1.0138  -0.8588  -0.8067  -0.7573  -0.7361  -0.6453  -0.6181
 -0.5982  -0.5574  -0.5025  -0.4849  -0.4529  -0.4474  -0.4379  -0.4200
 -0.4056  -0.3687  -0.3507  -0.3451  -0.2921  -0.2345  -0.2138
 -- Virtual --
 -0.0180   0.0049   0.0191   0.0247   0.0303   0.0451   0.0465   0.0510
  0.0673   0.0691   0.0736   0.0745   0.0929   0.0967   0.1146   0.1149
  0.1197   0.1336   0.1423   0.1456   0.1612   0.1652   0.1727   0.1736
  0.1805   0.1892   0.1946   0.1951   0.2040   0.2071   0.2084   0.2087
  0.2258   0.2306   0.2395   0.2416   0.2459   0.2515   0.2629   0.2702
  0.2788   0.2811   0.2863   0.3011   0.3040   0.3126   0.3256   0.3382
  0.3526   0.3691   0.3798   0.4017   0.4375   0.4553   0.5194   0.5755
  0.6111   0.6890   0.6922   0.7159   0.7280   0.7389   0.7420   0.7522
  0.7546   0.7703   0.7713   0.7927   0.8062   0.8086   0.8258   0.8684
  0.9066   0.9123   0.9251   0.9551   0.9626   0.9691   0.9760   1.0030
  1.0114   1.0459   1.0627   1.0738   1.1033   1.1242   1.1254   1.1831
  1.1896   1.2146   1.2359   1.2461   1.2542   1.3295   1.3305   1.3531
  1.3751   1.4141   1.4208   1.4533   1.4682   1.4833   1.5030   1.5079
  1.5532   1.5961   1.6560   1.7873   1.8366   1.9001   1.9005   1.9143
  1.9324   1.9962   2.0071   2.0186   2.0549   2.0765   2.1376   2.1557
  2.1709   2.1940   2.2431   2.2528   2.2644   2.2854   2.3124   2.3802
  2.4126   2.4623   2.5421   2.5584   2.6403   2.6413   2.6595   2.6915
  2.7322   2.8054   2.8441   2.8482   2.9638   2.9844   3.1071   3.2400
  3.3997   4.1751   4.2676   4.3211   4.3422   4.3848   4.4268   4.5025
  4.5448   4.7975
 --------------------------------------------------------------
 
          Ground-State Mulliken Net Atomic Charges

     Atom                 Charge (a.u.)
  ----------------------------------------
      1 C                    -0.041054
      2 C                    -0.474079
      3 C                    -0.269222
      4 C                    -1.135960
      5 C                     1.554055
      6 C                    -0.646790
      7 N                    -0.437467
      8 C                    -0.052451
      9 C                    -0.213302
     10 H                     0.439779
     11 H                     0.218057
     12 H                     0.218839
     13 H                     0.206017
     14 H                     0.210608
     15 H                     0.206403
     16 H                     0.216565
  ----------------------------------------
  Sum of atomic charges =     0.000000

 -----------------------------------------------------------------
                    Cartesian Multipole Moments
 -----------------------------------------------------------------
    Charge (ESU x 10^10)
                -0.0000
    Dipole Moment (Debye)
         X      -1.5694      Y       1.6539      Z       0.0014
       Tot       2.2800
    Quadrupole Moments (Debye-Ang)
        XX     -44.8172     XY      -3.5501     YY     -43.6452
        XZ      -0.0040     YZ       0.0041     ZZ     -59.2009
    Octopole Moments (Debye-Ang^2)
       XXX     -15.0003    XXY       9.0005    XYY      -8.0232
       YYY      11.0378    XXZ       0.0070    XYZ      -0.0080
       YYZ       0.0080    XZZ      -2.3382    YZZ       2.1749
       ZZZ       0.0024
    Hexadecapole Moments (Debye-Ang^3)
      XXXX    -812.2194   XXXY     -22.0704   XXYY    -196.7632
      XYYY     -18.5573   YYYY    -372.2104   XXXZ      -0.0275
      XXYZ       0.0195   XYYZ      -0.0183   YYYZ       0.0201
      XXZZ    -191.5181   XYZZ      -3.1421   YYZZ     -95.9509
      XZZZ      -0.0075   YZZZ       0.0054   ZZZZ     -73.1372
 -----------------------------------------------------------------
 Calculating analytic gradient of the CIS energy
 CIS relaxed dipole moment
            1
    1  -0.9261023
    2   0.4153299
    3   0.0004974
	Magnitude:	 1.015 au	 2.580 Debye
 CIS 2 State Energy is -363.2202237724
 Gradient of the state energy (including CIS Excitation Energy)
            1           2           3           4           5           6
    1   0.0025389  -0.0147296   0.0155109  -0.0081348  -0.0071980   0.0081303
    2  -0.0127517   0.0070042   0.0061102  -0.0201548  -0.0033483  -0.0045875
    3  -0.0000070   0.0000023   0.0000018  -0.0000180   0.0000238   0.0000117
            7           8           9          10          11          12
    1  -0.0300357   0.0169559   0.0181215  -0.0012068   0.0011896  -0.0011241
    2   0.0094195  -0.0039246   0.0205680  -0.0012379  -0.0001282   0.0012243
    3  -0.0000138  -0.0000094  -0.0000023   0.0000118  -0.0000009   0.0000042
           13          14          15          16
    1   0.0000611  -0.0001841   0.0002715  -0.0001667
    2   0.0013082   0.0007720   0.0003521  -0.0006255
    3  -0.0000001   0.0000011  -0.0000001  -0.0000052
 Gradient time:  CPU 22.76 s  wall 5.72 s
 Geometry Optimization Parameters
   NAtoms,    NIC,     NZ,  NCons,   NDum,   NFix, NCnnct, MaxDiis
       16     116       0       0       0       0       0       0

 Cartesian Hessian Update
 Hessian updated using BFGS update


** GEOMETRY OPTIMIZATION IN DELOCALIZED INTERNAL COORDINATES **
   Searching for a Minimum

   Optimization Cycle:   2

                       Coordinates (Angstroms)
     ATOM                X               Y               Z
      1  C         2.1756115900   -0.7056089139   -0.0000167598
      2  C         2.1395654766    0.7236176175    0.0000436063
      3  C         0.9269611749    1.4461735996   -0.0000318252
      4  C        -0.2588314829    0.6750500606   -0.0001377968
      5  C        -0.2491673190   -0.7706401815    0.0000187763
      6  C         0.9823857499   -1.4726220592    0.0001181680
      7  N        -1.5819219277    1.0889497526   -0.0001531412
      8  C        -1.6086926114   -1.1654310456   -0.0000702309
      9  C        -2.3970741214   -0.0119511254   -0.0000017772
     10  H        -1.9003750755    2.0448773372    0.0008725350
     11  H        -1.9844961724   -2.1801779001   -0.0001226312
     12  H        -3.4735868006    0.0996830944    0.0000936392
     13  H         3.0768707655    1.2735285000    0.0000401657
     14  H         0.9093528192    2.5328375138   -0.0001044622
     15  H         3.1391712696   -1.2069324263   -0.0001153891
     16  H         1.0073216165   -2.5588013311    0.0000931043
   Point Group: c1    Number of degrees of freedom:    42


   Energy is   -363.220223772

 Hessian updated using BFGS update

 38 Hessian modes will be used to form the next step
  Hessian Eigenvalues:
     0.018594    0.019738    0.020011    0.020794    0.021683    0.022200
     0.022636    0.023004    0.023608    0.023851    0.023984    0.024127
     0.159749    0.160000    0.160000    0.160246    0.198344    0.220690
     0.230005    0.246247    0.252991    0.355808    0.357146    0.357425
     0.357899    0.362222    0.364309    0.369029    0.378802    0.407358
     0.427195    0.441449    0.463324    0.470276    0.471760    0.475263
     0.486229    0.815608

 Minimum search - taking simple RFO step
 Searching for Lamda that Minimizes Along All modes
 Value Taken    Lamda =  -0.00370630
 Step Taken.  Stepsize is  0.098258

                             Maximum     Tolerance    Cnvgd?
         Gradient           0.024090      0.000300      NO
         Displacement       0.053213      0.001200      NO
         Energy change     -0.003112      0.000001      NO


 New Cartesian Coordinates Obtained by Inverse Iteration

 Displacement from previous Coordinates is:  0.138259
 ----------------------------------------------------------------
             Standard Nuclear Orientation (Angstroms)
    I     Atom           X                Y                Z
 ----------------------------------------------------------------
    1      C       2.1773965862    -0.6930734777    -0.0000551558
    2      C       2.1613126697     0.7342568114     0.0000399109
    3      C       0.9332582993     1.4563903496    -0.0000000576
    4      C      -0.2472126069     0.6801703823    -0.0000947275
    5      C      -0.2577106338    -0.7699261794    -0.0000036985
    6      C       0.9733276304    -1.4671081178     0.0000797891
    7      N      -1.5681065124     1.0690384975    -0.0000601799
    8      C      -1.6261435112    -1.1727311078     0.0000243075
    9      C      -2.4182930615    -0.0229490854    -0.0000836744
   10      H      -1.8782057401     2.0297047527     0.0008873994
   11      H      -2.0044309373    -2.1885290302     0.0000141080
   12      H      -3.4943848491     0.0944292346    -0.0001077019
   13      H       3.1039371817     1.2761116864     0.0000332738
   14      H       0.9106548688     2.5432983492    -0.0000751001
   15      H       3.1377564988    -1.2028598644    -0.0001760263
   16      H       0.9999390686    -2.5536707083     0.0001035143
 ----------------------------------------------------------------
 Molecular Point Group                 C1    NOp =  1
 Largest Abelian Subgroup              C1    NOp =  1
 Nuclear Repulsion Energy =         396.21341209 hartrees
 There are       31 alpha and       31 beta electrons
 Applying Cartesian multipole field
    Component          Value
    ---------          -----
     (2,0,0)        1.00000E-11
     (0,2,0)        2.00000E-11
     (0,0,2)       -3.00000E-11
 Nucleus-field energy     =     0.0000000120 hartrees
 Requested basis set is 6-31+G(d)
 There are 59 shells and 185 basis functions
 A cutoff of  1.0D-12 yielded   1656 shell pairs
 There are     17099 function pairs
 Smallest overlap matrix eigenvalue = 1.47E-06
 Guess MOs from SCF MO coefficient file

 -----------------------------------------------------------------------
  General SCF calculation program by
  Eric Jon Sundstrom, Paul Horn, Yuezhi Mao, Dmitri Zuev, Alec White,
  David Stuck, Shaama M.S., Shane Yost, Joonho Lee, David Small,
  Daniel Levine, Susi Lehtola, Hugh Burton, Evgeny Epifanovsky,
  Bang C. Huynh
 -----------------------------------------------------------------------
 Exchange:     0.2500 Hartree-Fock + 0.7500 PBE
 Correlation:  1.0000 PBE
 Using SG-1 standard quadrature grid
 using 4 threads for integral computing
 -------------------------------------------------------
 OpenMP Integral computing Module                
 Release: version 1.0, May 2013, Q-Chem Inc. Pittsburgh 
 -------------------------------------------------------
 A restricted SCF calculation will be
 performed using DIIS
 SCF converges when DIIS error is below 1.0e-08
 ---------------------------------------
  Cycle       Energy         DIIS error
 ---------------------------------------
    1    -363.3974050520      4.37e-04  
    2    -363.3983767643      1.08e-04  
    3    -363.3983650173      1.19e-04  
    4    -363.3984250826      3.24e-05  
    5    -363.3984298407      9.46e-06  
    6    -363.3984302359      3.29e-06  
    7    -363.3984302856      9.97e-07  
    8    -363.3984302909      4.20e-07  
    9    -363.3984302917      1.36e-07  
   10    -363.3984302918      5.62e-08  
   11    -363.3984302918      1.38e-08  
   12    -363.3984302918      5.73e-09  Convergence criterion met
 ---------------------------------------
 SCF time:   CPU 36.94s  wall 9.00s 
 SCF   energy in the final basis set =     -363.3984302918
 Total energy in the final basis set =     -363.3984302918
 
 Direct TDDFT/TDA calculation will be performed
 Exchange:     0.2500 Hartree-Fock + 0.7500 PBE
 Correlation:  1.0000 PBE
 Using SG-1 standard quadrature grid
 Singlet excitation energies requested
 CIS energy converged when residual is below 10e- 6
 ---------------------------------------------------
 Iter    Rts Conv    Rts Left    Ttl Dev     Max Dev
 ---------------------------------------------------
   1         0           3      0.003732    0.001855
   2         0           3      0.001464    0.000800
   3         0           3      0.000309    0.000182
   4         0           3      0.000127    0.000071
   5         0           3      0.000044    0.000026
   6         1           2      0.000011    0.000006
   7         1           2      0.000004    0.000002
   8         3           0      0.000001    0.000001    Roots Converged
 ---------------------------------------------------
 
 ---------------------------------------------------
         TDDFT/TDA Excitation Energies              
 ---------------------------------------------------

 Excited state   1: excitation energy (eV) =    4.7739
 Total energy for state  1:                  -363.22299421 au
    Multiplicity: Singlet
    Trans. Mom.:  0.3887 X  -0.7335 Y   0.0000 Z
    Strength   :     0.0805965449
    D(   30) --> V(    1) amplitude = -0.3965
    D(   30) --> V(    3) amplitude = -0.2292
    D(   31) --> V(    1) amplitude =  0.8219

 Excited state   2: excitation energy (eV) =    4.8200
 Total energy for state  2:                  -363.22129801 au
    Multiplicity: Singlet
    Trans. Mom.:  0.6729 X  -0.1245 Y  -0.0001 Z
    Strength   :     0.0553004956
    D(   30) --> V(    1) amplitude =  0.6795
    D(   31) --> V(    1) amplitude =  0.4056
    D(   31) --> V(    3) amplitude =  0.5790

 Excited state   3: excitation energy (eV) =    5.0285
 Total energy for state  3:                  -363.21363785 au
    Multiplicity: Singlet
    Trans. Mom.:  0.0009 X  -0.0002 Y   0.1422 Z
    Strength   :     0.0024928547
    D(   31) --> V(    2) amplitude =  0.9939
 
 ---------------------------------------------------
 Calculating Relaxed Density
 ---------------------------------------------------
 Iter    Rts Conv    Rts Left    Ttl Dev     Max Dev
 ---------------------------------------------------
   1         0           3      0.001479    0.000728
   2         0           3      0.000552    0.000234
   3         0           3      0.000130    0.000054
   4         0           3      0.000035    0.000019
   5         0           3      0.000009    0.000004
   6         3           0      0.000000    0.000000    Roots Converged
 ---------------------------------------------------
  SETman timing summary (seconds)
  CPU time               117.10s
  System time              0.00s
  Wall time               30.15s
 
 --------------------------------------------------------------
 
                    Orbital Energies (a.u.)
 --------------------------------------------------------------
 
 Alpha MOs
 -- Occupied --
-14.4554 -10.2787 -10.2779 -10.2494 -10.2443 -10.2443 -10.2429 -10.2395
-10.2322  -1.0117  -0.8561  -0.8059  -0.7547  -0.7377  -0.6461  -0.6154
 -0.5980  -0.5551  -0.5047  -0.4851  -0.4500  -0.4446  -0.4368  -0.4213
 -0.4090  -0.3674  -0.3518  -0.3430  -0.2920  -0.2331  -0.2150
 -- Virtual --
 -0.0205   0.0055   0.0192   0.0248   0.0300   0.0446   0.0461   0.0497
  0.0671   0.0686   0.0733   0.0743   0.0929   0.0966   0.1141   0.1143
  0.1196   0.1339   0.1420   0.1462   0.1611   0.1649   0.1728   0.1729
  0.1789   0.1892   0.1936   0.1938   0.2036   0.2054   0.2075   0.2077
  0.2252   0.2300   0.2382   0.2427   0.2460   0.2515   0.2629   0.2689
  0.2777   0.2811   0.2859   0.2992   0.3027   0.3110   0.3222   0.3369
  0.3512   0.3695   0.3793   0.4018   0.4313   0.4564   0.5175   0.5723
  0.6072   0.6874   0.6916   0.7166   0.7255   0.7391   0.7409   0.7469
  0.7543   0.7683   0.7703   0.7928   0.8035   0.8082   0.8247   0.8674
  0.9048   0.9126   0.9230   0.9555   0.9598   0.9688   0.9762   1.0003
  1.0094   1.0458   1.0632   1.0777   1.1038   1.1230   1.1246   1.1801
  1.1882   1.2142   1.2356   1.2467   1.2541   1.3261   1.3297   1.3544
  1.3747   1.4134   1.4162   1.4494   1.4738   1.4831   1.5027   1.5046
  1.5466   1.5914   1.6470   1.7987   1.8333   1.8928   1.9016   1.9133
  1.9339   1.9983   2.0018   2.0140   2.0483   2.0586   2.1319   2.1399
  2.1607   2.2030   2.2392   2.2431   2.2696   2.2707   2.3078   2.3685
  2.4108   2.4574   2.5379   2.5539   2.6343   2.6353   2.6592   2.6831
  2.7256   2.7992   2.8328   2.8488   2.9701   2.9748   3.0977   3.2376
  3.3876   4.1691   4.2622   4.3171   4.3470   4.3837   4.4253   4.5009
  4.5435   4.7919
 --------------------------------------------------------------
 
          Ground-State Mulliken Net Atomic Charges

     Atom                 Charge (a.u.)
  ----------------------------------------
      1 C                    -0.032327
      2 C                    -0.467994
      3 C                    -0.212672
      4 C                    -1.097347
      5 C                     1.486669
      6 C                    -0.727639
      7 N                    -0.446982
      8 C                    -0.007687
      9 C                    -0.213343
     10 H                     0.436720
     11 H                     0.219021
     12 H                     0.222470
     13 H                     0.208650
     14 H                     0.210981
     15 H                     0.205272
     16 H                     0.216208
  ----------------------------------------
  Sum of atomic charges =     0.000000

 -----------------------------------------------------------------
                    Cartesian Multipole Moments
 -----------------------------------------------------------------
    Charge (ESU x 10^10)
                 0.0000
    Dipole Moment (Debye)
         X      -1.5959      Y       1.6029      Z       0.0012
       Tot       2.2619
    Quadrupole Moments (Debye-Ang)
        XX     -44.5581     XY      -3.2042     YY     -43.8300
        XZ      -0.0032     YZ       0.0035     ZZ     -59.3047
    Octopole Moments (Debye-Ang^2)
       XXX     -15.8123    XXY       8.7129    XYY      -7.6754
       YYY      10.4942    XXZ       0.0036    XYZ      -0.0070
       YYZ       0.0082    XZZ      -2.3976    YZZ       2.1291
       ZZZ       0.0013
    Hexadecapole Moments (Debye-Ang^3)
      XXXX    -813.2783   XXXY     -22.6361   XXYY    -198.9401
      XYYY     -20.5636   YYYY    -373.4306   XXXZ      -0.0152
      XXYZ       0.0167   XYYZ      -0.0174   YYYZ       0.0147
      XXZZ    -193.2854   XYZZ      -4.5211   YYZZ     -96.1472
      XZZZ      -0.0038   YZZZ       0.0022   ZZZZ     -73.4365
 -----------------------------------------------------------------
 Calculating analytic gradient of the CIS energy
 CIS relaxed dipole moment
            1
    1  -1.1129550
    2   0.6133818
    3   0.0000087
	Magnitude:	 1.271 au	 3.230 Debye
 CIS 2 State Energy is -363.2212980126
 Gradient of the state energy (including CIS Excitation Energy)
            1           2           3           4           5           6
    1   0.0029902   0.0140148  -0.0085047   0.0013974   0.0038612  -0.0046956
    2   0.0042935  -0.0001603   0.0001427   0.0117789   0.0018942  -0.0013394
    3  -0.0000040   0.0000048  -0.0000008  -0.0000097  -0.0000064   0.0000025
            7           8           9          10          11          12
    1   0.0183516  -0.0123732  -0.0141930   0.0003516  -0.0006762  -0.0012762
    2  -0.0041804   0.0007473  -0.0121451   0.0012002  -0.0009820  -0.0006491
    3   0.0000096   0.0000180  -0.0000241   0.0000109   0.0000020  -0.0000024
           13          14          15          16
    1   0.0011241  -0.0002967   0.0009052  -0.0009803
    2  -0.0000451   0.0012152  -0.0004342  -0.0013365
    3  -0.0000017   0.0000004  -0.0000006   0.0000014
 Gradient time:  CPU 22.77 s  wall 5.72 s
 Geometry Optimization Parameters
   NAtoms,    NIC,     NZ,  NCons,   NDum,   NFix, NCnnct, MaxDiis
       16     116       0       0       0       0       0       0

 Cartesian Hessian Update
 Hessian updated using BFGS update


** GEOMETRY OPTIMIZATION IN DELOCALIZED INTERNAL COORDINATES **
   Searching for a Minimum

   Optimization Cycle:   3

                       Coordinates (Angstroms)
     ATOM                X               Y               Z
      1  C         2.1773965862   -0.6930734777   -0.0000551558
      2  C         2.1613126697    0.7342568114    0.0000399109
      3  C         0.9332582993    1.4563903496   -0.0000000576
      4  C        -0.2472126069    0.6801703823   -0.0000947275
      5  C        -0.2577106338   -0.7699261794   -0.0000036985
      6  C         0.9733276304   -1.4671081178    0.0000797891
      7  N        -1.5681065124    1.0690384975   -0.0000601799
      8  C        -1.6261435112   -1.1727311078    0.0000243075
      9  C        -2.4182930615   -0.0229490854   -0.0000836744
     10  H        -1.8782057401    2.0297047527    0.0008873994
     11  H        -2.0044309373   -2.1885290302    0.0000141080
     12  H        -3.4943848491    0.0944292346   -0.0001077019
     13  H         3.1039371817    1.2761116864    0.0000332738
     14  H         0.9106548688    2.5432983492   -0.0000751001
     15  H         3.1377564988   -1.2028598644   -0.0001760263
     16  H         0.9999390686   -2.5536707083    0.0001035143
   Point Group: c1    Number of degrees of freedom:    42


   Energy is   -363.221298013

 Hessian updated using BFGS update

 41 Hessian modes will be used to form the next step
  Hessian Eigenvalues:
     0.018594    0.019738    0.020011    0.020794    0.021683    0.022200
     0.022636    0.023004    0.023236    0.023608    0.023851    0.023984
     0.024127    0.159568    0.160000    0.160000    0.160000    0.160012
     0.160523    0.215141    0.220780    0.230664    0.246341    0.289108
     0.357141    0.357243    0.357787    0.357930    0.363950    0.364283
     0.370147    0.404081    0.422889    0.427185    0.445373    0.461393
     0.471541    0.473516    0.476139    0.487110    1.010671

 Minimum search - taking simple RFO step
 Searching for Lamda that Minimizes Along All modes
 Value Taken    Lamda =  -0.00141766
 Step Taken.  Stepsize is  0.050453

                             Maximum     Tolerance    Cnvgd?
         Gradient           0.015228      0.000300      NO
         Displacement       0.021659      0.001200      NO
         Energy change     -0.001074      0.000001      NO


 New Cartesian Coordinates Obtained by Inverse Iteration

 Displacement from previous Coordinates is:  0.082080
 ----------------------------------------------------------------
             Standard Nuclear Orientation (Angstroms)
    I     Atom           X                Y                Z
 ----------------------------------------------------------------
    1      C       2.1695017926    -0.6952730796    -0.0000243662
    2      C       2.1454273318     0.7272344120     0.0000667460
    3      C       0.9282119990     1.4490262125     0.0000060164
    4      C      -0.2498265182     0.6770557077    -0.0000762746
    5      C      -0.2534795192    -0.7688499134    -0.0000245581
    6      C       0.9746375100    -1.4652475131     0.0000324884
    7      N      -1.5691211272     1.0757947299    -0.0001336781
    8      C      -1.6155545792    -1.1690519230    -0.0000193251
    9      C      -2.4037502401    -0.0191233780     0.0000743963
   10      H      -1.8815549040     2.0344819893     0.0006498543
   11      H      -1.9941726209    -2.1829999480    -0.0000728148
   12      H      -3.4782373866     0.0962158318     0.0001230731
   13      H       3.0853950042     1.2707314730     0.0000959835
   14      H       0.9096158402     2.5343592922    -0.0000785673
   15      H       3.1300123948    -1.2017964931    -0.0001190889
   16      H       1.0059899739    -2.5500049076     0.0000260962
 ----------------------------------------------------------------
 Molecular Point Group                 C1    NOp =  1
 Largest Abelian Subgroup              C1    NOp =  1
 Nuclear Repulsion Energy =         397.51540958 hartrees
 There are       31 alpha and       31 beta electrons
 Applying Cartesian multipole field
    Component          Value
    ---------          -----
     (2,0,0)        1.00000E-11
     (0,2,0)        2.00000E-11
     (0,0,2)       -3.00000E-11
 Nucleus-field energy     =     0.0000000119 hartrees
 Requested basis set is 6-31+G(d)
 There are 59 shells and 185 basis functions
 A cutoff of  1.0D-12 yielded   1656 shell pairs
 There are     17099 function pairs
 Smallest overlap matrix eigenvalue = 1.41E-06
 Guess MOs from SCF MO coefficient file

 -----------------------------------------------------------------------
  General SCF calculation program by
  Eric Jon Sundstrom, Paul Horn, Yuezhi Mao, Dmitri Zuev, Alec White,
  David Stuck, Shaama M.S., Shane Yost, Joonho Lee, David Small,
  Daniel Levine, Susi Lehtola, Hugh Burton, Evgeny Epifanovsky,
  Bang C. Huynh
 -----------------------------------------------------------------------
 Exchange:     0.2500 Hartree-Fock + 0.7500 PBE
 Correlation:  1.0000 PBE
 Using SG-1 standard quadrature grid
 using 4 threads for integral computing
 -------------------------------------------------------
 OpenMP Integral computing Module                
 Release: version 1.0, May 2013, Q-Chem Inc. Pittsburgh 
 -------------------------------------------------------
 A restricted SCF calculation will be
 performed using DIIS
 SCF converges when DIIS error is below 1.0e-08
 ---------------------------------------
  Cycle       Energy         DIIS error
 ---------------------------------------
    1    -363.4002300592      2.08e-04  
    2    -363.4004301427      6.71e-05  
    3    -363.4004375591      5.30e-05  
    4    -363.4004493949      1.74e-05  
    5    -363.4004507939      3.72e-06  
    6    -363.4004508547      1.44e-06  
    7    -363.4004508634      3.20e-07  
    8    -363.4004508640      1.12e-07  
    9    -363.4004508640      5.93e-08  
   10    -363.4004508641      1.73e-08  
   11    -363.4004508641      4.70e-09  Convergence criterion met
 ---------------------------------------
 SCF time:   CPU 33.88s  wall 9.00s 
 SCF   energy in the final basis set =     -363.4004508641
 Total energy in the final basis set =     -363.4004508641
 
 Direct TDDFT/TDA calculation will be performed
 Exchange:     0.2500 Hartree-Fock + 0.7500 PBE
 Correlation:  1.0000 PBE
 Using SG-1 standard quadrature grid
 Singlet excitation energies requested
 CIS energy converged when residual is below 10e- 6
 ---------------------------------------------------
 Iter    Rts Conv    Rts Left    Ttl Dev     Max Dev
 ---------------------------------------------------
   1         0           3      0.003724    0.001853
   2         0           3      0.001762    0.000627
   3         0           3      0.000318    0.000195
   4         0           3      0.000130    0.000084
   5         0           3      0.000044    0.000030
   6         1           2      0.000011    0.000007
   7         1           2      0.000005    0.000003
   8         3           0      0.000001    0.000001    Roots Converged
 ---------------------------------------------------
 
 ---------------------------------------------------
         TDDFT/TDA Excitation Energies              
 ---------------------------------------------------

 Excited state   1: excitation energy (eV) =    4.8196
 Total energy for state  1:                  -363.22333408 au
    Multiplicity: Singlet
    Trans. Mom.:  0.7184 X  -0.6749 Y  -0.0002 Z
    Strength   :     0.1147205886
    D(   30) --> V(    3) amplitude = -0.2572
    D(   31) --> V(    1) amplitude =  0.9142

 Excited state   2: excitation energy (eV) =    4.8601
 Total energy for state  2:                  -363.22184635 au
    Multiplicity: Singlet
    Trans. Mom.:  0.3396 X   0.2620 Y  -0.0001 Z
    Strength   :     0.0219104978
    D(   30) --> V(    1) amplitude =  0.7841
    D(   31) --> V(    3) amplitude =  0.5952

 Excited state   3: excitation energy (eV) =    5.0125
 Total energy for state  3:                  -363.21624509 au
    Multiplicity: Singlet
    Trans. Mom.:  0.0010 X  -0.0004 Y   0.1455 Z
    Strength   :     0.0025992336
    D(   31) --> V(    2) amplitude =  0.9942
 
 ---------------------------------------------------
 Calculating Relaxed Density
 ---------------------------------------------------
 Iter    Rts Conv    Rts Left    Ttl Dev     Max Dev
 ---------------------------------------------------
   1         0           3      0.001446    0.000775
   2         0           3      0.000549    0.000253
   3         0           3      0.000142    0.000062
   4         0           3      0.000042    0.000021
   5         1           2      0.000008    0.000004
   6         1           2      0.000002    0.000001
   7         3           0      0.000000    0.000000    Roots Converged
 ---------------------------------------------------
  SETman timing summary (seconds)
  CPU time               121.76s
  System time              0.00s
  Wall time               33.64s
 
 --------------------------------------------------------------
 
                    Orbital Energies (a.u.)
 --------------------------------------------------------------
 
 Alpha MOs
 -- Occupied --
-14.4553 -10.2768 -10.2764 -10.2472 -10.2422 -10.2415 -10.2411 -10.2374
-10.2302  -1.0136  -0.8589  -0.8072  -0.7566  -0.7378  -0.6463  -0.6168
 -0.5987  -0.5567  -0.5036  -0.4854  -0.4514  -0.4466  -0.4381  -0.4213
 -0.4077  -0.3675  -0.3515  -0.3448  -0.2926  -0.2337  -0.2146
 -- Virtual --
 -0.0186   0.0053   0.0203   0.0248   0.0302   0.0451   0.0463   0.0507
  0.0672   0.0689   0.0738   0.0745   0.0930   0.0967   0.1145   0.1148
  0.1198   0.1340   0.1423   0.1461   0.1616   0.1652   0.1734   0.1738
  0.1800   0.1896   0.1947   0.1949   0.2042   0.2066   0.2085   0.2086
  0.2260   0.2311   0.2392   0.2425   0.2462   0.2521   0.2635   0.2697
  0.2787   0.2812   0.2868   0.3016   0.3051   0.3131   0.3244   0.3386
  0.3533   0.3707   0.3816   0.4033   0.4363   0.4580   0.5202   0.5771
  0.6129   0.6879   0.6918   0.7165   0.7274   0.7389   0.7438   0.7502
  0.7544   0.7707   0.7710   0.7931   0.8063   0.8089   0.8264   0.8686
  0.9066   0.9130   0.9253   0.9554   0.9612   0.9692   0.9765   1.0019
  1.0118   1.0460   1.0636   1.0766   1.1039   1.1251   1.1258   1.1828
  1.1905   1.2157   1.2366   1.2461   1.2554   1.3297   1.3299   1.3535
  1.3768   1.4161   1.4184   1.4524   1.4721   1.4829   1.5039   1.5065
  1.5513   1.5960   1.6532   1.7966   1.8381   1.9000   1.9031   1.9190
  1.9359   2.0018   2.0068   2.0186   2.0563   2.0720   2.1414   2.1529
  2.1677   2.2024   2.2466   2.2496   2.2698   2.2808   2.3147   2.3784
  2.4156   2.4629   2.5447   2.5609   2.6391   2.6458   2.6623   2.6908
  2.7330   2.8072   2.8439   2.8523   2.9719   2.9831   3.1088   3.2443
  3.4057   4.1733   4.2701   4.3204   4.3465   4.3865   4.4271   4.5038
  4.5457   4.7987
 --------------------------------------------------------------
 
          Ground-State Mulliken Net Atomic Charges

     Atom                 Charge (a.u.)
  ----------------------------------------
      1 C                    -0.031532
      2 C                    -0.473473
      3 C                    -0.230406
      4 C                    -1.114102
      5 C                     1.519189
      6 C                    -0.709983
      7 N                    -0.444957
      8 C                    -0.014810
      9 C                    -0.215877
     10 H                     0.437774
     11 H                     0.218637
     12 H                     0.220470
     13 H                     0.207032
     14 H                     0.210754
     15 H                     0.205212
     16 H                     0.216073
  ----------------------------------------
  Sum of atomic charges =     0.000000

 -----------------------------------------------------------------
                    Cartesian Multipole Moments
 -----------------------------------------------------------------
    Charge (ESU x 10^10)
                -0.0000
    Dipole Moment (Debye)
         X      -1.5823      Y       1.6252      Z       0.0010
       Tot       2.2682
    Quadrupole Moments (Debye-Ang)
        XX     -44.7302     XY      -3.3348     YY     -43.7578
        XZ      -0.0030     YZ       0.0031     ZZ     -59.1628
    Octopole Moments (Debye-Ang^2)
       XXX     -15.4059    XXY       8.7296    XYY      -7.7819
       YYY      10.7289    XXZ       0.0050    XYZ      -0.0059
       YYZ       0.0052    XZZ      -2.3107    YZZ       2.1445
       ZZZ       0.0001
    Hexadecapole Moments (Debye-Ang^3)
      XXXX    -809.7729   XXXY     -22.2842   XXYY    -197.1169
      XYYY     -19.7563   YYYY    -371.6152   XXXZ      -0.0169
      XXYZ       0.0142   XYYZ      -0.0123   YYYZ       0.0116
      XXZZ    -191.3738   XYZZ      -3.9687   YYZZ     -95.6063
      XZZZ      -0.0015   YZZZ       0.0009   ZZZZ     -73.0391
 -----------------------------------------------------------------
 Calculating analytic gradient of the CIS energy
 CIS relaxed dipole moment
            1
    1  -0.7673945
    2   0.5000014
    3   0.0002558
	Magnitude:	 0.916 au	 2.328 Debye
 CIS 2 State Energy is -363.2218463513
 Gradient of the state energy (including CIS Excitation Energy)
            1           2           3           4           5           6
    1   0.0005757  -0.0006114  -0.0022305   0.0053136  -0.0002367   0.0034054
    2   0.0048764  -0.0094421   0.0038231  -0.0130689   0.0092967  -0.0024276
    3  -0.0000024   0.0000013   0.0000011  -0.0000001   0.0000062   0.0000033
            7           8           9          10          11          12
    1  -0.0144077   0.0076378   0.0017026  -0.0006089  -0.0001012  -0.0000853
    2  -0.0062358  -0.0042448   0.0166999   0.0001710  -0.0000014   0.0001215
    3  -0.0000111  -0.0000052   0.0000037   0.0000052  -0.0000017   0.0000018
           13          14          15          16
    1   0.0000283  -0.0001435  -0.0000287  -0.0002095
    2   0.0001548  -0.0000300   0.0003077  -0.0000005
    3  -0.0000004  -0.0000008   0.0000001  -0.0000010
 Gradient time:  CPU 22.82 s  wall 5.74 s
 Geometry Optimization Parameters
   NAtoms,    NIC,     NZ,  NCons,   NDum,   NFix, NCnnct, MaxDiis
       16     116       0       0       0       0       0       0

 Cartesian Hessian Update
 Hessian updated using BFGS update


** GEOMETRY OPTIMIZATION IN DELOCALIZED INTERNAL COORDINATES **
   Searching for a Minimum

   Optimization Cycle:   4

                       Coordinates (Angstroms)
     ATOM                X               Y               Z
      1  C         2.1695017926   -0.6952730796   -0.0000243662
      2  C         2.1454273318    0.7272344120    0.0000667460
      3  C         0.9282119990    1.4490262125    0.0000060164
      4  C        -0.2498265182    0.6770557077   -0.0000762746
      5  C        -0.2534795192   -0.7688499134   -0.0000245581
      6  C         0.9746375100   -1.4652475131    0.0000324884
      7  N        -1.5691211272    1.0757947299   -0.0001336781
      8  C        -1.6155545792   -1.1690519230   -0.0000193251
      9  C        -2.4037502401   -0.0191233780    0.0000743963
     10  H        -1.8815549040    2.0344819893    0.0006498543
     11  H        -1.9941726209   -2.1829999480   -0.0000728148
     12  H        -3.4782373866    0.0962158318    0.0001230731
     13  H         3.0853950042    1.2707314730    0.0000959835
     14  H         0.9096158402    2.5343592922   -0.0000785673
     15  H         3.1300123948   -1.2017964931   -0.0001190889
     16  H         1.0059899739   -2.5500049076    0.0000260962
   Point Group: c1    Number of degrees of freedom:    42


   Energy is   -363.221846351

 Hessian updated using BFGS update

 40 Hessian modes will be used to form the next step
  Hessian Eigenvalues:
     0.018594    0.019738    0.020011    0.020794    0.021683    0.022200
     0.022636    0.023004    0.023236    0.023608    0.023851    0.023984
     0.024127    0.158277    0.159738    0.160000    0.160007    0.160407
     0.191243    0.221232    0.228355    0.246310    0.275521    0.343469
     0.357146    0.357458    0.357864    0.360650    0.364060    0.368614
     0.373846    0.420116    0.427209    0.441419    0.456647    0.471702
     0.472780    0.485377    0.539691    1.611828

 Minimum search - taking simple RFO step
 Searching for Lamda that Minimizes Along All modes
 Value Taken    Lamda =  -0.00055289
 Step Taken.  Stepsize is  0.035929

                             Maximum     Tolerance    Cnvgd?
         Gradient           0.010201      0.000300      NO
         Displacement       0.014195      0.001200      NO
         Energy change     -0.000548      0.000001      NO


 New Cartesian Coordinates Obtained by Inverse Iteration

 Displacement from previous Coordinates is:  0.046128
 ----------------------------------------------------------------
             Standard Nuclear Orientation (Angstroms)
    I     Atom           X                Y                Z
 ----------------------------------------------------------------
    1      C       2.1630440499    -0.6963367064    -0.0000220689
    2      C       2.1406044971     0.7310232903     0.0000716354
    3      C       0.9290297520     1.4497450456     0.0000122439
    4      C      -0.2508537496     0.6808262673    -0.0000587029
    5      C      -0.2563406897    -0.7722659286    -0.0000366793
    6      C       0.9702142939    -1.4649158958    -0.0000051629
    7      N      -1.5644541962     1.0814301717    -0.0001331251
    8      C      -1.6147185702    -1.1725648189    -0.0000037871
    9      C      -2.3946438092    -0.0239447758     0.0001183571
   10      H      -1.8778747178     2.0390083187     0.0005362702
   11      H      -1.9937093338    -2.1856927008    -0.0000520511
   12      H      -3.4684918977     0.0909532341     0.0001579238
   13      H       3.0800540653     1.2742323696     0.0001278546
   14      H       0.9132033836     2.5345710509    -0.0000560530
   15      H       3.1222844810    -1.2045920469    -0.0001096893
   16      H       1.0057473926    -2.5489243824    -0.0000209843
 ----------------------------------------------------------------
 Molecular Point Group                 C1    NOp =  1
 Largest Abelian Subgroup              C1    NOp =  1
 Nuclear Repulsion Energy =         397.77680847 hartrees
 There are       31 alpha and       31 beta electrons
 Applying Cartesian multipole field
    Component          Value
    ---------          -----
     (2,0,0)        1.00000E-11
     (0,2,0)        2.00000E-11
     (0,0,2)       -3.00000E-11
 Nucleus-field energy     =     0.0000000119 hartrees
 Requested basis set is 6-31+G(d)
 There are 59 shells and 185 basis functions
 A cutoff of  1.0D-12 yielded   1656 shell pairs
 There are     17099 function pairs
 Smallest overlap matrix eigenvalue = 1.41E-06
 Guess MOs from SCF MO coefficient file

 -----------------------------------------------------------------------
  General SCF calculation program by
  Eric Jon Sundstrom, Paul Horn, Yuezhi Mao, Dmitri Zuev, Alec White,
  David Stuck, Shaama M.S., Shane Yost, Joonho Lee, David Small,
  Daniel Levine, Susi Lehtola, Hugh Burton, Evgeny Epifanovsky,
  Bang C. Huynh
 -----------------------------------------------------------------------
 Exchange:     0.2500 Hartree-Fock + 0.7500 PBE
 Correlation:  1.0000 PBE
 Using SG-1 standard quadrature grid
 using 4 threads for integral computing
 -------------------------------------------------------
 OpenMP Integral computing Module                
 Release: version 1.0, May 2013, Q-Chem Inc. Pittsburgh 
 -------------------------------------------------------
 A restricted SCF calculation will be
 performed using DIIS
 SCF converges when DIIS error is below 1.0e-08
 ---------------------------------------
  Cycle       Energy         DIIS error
 ---------------------------------------
    1    -363.4005532471      1.71e-04  
    2    -363.4007008828      4.27e-05  
    3    -363.4007002753      4.42e-05  
    4    -363.4007081969      7.18e-06  
    5    -363.4007083789      3.15e-06  
    6    -363.4007084155      8.53e-07  
    7    -363.4007084186      3.52e-07  
    8    -363.4007084192      1.10e-07  
    9    -363.4007084192      4.48e-08  
   10    -363.4007084192      1.18e-08  
   11    -363.4007084192      4.95e-09  Convergence criterion met
 ---------------------------------------
 SCF time:   CPU 33.97s  wall 9.00s 
 SCF   energy in the final basis set =     -363.4007084192
 Total energy in the final basis set =     -363.4007084192
 
 Direct TDDFT/TDA calculation will be performed
 Exchange:     0.2500 Hartree-Fock + 0.7500 PBE
 Correlation:  1.0000 PBE
 Using SG-1 standard quadrature grid
 Singlet excitation energies requested
 CIS energy converged when residual is below 10e- 6
 ---------------------------------------------------
 Iter    Rts Conv    Rts Left    Ttl Dev     Max Dev
 ---------------------------------------------------
   1         0           3      0.003725    0.001852
   2         0           3      0.001525    0.000775
   3         0           3      0.000317    0.000185
   4         0           3      0.000129    0.000077
   5         0           3      0.000044    0.000028
   6         1           2      0.000011    0.000006
   7         1           2      0.000005    0.000003
   8         3           0      0.000001    0.000001    Roots Converged
 ---------------------------------------------------
 
 ---------------------------------------------------
         TDDFT/TDA Excitation Energies              
 ---------------------------------------------------

 Excited state   1: excitation energy (eV) =    4.8582
 Total energy for state  1:                  -363.22217242 au
    Multiplicity: Singlet
    Trans. Mom.:  0.4454 X   0.2037 Y  -0.0001 Z
    Strength   :     0.0285568307
    D(   30) --> V(    1) amplitude =  0.7834
    D(   31) --> V(    3) amplitude =  0.5978

 Excited state   2: excitation energy (eV) =    4.8845
 Total energy for state  2:                  -363.22120553 au
    Multiplicity: Singlet
    Trans. Mom.:  0.6721 X  -0.6770 Y  -0.0002 Z
    Strength   :     0.1089047177
    D(   30) --> V(    3) amplitude = -0.2771
    D(   31) --> V(    1) amplitude =  0.9086

 Excited state   3: excitation energy (eV) =    5.0517
 Total energy for state  3:                  -363.21506189 au
    Multiplicity: Singlet
    Trans. Mom.:  0.0009 X  -0.0005 Y   0.1478 Z
    Strength   :     0.0027044666
    D(   31) --> V(    2) amplitude =  0.9942
 
 ---------------------------------------------------
 Calculating Relaxed Density
 ---------------------------------------------------
 Iter    Rts Conv    Rts Left    Ttl Dev     Max Dev
 ---------------------------------------------------
   1         0           3      0.001412    0.000760
   2         0           3      0.000520    0.000253
   3         0           3      0.000140    0.000068
   4         0           3      0.000041    0.000024
   5         0           3      0.000009    0.000004
   6         3           0      0.000000    0.000000    Roots Converged
 ---------------------------------------------------
  SETman timing summary (seconds)
  CPU time               117.78s
  System time              0.00s
  Wall time               30.57s
 
 --------------------------------------------------------------
 
                    Orbital Energies (a.u.)
 --------------------------------------------------------------
 
 Alpha MOs
 -- Occupied --
-14.4555 -10.2763 -10.2762 -10.2461 -10.2414 -10.2409 -10.2408 -10.2369
-10.2301  -1.0136  -0.8586  -0.8091  -0.7556  -0.7386  -0.6457  -0.6175
 -0.5992  -0.5566  -0.5038  -0.4846  -0.4520  -0.4471  -0.4382  -0.4218
 -0.4071  -0.3678  -0.3506  -0.3444  -0.2943  -0.2319  -0.2160
 -- Virtual --
 -0.0174   0.0054   0.0200   0.0248   0.0301   0.0452   0.0463   0.0511
  0.0673   0.0690   0.0739   0.0746   0.0929   0.0969   0.1147   0.1149
  0.1201   0.1339   0.1425   0.1459   0.1617   0.1655   0.1733   0.1740
  0.1798   0.1901   0.1949   0.1951   0.2039   0.2065   0.2085   0.2090
  0.2260   0.2318   0.2391   0.2424   0.2466   0.2518   0.2641   0.2697
  0.2785   0.2808   0.2875   0.3016   0.3055   0.3142   0.3246   0.3385
  0.3525   0.3720   0.3833   0.4041   0.4382   0.4579   0.5206   0.5767
  0.6129   0.6884   0.6920   0.7165   0.7260   0.7384   0.7449   0.7519
  0.7549   0.7709   0.7710   0.7934   0.8077   0.8092   0.8278   0.8688
  0.9073   0.9136   0.9273   0.9548   0.9616   0.9696   0.9764   1.0026
  1.0121   1.0463   1.0640   1.0763   1.1041   1.1244   1.1258   1.1827
  1.1920   1.2153   1.2370   1.2463   1.2553   1.3304   1.3306   1.3528
  1.3779   1.4174   1.4205   1.4524   1.4688   1.4836   1.5045   1.5081
  1.5503   1.5982   1.6577   1.7940   1.8393   1.9024   1.9037   1.9199
  1.9353   2.0008   2.0090   2.0212   2.0592   2.0756   2.1420   2.1545
  2.1676   2.1996   2.2434   2.2535   2.2686   2.2837   2.3165   2.3807
  2.4209   2.4632   2.5479   2.5621   2.6407   2.6469   2.6631   2.6938
  2.7329   2.8096   2.8472   2.8518   2.9730   2.9856   3.1148   3.2444
  3.4080   4.1731   4.2712   4.3227   4.3467   4.3877   4.4270   4.5045
  4.5461   4.7992
 --------------------------------------------------------------
 
          Ground-State Mulliken Net Atomic Charges

     Atom                 Charge (a.u.)
  ----------------------------------------
      1 C                    -0.029066
      2 C                    -0.479286
      3 C                    -0.222212
      4 C                    -1.102676
      5 C                     1.497509
      6 C                    -0.720585
      7 N                    -0.445958
      8 C                     0.012078
      9 C                    -0.224660
     10 H                     0.438417
     11 H                     0.219694
     12 H                     0.219108
     13 H                     0.206827
     14 H                     0.210448
     15 H                     0.204659
     16 H                     0.215703
  ----------------------------------------
  Sum of atomic charges =     0.000000

 -----------------------------------------------------------------
                    Cartesian Multipole Moments
 -----------------------------------------------------------------
    Charge (ESU x 10^10)
                -0.0000
    Dipole Moment (Debye)
         X      -1.6025      Y       1.6081      Z       0.0009
       Tot       2.2702
    Quadrupole Moments (Debye-Ang)
        XX     -44.8701     XY      -3.2510     YY     -43.6574
        XZ      -0.0025     YZ       0.0027     ZZ     -59.1264
    Octopole Moments (Debye-Ang^2)
       XXX     -15.1276    XXY       8.5982    XYY      -7.9461
       YYY      10.6743    XXZ       0.0046    XYZ      -0.0048
       YYZ       0.0040    XZZ      -2.3417    YZZ       2.1039
       ZZZ      -0.0006
    Hexadecapole Moments (Debye-Ang^3)
      XXXX    -808.8378   XXXY     -22.0416   XXYY    -196.1702
      XYYY     -20.0663   YYYY    -372.2993   XXXZ      -0.0124
      XXYZ       0.0122   XYYZ      -0.0095   YYYZ       0.0093
      XXZZ    -190.5253   XYZZ      -4.0293   YYZZ     -95.7108
      XZZZ       0.0013   YZZZ      -0.0003   ZZZZ     -72.9115
 -----------------------------------------------------------------
 Calculating analytic gradient of the CIS energy
 CIS relaxed dipole moment
            1
    1  -1.7528107
    2   0.5113944
    3  -0.0006641
	Magnitude:	 1.826 au	 4.641 Debye
 CIS 2 State Energy is -363.2212055349
 Gradient of the state energy (including CIS Excitation Energy)
            1           2           3           4           5           6
    1  -0.0012545  -0.0145612   0.0215500  -0.0214516  -0.0075214  -0.0072759
    2  -0.0314676   0.0431267  -0.0093563   0.0339569  -0.0379167   0.0061137
    3  -0.0000038   0.0000075  -0.0000085   0.0000064   0.0000031   0.0000013
            7           8           9          10          11          12
    1   0.0251397  -0.0117408   0.0141600   0.0019874   0.0011142   0.0006772
    2   0.0310334   0.0092483  -0.0424723  -0.0023016   0.0002406  -0.0004863
    3  -0.0000241   0.0000026   0.0000105   0.0000052  -0.0000012  -0.0000008
           13          14          15          16
    1  -0.0010167   0.0007293  -0.0006004   0.0000646
    2   0.0001516  -0.0007835  -0.0001284   0.0010415
    3   0.0000013   0.0000033  -0.0000030   0.0000003
 Gradient time:  CPU 22.78 s  wall 5.73 s
 Geometry Optimization Parameters
   NAtoms,    NIC,     NZ,  NCons,   NDum,   NFix, NCnnct, MaxDiis
       16     116       0       0       0       0       0       0

 Cartesian Hessian Update
 Hessian updated using BFGS update


** GEOMETRY OPTIMIZATION IN DELOCALIZED INTERNAL COORDINATES **
   Searching for a Minimum

   Optimization Cycle:   5

                       Coordinates (Angstroms)
     ATOM                X               Y               Z
      1  C         2.1630440499   -0.6963367064   -0.0000220689
      2  C         2.1406044971    0.7310232903    0.0000716354
      3  C         0.9290297520    1.4497450456    0.0000122439
      4  C        -0.2508537496    0.6808262673   -0.0000587029
      5  C        -0.2563406897   -0.7722659286   -0.0000366793
      6  C         0.9702142939   -1.4649158958   -0.0000051629
      7  N        -1.5644541962    1.0814301717   -0.0001331251
      8  C        -1.6147185702   -1.1725648189   -0.0000037871
      9  C        -2.3946438092   -0.0239447758    0.0001183571
     10  H        -1.8778747178    2.0390083187    0.0005362702
     11  H        -1.9937093338   -2.1856927008   -0.0000520511
     12  H        -3.4684918977    0.0909532341    0.0001579238
     13  H         3.0800540653    1.2742323696    0.0001278546
     14  H         0.9132033836    2.5345710509   -0.0000560530
     15  H         3.1222844810   -1.2045920469   -0.0001096893
     16  H         1.0057473926   -2.5489243824   -0.0000209843
   Point Group: c1    Number of degrees of freedom:    42


   Energy is   -363.221205535

 Hessian updated using BFGS update

 42 Hessian modes will be used to form the next step
  Hessian Eigenvalues:
     0.018593    0.019738    0.020011    0.020794    0.021683    0.022200
     0.022636    0.023004    0.023236    0.023608    0.023851    0.023984
     0.024127    0.158767    0.159856    0.160000    0.160000    0.160001
     0.160243    0.160403    0.218895    0.222767    0.241244    0.246099
     0.289165    0.357120    0.357175    0.357733    0.357854    0.363627
     0.364152    0.372946    0.403676    0.424828    0.427178    0.453898
     0.455990    0.471694    0.474258    0.486139    0.975949    3.015777

 Minimum search - taking simple RFO step
 Searching for Lamda that Minimizes Along All modes
 Value Taken    Lamda =  -0.00195644
 Step Taken.  Stepsize is  0.034063

                             Maximum     Tolerance    Cnvgd?
         Gradient           0.023417      0.000300      NO
         Displacement       0.015468      0.001200      NO
         Energy change      0.000641      0.000001      NO


 New Cartesian Coordinates Obtained by Inverse Iteration

 Displacement from previous Coordinates is:  0.047416
 ----------------------------------------------------------------
             Standard Nuclear Orientation (Angstroms)
    I     Atom           X                Y                Z
 ----------------------------------------------------------------
    1      C       2.1688997367    -0.6938162795    -0.0000273505
    2      C       2.1469184250     0.7287243028     0.0000538093
    3      C       0.9286837218     1.4489063980     0.0000164736
    4      C      -0.2496100368     0.6774105962    -0.0000493164
    5      C      -0.2548119922    -0.7701142934    -0.0000290867
    6      C       0.9737870273    -1.4645167008     0.0000055909
    7      N      -1.5670056370     1.0747960986    -0.0000849217
    8      C      -1.6178565344    -1.1696101962     0.0000095741
    9      C      -2.4052619421    -0.0209686562     0.0000738530
   10      H      -1.8785946432     2.0338940950     0.0005928130
   11      H      -1.9967897749    -2.1834001305    -0.0000338803
   12      H      -3.4795174056     0.0963101668     0.0000783496
   13      H       3.0872004543     1.2716986963     0.0000918943
[...]
    1  -0.0205859  -0.0169458  -0.0055673  -0.0017773  -0.0101071   0.0149085
    2  -0.0331687   0.0258142  -0.0357303   0.0459558  -0.0320244   0.0296410
    3   0.0000302   0.0000204  -0.0000536   0.0003396   0.0002129   0.0000864
            7           8           9          10          11          12
    1   0.0110821   0.0071316   0.0435605  -0.0162012   0.0005773  -0.0038274
    2  -0.0425470  -0.0022929   0.0084872   0.0355636  -0.0013505   0.0040745
    3  -0.0004288  -0.0007295   0.0007011  -0.0001584  -0.0000045   0.0000683
           13          14          15          16
    1  -0.0008382  -0.0016334  -0.0007478   0.0009713
    2  -0.0003187  -0.0020675  -0.0006186   0.0005824
    3   0.0000069  -0.0000275  -0.0000219  -0.0000417
 Gradient time:  CPU 22.34 s  wall 5.62 s
 Geometry Optimization Parameters
   NAtoms,    NIC,     NZ,  NCons,   NDum,   NFix, NCnnct, MaxDiis
       16     116       0       0       0       0       0       0

 Cartesian Hessian Update
 Hessian updated using BFGS update


** GEOMETRY OPTIMIZATION IN DELOCALIZED INTERNAL COORDINATES **
   Searching for a Minimum

   Optimization Cycle:  49

                       Coordinates (Angstroms)
     ATOM                X               Y               Z
      1  C         2.1628184445   -0.7127788037    0.0007607381
      2  C         2.1141826330    0.7029493180    0.0002984584
      3  C         0.9068209416    1.4129953062    0.0002442424
      4  C        -0.2564570415    0.6789741926   -0.0000824038
      5  C        -0.2416413421   -0.7657369877   -0.0004402910
      6  C         0.9935776969   -1.4500781561    0.0008917232
      7  N        -1.5786109331    1.0766350048   -0.0016366192
      8  C        -1.5741093527   -1.1758908096   -0.0030578176
      9  C        -2.3543247416    0.0116586479    0.0037455776
     10  H        -1.9453079031    2.0712761534   -0.0031930641
     11  H        -1.9675926408   -2.1854115629   -0.0040179678
     12  H        -3.4360734937    0.1379312515    0.0058285055
     13  H         3.0459544920    1.2610430064   -0.0000207209
     14  H         0.8887031280    2.4969115125    0.0000049945
     15  H         3.1263568508   -1.2120645806    0.0006615529
     16  H         1.0187982131   -2.5358610001    0.0005390729
   Point Group: c1    Number of degrees of freedom:    42


   Energy is   -363.218457050

 Hessian updated using BFGS update

 42 Hessian modes will be used to form the next step
  Hessian Eigenvalues:
     0.018597    0.019764    0.020026    0.020796    0.021882    0.022245
     0.022638    0.023009    0.023238    0.023614    0.023853    0.023984
     0.024128    0.156787    0.159311    0.159879    0.160084    0.160114
     0.160448    0.161701    0.218243    0.230992    0.245454    0.253169
     0.276930    0.357009    0.357411    0.357714    0.358052    0.364046
     0.364417    0.372743    0.408824    0.424765    0.429307    0.458909
     0.464204    0.477088    0.522136    0.633213    1.038531   17.332270

 Minimum search - taking simple RFO step
 Searching for Lamda that Minimizes Along All modes
 Value Taken    Lamda =  -0.00609554
 Step Taken.  Stepsize is  0.085402

                             Maximum     Tolerance    Cnvgd?
         Gradient           0.039724      0.000300      NO
         Displacement       0.036985      0.001200      NO
         Energy change      0.003599      0.000001      NO


 New Cartesian Coordinates Obtained by Inverse Iteration

 Displacement from previous Coordinates is:  0.103994
 ----------------------------------------------------------------
             Standard Nuclear Orientation (Angstroms)
    I     Atom           X                Y                Z
 ----------------------------------------------------------------
    1      C       2.1663088631    -0.7093827068    -0.0003495985
    2      C       2.1200701782     0.7086126533    -0.0002884398
    3      C       0.9157302553     1.4291031118     0.0004807442
    4      C      -0.2554073584     0.6756566967     0.0004479329
    5      C      -0.2436092765    -0.7645163382     0.0001582062
    6      C       0.9881933288    -1.4600565433     0.0002100429
    7      N      -1.5820104253     1.0782403407     0.0002383772
    8      C      -1.5831486182    -1.1707301789     0.0001540651
    9      C      -2.3713395587     0.0057615726     0.0002186841
   10      H      -1.9258418280     2.0568342766    -0.0002612903
   11      H      -1.9734129682    -2.1811253792    -0.0001732937
   12      H      -3.4513115599     0.1201357534    -0.0005595256
   13      H       3.0557052838     1.2612468276    -0.0005408987
   14      H       0.9001051390     2.5135757889     0.0009068512
   15      H       3.1317021116    -1.2054086651    -0.0005807186
   16      H       1.0113613848    -2.5453947175     0.0004648427
 ----------------------------------------------------------------
 Molecular Point Group                 C1    NOp =  1
 Largest Abelian Subgroup              C1    NOp =  1
 Nuclear Repulsion Energy =         399.65206693 hartrees
 There are       31 alpha and       31 beta electrons
 Applying Cartesian multipole field
    Component          Value
    ---------          -----
     (2,0,0)        1.00000E-11
     (0,2,0)        2.00000E-11
     (0,0,2)       -3.00000E-11
 Nucleus-field energy     =     0.0000000118 hartrees
 Requested basis set is 6-31+G(d)
 There are 59 shells and 185 basis functions
 A cutoff of  1.0D-12 yielded   1657 shell pairs
 There are     17105 function pairs
 Smallest overlap matrix eigenvalue = 1.30E-06
 Guess MOs from SCF MO coefficient file

 -----------------------------------------------------------------------
  General SCF calculation program by
  Eric Jon Sundstrom, Paul Horn, Yuezhi Mao, Dmitri Zuev, Alec White,
  David Stuck, Shaama M.S., Shane Yost, Joonho Lee, David Small,
  Daniel Levine, Susi Lehtola, Hugh Burton, Evgeny Epifanovsky,
  Bang C. Huynh
 -----------------------------------------------------------------------
 Exchange:     0.2500 Hartree-Fock + 0.7500 PBE
 Correlation:  1.0000 PBE
 Using SG-1 standard quadrature grid
 using 4 threads for integral computing
 -------------------------------------------------------
 OpenMP Integral computing Module                
 Release: version 1.0, May 2013, Q-Chem Inc. Pittsburgh 
 -------------------------------------------------------
 A restricted SCF calculation will be
 performed using DIIS
 SCF converges when DIIS error is below 1.0e-08
 ---------------------------------------
  Cycle       Energy         DIIS error
 ---------------------------------------
    1    -363.3971638548      4.26e-04  
    2    -363.3980495127      1.04e-04  
    3    -363.3980355524      1.19e-04  
    4    -363.3980914584      2.56e-05  
    5    -363.3980937455      1.06e-05  
    6    -363.3980942525      2.47e-06  
    7    -363.3980942788      9.03e-07  
    8    -363.3980942825      3.62e-07  
    9    -363.3980942831      8.31e-08  
   10    -363.3980942832      3.99e-08  
   11    -363.3980942832      1.29e-08  
   12    -363.3980942832      3.28e-09  Convergence criterion met
 ---------------------------------------
 SCF time:   CPU 36.53s  wall 9.00s 
 SCF   energy in the final basis set =     -363.3980942832
 Total energy in the final basis set =     -363.3980942832
 
 Direct TDDFT/TDA calculation will be performed
 Exchange:     0.2500 Hartree-Fock + 0.7500 PBE
 Correlation:  1.0000 PBE
 Using SG-1 standard quadrature grid
 Singlet excitation energies requested
 CIS energy converged when residual is below 10e- 6
 ---------------------------------------------------
 Iter    Rts Conv    Rts Left    Ttl Dev     Max Dev
 ---------------------------------------------------
   1         0           3      0.003717    0.001839
   2         0           3      0.001738    0.001160
   3         0           3      0.000453    0.000325
   4         0           3      0.000179    0.000129
   5         0           3      0.000059    0.000042
   6         1           2      0.000015    0.000011
   7         1           2      0.000006    0.000005
   8         2           1      0.000002    0.000001
   9         3           0      0.000001    0.000000    Roots Converged
 ---------------------------------------------------
 
 ---------------------------------------------------
         TDDFT/TDA Excitation Energies              
 ---------------------------------------------------

 Excited state   1: excitation energy (eV) =    4.7435
 Total energy for state  1:                  -363.22377404 au
    Multiplicity: Singlet
    Trans. Mom.: -0.0123 X   0.0081 Y  -0.1389 Z
    Strength   :     0.0022673776
    D(   31) --> V(    2) amplitude =  0.9950

 Excited state   2: excitation energy (eV) =    4.7565
 Total energy for state  2:                  -363.22329440 au
    Multiplicity: Singlet
    Trans. Mom.: -0.9078 X   0.5736 Y   0.0022 Z
    Strength   :     0.1343774116
    D(   30) --> V(    3) amplitude =  0.2430
    D(   31) --> V(    1) amplitude =  0.8850
    D(   31) --> V(    3) amplitude =  0.2837

 Excited state   3: excitation energy (eV) =    4.9818
 Total energy for state  3:                  -363.21501715 au
    Multiplicity: Singlet
    Trans. Mom.: -0.1792 X   0.3246 Y  -0.0000 Z
    Strength   :     0.0167791158
    D(   30) --> V(    1) amplitude =  0.7306
    D(   31) --> V(    1) amplitude =  0.2446
    D(   31) --> V(    3) amplitude = -0.6010
 
 ---------------------------------------------------
 Calculating Relaxed Density
 ---------------------------------------------------
 Iter    Rts Conv    Rts Left    Ttl Dev     Max Dev
 ---------------------------------------------------
   1         0           3      0.001508    0.000736
   2         0           3      0.000580    0.000258
   3         0           3      0.000150    0.000069
   4         0           3      0.000040    0.000018
   5         1           2      0.000008    0.000005
   6         2           1      0.000001    0.000001
   7         3           0      0.000000    0.000000    Roots Converged
 ---------------------------------------------------
  SETman timing summary (seconds)
  CPU time               122.24s
  System time              0.00s
  Wall time               30.73s
 
 --------------------------------------------------------------
 
                    Orbital Energies (a.u.)
 --------------------------------------------------------------
 
 Alpha MOs
 -- Occupied --
-14.4608 -10.2748 -10.2729 -10.2440 -10.2383 -10.2376 -10.2369 -10.2344
-10.2268  -1.0227  -0.8644  -0.8060  -0.7631  -0.7336  -0.6469  -0.6175
 -0.5995  -0.5587  -0.5012  -0.4859  -0.4556  -0.4479  -0.4436  -0.4175
 -0.4034  -0.3682  -0.3495  -0.3494  -0.2920  -0.2387  -0.2085
 -- Virtual --
 -0.0150   0.0018   0.0228   0.0245   0.0308   0.0455   0.0467   0.0524
  0.0670   0.0690   0.0734   0.0746   0.0933   0.0967   0.1148   0.1157
  0.1191   0.1340   0.1430   0.1437   0.1602   0.1658   0.1733   0.1753
  0.1816   0.1888   0.1956   0.1968   0.2031   0.2092   0.2098   0.2108
  0.2272   0.2322   0.2415   0.2417   0.2462   0.2539   0.2621   0.2703
  0.2797   0.2807   0.2897   0.3053   0.3074   0.3143   0.3286   0.3440
  0.3602   0.3722   0.3842   0.4030   0.4429   0.4601   0.5269   0.5845
  0.6242   0.6903   0.6922   0.7155   0.7337   0.7390   0.7453   0.7542
  0.7593   0.7730   0.7789   0.7939   0.8103   0.8122   0.8313   0.8708
  0.9043   0.9137   0.9262   0.9557   0.9628   0.9715   0.9759   1.0029
  1.0177   1.0426   1.0591   1.0634   1.1041   1.1252   1.1289   1.1877
  1.1922   1.2176   1.2380   1.2453   1.2579   1.3264   1.3416   1.3560
  1.3797   1.4223   1.4252   1.4596   1.4697   1.4824   1.5053   1.5144
  1.5589   1.5955   1.6670   1.7811   1.8446   1.9054   1.9111   1.9284
  1.9407   1.9962   2.0128   2.0256   2.0727   2.0967   2.1553   2.1740
  2.1790   2.1950   2.2497   2.2682   2.2780   2.3108   2.3287   2.3942
  2.4311   2.4745   2.5511   2.5754   2.6525   2.6625   2.6657   2.7043
  2.7428   2.8210   2.8579   2.8627   2.9710   2.9970   3.1208   3.2574
  3.4357   4.1828   4.2815   4.3246   4.3430   4.3890   4.4312   4.5088
  4.5496   4.8098
 --------------------------------------------------------------
 
          Ground-State Mulliken Net Atomic Charges

     Atom                 Charge (a.u.)
  ----------------------------------------
      1 C                    -0.029535
      2 C                    -0.496072
      3 C                    -0.209711
      4 C                    -1.115715
      5 C                     1.505373
      6 C                    -0.690548
      7 N                    -0.410257
      8 C                    -0.032017
      9 C                    -0.229307
     10 H                     0.439097
     11 H                     0.217280
     12 H                     0.216448
     13 H                     0.203639
     14 H                     0.209738
     15 H                     0.206681
     16 H                     0.214907
  ----------------------------------------
  Sum of atomic charges =     0.000000

 -----------------------------------------------------------------
                    Cartesian Multipole Moments
 -----------------------------------------------------------------
    Charge (ESU x 10^10)
                -0.0000
    Dipole Moment (Debye)
         X      -1.6394      Y       1.8039      Z      -0.0014
       Tot       2.4375
    Quadrupole Moments (Debye-Ang)
        XX     -44.8828     XY      -4.0267     YY     -43.6699
        XZ       0.0036     YZ      -0.0003     ZZ     -59.0044
    Octopole Moments (Debye-Ang^2)
       XXX     -15.2292    XXY       9.5529    XYY      -8.7189
       YYY      11.8576    XXZ      -0.0259    XYZ       0.0020
       YYZ      -0.0060    XZZ      -2.2764    YZZ       2.3750
       ZZZ      -0.0212
    Hexadecapole Moments (Debye-Ang^3)
      XXXX    -804.8536   XXXY     -23.1289   XXYY    -193.4210
      XYYY     -17.6489   YYYY    -369.0647   XXXZ       0.0541
      XXYZ      -0.0084   XYYZ       0.0248   YYYZ      -0.0118
      XXZZ    -188.8623   XYZZ      -2.6330   YYZZ     -94.9682
      XZZZ       0.0389   YZZZ      -0.0142   ZZZZ     -72.6822
 -----------------------------------------------------------------
 Calculating analytic gradient of the CIS energy
 CIS relaxed dipole moment
            1
    1  -1.8067717
    2   0.6502368
    3  -0.0144229
	Magnitude:	 1.920 au	 4.881 Debye
 CIS 2 State Energy is -363.2232944007
 Gradient of the state energy (including CIS Excitation Energy)
            1           2           3           4           5           6
    1  -0.0114154  -0.0141047   0.0033812  -0.0075069  -0.0093853   0.0072061
    2  -0.0278850   0.0260923  -0.0236573   0.0358361  -0.0293190   0.0195229
    3   0.0000193  -0.0000419  -0.0000858   0.0001490  -0.0001097  -0.0000969
            7           8           9          10          11          12
    1   0.0123178   0.0033031   0.0285450  -0.0091048   0.0005177  -0.0023257
    2  -0.0181741   0.0008209  -0.0046910   0.0211054  -0.0008202   0.0022752
    3   0.0001346   0.0000674  -0.0000072  -0.0001174  -0.0000047  -0.0000364
           13          14          15          16
    1  -0.0006294  -0.0008870  -0.0004539   0.0005423
    2  -0.0001457  -0.0010794  -0.0003182   0.0004370
    3   0.0000079   0.0000532   0.0000248   0.0000440
 Gradient time:  CPU 22.39 s  wall 5.63 s
 Geometry Optimization Parameters
   NAtoms,    NIC,     NZ,  NCons,   NDum,   NFix, NCnnct, MaxDiis
       16     116       0       0       0       0       0       0

 Cartesian Hessian Update
 Hessian updated using BFGS update


** GEOMETRY OPTIMIZATION IN DELOCALIZED INTERNAL COORDINATES **
   Searching for a Minimum

   Optimization Cycle:  50

                       Coordinates (Angstroms)
     ATOM                X               Y               Z
      1  C         2.1663088631   -0.7093827068   -0.0003495985
      2  C         2.1200701782    0.7086126533   -0.0002884398
      3  C         0.9157302553    1.4291031118    0.0004807442
      4  C        -0.2554073584    0.6756566967    0.0004479329
      5  C        -0.2436092765   -0.7645163382    0.0001582062
      6  C         0.9881933288   -1.4600565433    0.0002100429
      7  N        -1.5820104253    1.0782403407    0.0002383772
      8  C        -1.5831486182   -1.1707301789    0.0001540651
      9  C        -2.3713395587    0.0057615726    0.0002186841
     10  H        -1.9258418280    2.0568342766   -0.0002612903
     11  H        -1.9734129682   -2.1811253792   -0.0001732937
     12  H        -3.4513115599    0.1201357534   -0.0005595256
     13  H         3.0557052838    1.2612468276   -0.0005408987
     14  H         0.9001051390    2.5135757889    0.0009068512
     15  H         3.1317021116   -1.2054086651   -0.0005807186
     16  H         1.0113613848   -2.5453947175    0.0004648427
   Point Group: c1    Number of degrees of freedom:    42


   Energy is   -363.223294401

 Hessian updated using BFGS update

 42 Hessian modes will be used to form the next step
  Hessian Eigenvalues:
     0.018595    0.019773    0.020032    0.020796    0.021956    0.022278
     0.022640    0.023012    0.023238    0.023616    0.023853    0.023984
     0.024128    0.154899    0.158053    0.159507    0.160082    0.160103
     0.160282    0.161389    0.214830    0.222536    0.244683    0.247225
     0.270122    0.356144    0.357334    0.357712    0.358030    0.363947
     0.364369    0.368164    0.408465    0.413744    0.426223    0.434606
     0.462592    0.475659    0.500276    0.548512    0.664371   17.171367

 Minimum search - taking simple RFO step
 Searching for Lamda that Minimizes Along All modes
 Value Taken    Lamda =  -0.00526920
 Step Taken.  Stepsize is  0.125958

                             Maximum     Tolerance    Cnvgd?
         Gradient           0.028537      0.000300      NO
         Displacement       0.058587      0.001200      NO
         Energy change     -0.004837      0.000001      NO


 New Cartesian Coordinates Obtained by Inverse Iteration

 Displacement from previous Coordinates is:  0.148092
 ----------------------------------------------------------------
             Standard Nuclear Orientation (Angstroms)
    I     Atom           X                Y                Z
 ----------------------------------------------------------------
    1      C       2.1699033105    -0.7058274534     0.0019879192
    2      C       2.1253718708     0.7169323307     0.0018369356
    3      C       0.9270044209     1.4542050026    -0.0011788717
    4      C      -0.2527105904     0.6697239628    -0.0022172448
    5      C      -0.2436855392    -0.7631380197    -0.0010160536
    6      C       0.9816327907    -1.4786021132     0.0008391343
    7      N      -1.5874905564     1.0810397722    -0.0031263029
    8      C      -1.5943280796    -1.1621550423    -0.0042134295
    9      C      -2.3937469093    -0.0001714666     0.0032065681
   10      H      -1.8989087357     2.0350353694    -0.0001886818
   11      H      -1.9811320804    -2.1733043083    -0.0040142519
   12      H      -3.4712640355     0.0963621904     0.0089734644
   13      H       3.0668316276     1.2616718139     0.0022363882
   14      H       0.9153191291     2.5388448646    -0.0034772701
   15      H       3.1389573205    -1.1949533331     0.0018388442
   16      H       1.0013410075    -2.5631110774    -0.0009611666
 ----------------------------------------------------------------
 Molecular Point Group                 C1    NOp =  1
 Largest Abelian Subgroup              C1    NOp =  1
 Nuclear Repulsion Energy =         397.93622873 hartrees
 There are       31 alpha and       31 beta electrons


 *******************************************
 **  MAXIMUM OPTIMIZATION CYCLES REACHED  **
 *******************************************

 Q-Chem fatal error occurred in module 0, line  455:

 Maximum optimization cycles reached

