
Running Job 1 of 1 QfuncsLDA-V-2nd.in
qchem QfuncsLDA-V-2nd.in_55097.0 /scratch/scaparas/job_3660152/qchem55097/ 0
/cm/shared/apps/spack/cpu/opt/spack/linux-centos8-zen2/gcc-10.2.0/qchem-5.3-5qddma6gy34jvefiv7mbcb7qm253n45r/exe/qcprog.exe_s QfuncsLDA-V-2nd.in_55097.0 /scratch/scaparas/job_3660152/qchem55097/
                  Welcome to Q-Chem
     A Quantum Leap Into The Future Of Chemistry


 Q-Chem 5.3, Q-Chem, Inc., Pleasanton, CA (2020)

 License issued to: University of California, San Diego (site)

 Yihan Shao,  Zhengting Gan,  E. Epifanovsky,  A. T. B. Gilbert,  M. Wormit,  
 J. Kussmann,  A. W. Lange,  A. Behn,  Jia Deng,  Xintian Feng,  D. Ghosh,  
 M. Goldey,  P. R. Horn,  L. D. Jacobson,  I. Kaliman,  T. Kus,  A. Landau,  
 Jie Liu,  E. I. Proynov,  R. M. Richard,  R. P. Steele,  E. J. Sundstrom,  
 H. L. Woodcock III,  P. M. Zimmerman,  D. Zuev,  B. Alam,  B. Albrecht,  
 A. Aldossary,  E. Alguire,  S. A. Baeppler,  D. Barton,  Z. Benda,  
 Y. A. Bernard,  E. J. Berquist,  K. B. Bravaya,  H. Burton,  K. Carter-Fenk,  
 D. Casanova,  Chun-Min Chang,  Yunqing Chen,  A. Chien,  K. D. Closser,  
 M. P. Coons,  S. Coriani,  S. Dasgupta,  A. L. Dempwolff,  M. Diedenhofen,  
 Hainam Do,  R. G. Edgar,  Po-Tung Fang,  S. Faraji,  S. Fatehi,  
 Qingguo Feng,  J. Fosso-Tande,  J. Gayvert,  Qinghui Ge,  A. Ghysels,  
 G. Gidofalvi,  J. Gomes,  J. Gonthier,  S. Gulania,  A. Gunina,  D. Hait,  
 M. W. D. Hanson-Heine,  S. Hammes-Schiffer,  P. H. P. Harbach,  
 A. W. Hauser,  M. F. Herbst,  J. E. Herr,  E. G. Hohenstein,  Z. C. Holden,  
 S. Houck,  Kerwin Hui,  B. C. Huynh,  M. Ivanov,  T.-C. Jagau,  Hyunjun Ji,  
 B. Kaduk,  K. Khistyaev,  Jaehoon Kim,  P. Klunzinger,  K. Koh,  
 D. Kosenkov,  L. Koulias,  T. Kowalczyk,  C. M. Krauter,  A. Kunitsa,  
 Ka Un Lao,  A. Laurent,  K. V. Lawler,  Joonho Lee,  D. Lefrancois,  
 S. Lehtola,  D. S. Levine,  Yi-Pei Li,  You-Sheng Lin,  Fenglai Liu,  
 Kuan-Yu Liu,  E. Livshits,  M. Loipersberger,  A. Luenser,  P. Manohar,  
 E. Mansoor,  S. F. Manzer,  Shan-Ping Mao,  Yuezhi Mao,  N. Mardirossian,  
 A. V. Marenich,  T. Markovich,  L. A. Martinez-Martinez,  S. A. Maurer,  
 N. J. Mayhall,  S. C. McKenzie,  J.-M. Mewes,  P. Morgante,  A. F. Morrison,  
 J. W. Mullinax,  K. Nanda,  T. S. Nguyen-Beck,  R. Olivares-Amaya,  
 K. J. Oosterbaan,  J. A. Parkhill,  S. K. Paul,  F. Pavosevic,  Zheng Pei,  
 T. M. Perrine,  F. Plasser,  P. Pokhilko,  S. Prager,  A. Prociuk,  
 E. Ramos,  B. Rana,  D. R. Rehn,  F. Rob,  E. Rossomme,  M. Scheurer,  
 M. Schneider,  N. Sergueev,  S. M. Sharada,  S. Sharma,  W. Skomorowski,  
 D. W. Small,  T. Stauch,  C. J. Stein,  T. Stein,  Yu-Chuan Su,  
 S. P. Veccham,  Zhen Tao,  A. J. W. Thom,  A. Tkatchenko,  T. Tsuchimochi,  
 N. M. Tubman,  L. Vogt,  M. L. Vidal,  O. Vydrov,  M. A. Watson,  J. Wenzel,  
 M. de Wergifosse,  T. A. Wesolowski,  A. White,  J. Witte,  A. Yamada,  
 Jun Yang,  K. Yao,  S. Yeganeh,  S. R. Yost,  Zhi-Qiang You,  A. Zech,  
 Igor Ying Zhang,  Xing Zhang,  Yan Zhao,  Ying Zhu,  B. R. Brooks,  
 G. K. L. Chan,  C. J. Cramer,  M. S. Gordon,  W. J. Hehre,  A. Klamt,  
 M. W. Schmidt,  C. D. Sherrill,  D. G. Truhlar,  A. Aspuru-Guzik,  R. Baer,  
 A. T. Bell,  N. A. Besley,  Jeng-Da Chai,  A. E. DePrince, III,  
 R. A. DiStasio Jr.,  A. Dreuw,  B. D. Dunietz,  T. R. Furlani,  
 Chao-Ping Hsu,  Yousung Jung,  Jing Kong,  D. S. Lambrecht,  WanZhen Liang,  
 C. Ochsenfeld,  V. A. Rassolov,  L. V. Slipchenko,  J. E. Subotnik,  
 T. Van Voorhis,  J. M. Herbert,  A. I. Krylov,  P. M. W. Gill,  M. Head-Gordon

 Contributors to earlier versions of Q-Chem not listed above: 
 R. D. Adamson,  B. Austin,  J. Baker,  G. J. O. Beran,  K. Brandhorst,  
 S. T. Brown,  E. F. C. Byrd,  A. K. Chakraborty,  C.-L. Cheng,  
 Siu Hung Chien,  D. M. Chipman,  D. L. Crittenden,  H. Dachsel,  
 R. J. Doerksen,  A. D. Dutoi,  L. Fusti-Molnar,  W. A. Goddard III,  
 A. Golubeva-Zadorozhnaya,  S. R. Gwaltney,  G. Hawkins,  A. Heyden,  
 S. Hirata,  G. Kedziora,  F. J. Keil,  C. Kelley,  Jihan Kim,  R. A. King,  
 R. Z. Khaliullin,  P. P. Korambath,  W. Kurlancheek,  A. M. Lee,  M. S. Lee,  
 S. V. Levchenko,  Ching Yeh Lin,  D. Liotard,  R. C. Lochan,  I. Lotan,  
 P. E. Maslen,  N. Nair,  D. P. O'Neill,  D. Neuhauser,  E. Neuscamman,  
 C. M. Oana,  R. Olson,  B. Peters,  R. Peverati,  P. A. Pieniazek,  
 Y. M. Rhee,  J. Ritchie,  M. A. Rohrdanz,  E. Rosta,  N. J. Russ,  
 H. F. Schaefer III,  N. E. Schultz,  N. Shenvi,  A. C. Simmonett,  A. Sodt,  
 D. Stuck,  K. S. Thanthiriwatte,  V. Vanovschi,  Tao Wang,  A. Warshel,  
 C. F. Williams,  Q. Wu,  X. Xu,  W. Zhang

 Please cite Q-Chem as follows:
 Y. Shao et al., Mol. Phys. 113, 184-215 (2015)
 DOI: 10.1080/00268976.2014.952696

 Q-Chem 5.3.1 for Intel X86 EM64T Linux

 Parts of Q-Chem use Armadillo 9.800.1 (Horizon Scraper).
 http://arma.sourceforge.net/

 Q-Chem begins on Mon Jun 28 12:48:29 2021  

Host: 
0

     Scratch files written to /scratch/scaparas/job_3660152/qchem55097//
 Aug2920 |scratch|qcdevops|jenkins|workspace|build_RNUM    
Processing $rem in /cm/shared/apps/spack/cpu/opt/spack/linux-centos8-zen2/gcc-10.2.0/qchem-5.3-5qddma6gy34jvefiv7mbcb7qm253n45r/config/preferences:
Processing $rem in /home/scaparas/.qchemrc:

Checking the input file for inconsistencies... 	...done.

--------------------------------------------------------------
User input:
--------------------------------------------------------------
$molecule
0 1
C   -2.1510630    0.6892080    0.0000880
C   -2.1279270   -0.7158180    0.0000750
C   -0.9322970   -1.4131000   -0.0000110
C    0.2469110   -0.6702010   -0.0000420
C    0.2481930    0.7482990    0.0000000
C   -0.9794740    1.4235260    0.0000320
N    1.5617740   -1.0775920   -0.0002850
C    1.6201330    1.1629000   -0.0001570
C    2.3820130    0.0308060    0.0002480
H    1.8763150   -2.0300110    0.0004380
H    1.9921730    2.1730100   -0.0003480
H    3.4525490   -0.0824250    0.0004080
H   -3.0615940   -1.2620200    0.0000880
H   -0.9172520   -2.4953420   -0.0000730
H   -3.1042030    1.2007850    0.0000900
H   -1.0093480    2.5054210   -0.0000150
$end

$rem
BASIS  =  6-31+G*
GUI  =  2
JOB_TYPE  =  Optimization
METHOD  = LDA
SCF_CONVERGENCE  =  8
THRESH = 12
CIS_N_ROOTS  = 3
CIS_SINGLETS = true
CIS_TRIPLETS = false
CIS_STATE_DERIV = 2
MEM_STATIC = 500
MEM_TOTAL = 3000
$end
--------------------------------------------------------------
 ----------------------------------------------------------------
             Standard Nuclear Orientation (Angstroms)
    I     Atom           X                Y                Z
 ----------------------------------------------------------------
    1      C       2.1510629040    -0.6892079969     0.0000583065
    2      C       2.1279268385     0.7158180020     0.0000481775
    3      C       0.9322968051     1.4130999466    -0.0000206639
    4      C      -0.2469111607     0.6702008918    -0.0000373513
    5      C      -0.2481930942    -0.7482991083     0.0000020775
    6      C       0.9794739374    -1.4235260513     0.0000165335
    7      N      -1.5617741827     1.0775918311    -0.0002621374
    8      C      -1.6201330769    -1.1629001718    -0.0001374500
    9      C      -2.3820131241    -0.0308062080     0.0002797387
   10      H      -1.8763152174     2.0300108152     0.0004667797
   11      H      -1.9921730325    -2.1730101887    -0.0003253498
   12      H      -3.4525491271     0.0824247420     0.0004541695
   13      H       3.0615938132     1.2620200454     0.0000497686
   14      H       0.9172517540     2.4953419460    -0.0000804893
   15      H       3.1042029277    -1.2007849526     0.0000467087
   16      H       1.0093479871    -2.5054210498    -0.0000328375
 ----------------------------------------------------------------
 Molecular Point Group                 C1    NOp =  1
 Largest Abelian Subgroup              C1    NOp =  1
 Nuclear Repulsion Energy =         401.33686680 hartrees
 There are       31 alpha and       31 beta electrons
 Requested basis set is 6-31+G(d)
 There are 59 shells and 185 basis functions

 Total QAlloc Memory Limit   3000 MB
 Mega-Array Size       489 MB
 MEM_STATIC part       500 MB
 A cutoff of  1.0D-12 yielded   1657 shell pairs
 There are     17105 function pairs
 Smallest overlap matrix eigenvalue = 1.26E-06

 Scale SEOQF with 1.000000e-01/1.000000e-01/1.000000e-01

 Standard Electronic Orientation quadrupole field applied
 Nucleus-field energy     =     0.0000000117 hartrees
 Guess from superposition of atomic densities
 Warning:  Energy on first SCF cycle will be non-variational
 SAD guess density has 62.000000 electrons

 -----------------------------------------------------------------------
  General SCF calculation program by
  Eric Jon Sundstrom, Paul Horn, Yuezhi Mao, Dmitri Zuev, Alec White,
  David Stuck, Shaama M.S., Shane Yost, Joonho Lee, David Small,
  Daniel Levine, Susi Lehtola, Hugh Burton, Evgeny Epifanovsky,
  Bang C. Huynh
 -----------------------------------------------------------------------
 Exchange:  Slater      Correlation:  VWN5
 Using SG-1 standard quadrature grid
 using 4 threads for integral computing
 -------------------------------------------------------
 OpenMP Integral computing Module                
 Release: version 1.0, May 2013, Q-Chem Inc. Pittsburgh 
 -------------------------------------------------------
 A restricted SCF calculation will be
 performed using DIIS
 SCF converges when DIIS error is below 1.0e-08
 ---------------------------------------
  Cycle       Energy         DIIS error
 ---------------------------------------
    1    -362.4769771145      5.54e-02  
    2    -360.3464496601      6.68e-03  
    3    -360.0629507348      1.01e-02  
    4    -360.5362971301      2.68e-03  
    5    -360.5674309980      8.90e-04  
    6    -360.5706786743      3.21e-04  
    7    -360.5710728209      1.34e-04  
    8    -360.5711492712      3.92e-05  
    9    -360.5711559517      7.25e-06  
   10    -360.5711561284      4.09e-06  
   11    -360.5711562027      8.88e-07  
   12    -360.5711562055      5.07e-07  
   13    -360.5711562067      8.40e-08  
   14    -360.5711562068      3.69e-08  
   15    -360.5711562068      4.13e-09  Convergence criterion met
 ---------------------------------------
 SCF time:   CPU 25.66s  wall 7.00s 
 SCF   energy in the final basis set =     -360.5711562068
 Total energy in the final basis set =     -360.5711562068
 
 Direct TDDFT/TDA calculation will be performed
 Exchange:  Slater      Correlation:  VWN5
 Using SG-1 standard quadrature grid
 Singlet excitation energies requested
 CIS energy converged when residual is below 10e- 6
 ---------------------------------------------------
 Iter    Rts Conv    Rts Left    Ttl Dev     Max Dev
 ---------------------------------------------------
   1         0           3      0.003952    0.001952
   2         0           3      0.003127    0.001776
   3         0           3      0.002067    0.001391
   4         0           3      0.000716    0.000482
   5         1           2      0.000205    0.000151
   6         1           2      0.000058    0.000046
   7         1           2      0.000012    0.000009
   8         2           1      0.000003    0.000002
   9         3           0      0.000001    0.000001    Roots Converged
 ---------------------------------------------------
 
 ---------------------------------------------------
         TDDFT/TDA Excitation Energies              
 ---------------------------------------------------

 Excited state   1: excitation energy (eV) =    4.5785
 Total energy for state  1:                  -360.40289951 au
    Multiplicity: Singlet
    Trans. Mom.:  0.4516 X  -0.5645 Y  -0.0002 Z
    Strength   :     0.0586114212
    D(   29) --> V(    1) amplitude = -0.2627
    D(   31) --> V(    1) amplitude =  0.8897

 Excited state   2: excitation energy (eV) =    4.7432
 Total energy for state  2:                  -360.39684642 au
    Multiplicity: Singlet
    Trans. Mom.: -0.0004 X  -0.0011 Y   0.1099 Z
    Strength   :     0.0014041989
    D(   31) --> V(    2) amplitude =  0.9995

 Excited state   3: excitation energy (eV) =    4.7605
 Total energy for state  3:                  -360.39621198 au
    Multiplicity: Singlet
    Trans. Mom.: -0.3315 X  -0.1191 Y  -0.0003 Z
    Strength   :     0.0144690165
    D(   30) --> V(    1) amplitude =  0.7404
    D(   31) --> V(    3) amplitude = -0.6570
 
 ---------------------------------------------------
 Calculating Relaxed Density
 ---------------------------------------------------
 Iter    Rts Conv    Rts Left    Ttl Dev     Max Dev
 ---------------------------------------------------
   1         0           3      0.002426    0.001229
   2         0           3      0.000870    0.000429
   3         0           3      0.000245    0.000123
   4         0           3      0.000088    0.000046
   5         0           3      0.000013    0.000006
   6         3           0      0.000000    0.000000    Roots Converged
 ---------------------------------------------------
  SETman timing summary (seconds)
  CPU time               101.30s
  System time              0.00s
  Wall time               34.34s
 
 --------------------------------------------------------------
 
                    Orbital Energies (a.u.)
 --------------------------------------------------------------
 
 Alpha MOs
 -- Occupied --
-13.9300  -9.8284  -9.8280  -9.7983  -9.7953  -9.7920  -9.7920  -9.7876
 -9.7864  -0.9035  -0.7647  -0.7123  -0.6669  -0.6492  -0.5695  -0.5406
 -0.5284  -0.4922  -0.4367  -0.4249  -0.3968  -0.3867  -0.3853  -0.3691
 -0.3509  -0.3150  -0.3056  -0.2961  -0.2557  -0.2075  -0.1904
 -- Virtual --
 -0.0493  -0.0162  -0.0154   0.0039   0.0117   0.0137   0.0263   0.0289
  0.0424   0.0477   0.0549   0.0569   0.0719   0.0755   0.0921   0.0975
  0.0989   0.1116   0.1203   0.1220   0.1385   0.1392   0.1452   0.1472
  0.1549   0.1598   0.1682   0.1687   0.1769   0.1806   0.1838   0.1841
  0.1996   0.2012   0.2117   0.2178   0.2187   0.2235   0.2337   0.2384
  0.2511   0.2556   0.2615   0.2693   0.2734   0.2798   0.2897   0.3041
  0.3242   0.3321   0.3401   0.3652   0.3819   0.4086   0.4675   0.5259
  0.5715   0.6135   0.6250   0.6396   0.6593   0.6617   0.6716   0.6765
  0.6822   0.6922   0.6954   0.7151   0.7303   0.7358   0.7591   0.7909
  0.8284   0.8412   0.8511   0.8802   0.8868   0.8921   0.8985   0.9253
  0.9381   0.9708   0.9900   1.0078   1.0423   1.0586   1.0607   1.1140
  1.1256   1.1520   1.1706   1.1791   1.1940   1.2586   1.2614   1.2825
  1.3130   1.3530   1.3592   1.3926   1.3974   1.4055   1.4356   1.4408
  1.4742   1.5250   1.5877   1.7200   1.7745   1.8125   1.8243   1.8524
  1.8791   1.9251   1.9280   1.9357   1.9889   2.0252   2.0677   2.0975
  2.1024   2.1257   2.1758   2.1885   2.1935   2.2125   2.2395   2.3074
  2.3344   2.3718   2.4712   2.4821   2.5598   2.5816   2.5937   2.6195
  2.6541   2.7284   2.7678   2.7751   2.8745   2.9007   3.0299   3.1555
  3.3641   4.0598   4.1691   4.1995   4.2338   4.2697   4.3050   4.3882
  4.4270   4.6972
 --------------------------------------------------------------
 
          Ground-State Mulliken Net Atomic Charges

     Atom                 Charge (a.u.)
  ----------------------------------------
      1 C                     0.056941
      2 C                    -0.526450
      3 C                     0.047079
      4 C                    -1.295771
      5 C                     1.287636
      6 C                    -0.669230
      7 N                    -0.442608
      8 C                     0.234697
      9 C                    -0.311400
     10 H                     0.418438
     11 H                     0.208395
     12 H                     0.211100
     13 H                     0.193469
     14 H                     0.195037
     15 H                     0.192384
     16 H                     0.200282
  ----------------------------------------
  Sum of atomic charges =     0.000000

 -----------------------------------------------------------------
                    Cartesian Multipole Moments
 -----------------------------------------------------------------
    Charge (ESU x 10^10)
                -0.0000
    Dipole Moment (Debye)
         X      -1.5454      Y       1.6030      Z       0.0010
       Tot       2.2266
    Quadrupole Moments (Debye-Ang)
        XX     -45.2260     XY      -3.2388     YY     -44.3365
        XZ      -0.0030     YZ       0.0032     ZZ     -58.8931
    Octopole Moments (Debye-Ang^2)
       XXX     -14.4508    XXY       8.1987    XYY      -8.1845
       YYY      10.5706    XXZ       0.0072    XYZ      -0.0065
       YYZ       0.0019    XZZ      -2.0307    YZZ       2.0207
       ZZZ      -0.0012
    Hexadecapole Moments (Debye-Ang^3)
      XXXX    -817.3593   XXXY     -21.7798   XXYY    -196.3775
      XYYY     -19.7070   YYYY    -371.8923   XXXZ      -0.0234
      XXYZ       0.0128   XYYZ      -0.0068   YYYZ       0.0140
      XXZZ    -189.9271   XYZZ      -3.9690   YYZZ     -94.3934
      XZZZ      -0.0005   YZZZ       0.0028   ZZZZ     -73.9189
 -----------------------------------------------------------------
 Calculating analytic gradient of the CIS energy
 CIS relaxed dipole moment
            1
    1   2.1589868
    2  -2.7100323
    3  -0.0002971
	Magnitude:	 3.465 au	 8.807 Debye
 CIS 2 State Energy is -360.3968464194
 Gradient of the state energy (including CIS Excitation Energy)
            1           2           3           4           5           6
    1  -0.0053830  -0.0070955   0.0253660  -0.0013318   0.0081192   0.0094470
    2  -0.0197360   0.0283552   0.0039659  -0.0009142  -0.0008665  -0.0003383
    3   0.0000188  -0.0000245   0.0000178   0.0000506   0.0000119  -0.0000112
            7           8           9          10          11          12
    1   0.0084024  -0.0417358  -0.0185042   0.0191267   0.0043764   0.0152072
    2   0.0835649   0.0138126  -0.0642989  -0.0503253   0.0125699  -0.0055676
    3  -0.0000836  -0.0000347   0.0000922  -0.0000230  -0.0000029  -0.0000063
           13          14          15          16
    1  -0.0092516   0.0030282  -0.0094585  -0.0003126
    2  -0.0053999  -0.0107360   0.0051926   0.0107216
    3  -0.0000055  -0.0000016   0.0000049  -0.0000027
 Gradient time:  CPU 21.88 s  wall 7.46 s
 Geometry Optimization Parameters
   NAtoms,    NIC,     NZ,  NCons,   NDum,   NFix, NCnnct, MaxDiis
       16     116       0       0       0       0       0       0


** GEOMETRY OPTIMIZATION IN DELOCALIZED INTERNAL COORDINATES **
   Searching for a Minimum

   Optimization Cycle:   1

                       Coordinates (Angstroms)
     ATOM                X               Y               Z
      1  C         2.1510629040   -0.6892079969    0.0000583065
      2  C         2.1279268385    0.7158180020    0.0000481775
      3  C         0.9322968051    1.4130999466   -0.0000206639
      4  C        -0.2469111607    0.6702008918   -0.0000373513
      5  C        -0.2481930942   -0.7482991083    0.0000020775
      6  C         0.9794739374   -1.4235260513    0.0000165335
      7  N        -1.5617741827    1.0775918311   -0.0002621374
      8  C        -1.6201330769   -1.1629001718   -0.0001374500
      9  C        -2.3820131241   -0.0308062080    0.0002797387
     10  H        -1.8763152174    2.0300108152    0.0004667797
     11  H        -1.9921730325   -2.1730101887   -0.0003253498
     12  H        -3.4525491271    0.0824247420    0.0004541695
     13  H         3.0615938132    1.2620200454    0.0000497686
     14  H         0.9172517540    2.4953419460   -0.0000804893
     15  H         3.1042029277   -1.2007849526    0.0000467087
     16  H         1.0093479871   -2.5054210498   -0.0000328375
   Point Group: c1    Number of degrees of freedom:    42


   Energy is   -360.396846419


 Attempting to generate delocalized internal coordinates
 Initial Hessian constructed with Jon Baker's OPTIMIZE code

 42 Hessian modes will be used to form the next step
  Hessian Eigenvalues:
     0.018594    0.019738    0.020011    0.020794    0.021683    0.022200
     0.022636    0.023004    0.023236    0.023608    0.023851    0.023984
     0.024127    0.160000    0.160000    0.160000    0.160000    0.160000
     0.160000    0.160000    0.220000    0.221879    0.226618    0.240111
     0.246509    0.357123    0.357170    0.357835    0.357899    0.364196
     0.364272    0.370088    0.384319    0.426334    0.434649    0.457693
     0.466917    0.471622    0.474685    0.475669    0.481247    0.509555

 Minimum search - taking simple RFO step
 Searching for Lamda that Minimizes Along All modes
 Value Taken    Lamda =  -0.01881285
 Step Taken.  Stepsize is  0.202781

                             Maximum     Tolerance    Cnvgd?
         Gradient           0.040028      0.000300      NO
         Displacement       0.087793      0.001200      NO
         Energy change     *********      0.000001      NO


 New Cartesian Coordinates Obtained by Inverse Iteration

 Displacement from previous Coordinates is:  0.265301
 ----------------------------------------------------------------
             Standard Nuclear Orientation (Angstroms)
    I     Atom           X                Y                Z
 ----------------------------------------------------------------
    1      C       2.1737586744    -0.6966583623    -0.0000567678
    2      C       2.1265498778     0.6978340568     0.0000384457
    3      C       0.9039290095     1.3991081617    -0.0000806880
    4      C      -0.2605985114     0.6561427354    -0.0000619633
    5      C      -0.2371765801    -0.7591936111     0.0000440984
    6      C       0.9924918409    -1.4408802909     0.0000344511
    7      N      -1.5750820429     1.0689755498    -0.0000161897
    8      C      -1.5932860908    -1.1639120576     0.0000252383
    9      C      -2.3734274352     0.0038936050     0.0000081126
   10      H      -1.9155334275     2.0739166227     0.0006967767
   11      H      -1.9737607512    -2.1905090152    -0.0000770930
   12      H      -3.4620138598     0.1489593583     0.0000155371
   13      H       3.0663297280     1.2632272428     0.0001027029
   14      H       0.8634768269     2.4958833071    -0.0000517111
   15      H       3.1450523255    -1.2063620940    -0.0001314822
   16      H       1.0223853672    -2.5378727159     0.0000365134
 ----------------------------------------------------------------
 Molecular Point Group                 C1    NOp =  1
 Largest Abelian Subgroup              C1    NOp =  1
 Nuclear Repulsion Energy =         400.83555760 hartrees
 There are       31 alpha and       31 beta electrons
 Applying Cartesian multipole field
    Component          Value
    ---------          -----
     (2,0,0)        1.00000E-11
     (0,2,0)        2.00000E-11
     (0,0,2)       -3.00000E-11
 Nucleus-field energy     =     0.0000000117 hartrees
 Requested basis set is 6-31+G(d)
 There are 59 shells and 185 basis functions
 A cutoff of  1.0D-12 yielded   1657 shell pairs
 There are     17105 function pairs
 Smallest overlap matrix eigenvalue = 1.17E-06
 Guess MOs from SCF MO coefficient file

 -----------------------------------------------------------------------
  General SCF calculation program by
  Eric Jon Sundstrom, Paul Horn, Yuezhi Mao, Dmitri Zuev, Alec White,
  David Stuck, Shaama M.S., Shane Yost, Joonho Lee, David Small,
  Daniel Levine, Susi Lehtola, Hugh Burton, Evgeny Epifanovsky,
  Bang C. Huynh
 -----------------------------------------------------------------------
 Exchange:  Slater      Correlation:  VWN5
 Using SG-1 standard quadrature grid
 using 4 threads for integral computing
 -------------------------------------------------------
 OpenMP Integral computing Module                
 Release: version 1.0, May 2013, Q-Chem Inc. Pittsburgh 
 -------------------------------------------------------
 A restricted SCF calculation will be
 performed using DIIS
 SCF converges when DIIS error is below 1.0e-08
 ---------------------------------------
  Cycle       Energy         DIIS error
 ---------------------------------------
    1    -360.5634188494      7.76e-04  
    2    -360.5668715907      3.90e-04  
    3    -360.5665918319      4.68e-04  
    4    -360.5673948591      1.59e-04  
    5    -360.5674973755      6.01e-05  
    6    -360.5675137573      1.61e-05  
    7    -360.5675149762      4.42e-06  
    8    -360.5675150578      1.66e-06  
    9    -360.5675150699      3.40e-07  
   10    -360.5675150703      1.76e-07  
   11    -360.5675150705      1.82e-08  
   12    -360.5675150705      1.10e-08  
   13    -360.5675150705      1.68e-09  Convergence criterion met
 ---------------------------------------
 SCF time:   CPU 26.09s  wall 9.00s 
 SCF   energy in the final basis set =     -360.5675150705
 Total energy in the final basis set =     -360.5675150705
 
 Direct TDDFT/TDA calculation will be performed
 Exchange:  Slater      Correlation:  VWN5
 Using SG-1 standard quadrature grid
 Singlet excitation energies requested
 CIS energy converged when residual is below 10e- 6
 ---------------------------------------------------
 Iter    Rts Conv    Rts Left    Ttl Dev     Max Dev
 ---------------------------------------------------
   1         0           3      0.004010    0.001992
   2         0           3      0.003334    0.001691
   3         0           3      0.003435    0.001798
   4         0           3      0.002075    0.001124
   5         1           2      0.000647    0.000368
   6         1           2      0.000247    0.000162
   7         1           2      0.000059    0.000041
   8         1           2      0.000015    0.000011
   9         2           1      0.000002    0.000002
  10         3           0      0.000001    0.000000    Roots Converged
 ---------------------------------------------------
 
 ---------------------------------------------------
         TDDFT/TDA Excitation Energies              
 ---------------------------------------------------

 Excited state   1: excitation energy (eV) =    4.3142
 Total energy for state  1:                  -360.40897218 au
    Multiplicity: Singlet
    Trans. Mom.:  0.0020 X  -0.0019 Y  -0.0966 Z
    Strength   :     0.0009870392
    D(   31) --> V(    2) amplitude =  0.9995

 Excited state   2: excitation energy (eV) =    4.3639
 Total energy for state  2:                  -360.40714364 au
    Multiplicity: Singlet
    Trans. Mom.:  0.6504 X  -0.5676 Y   0.0004 Z
    Strength   :     0.0796714687
    D(   29) --> V(    1) amplitude = -0.2565
    D(   31) --> V(    1) amplitude =  0.8858
    D(   31) --> V(    3) amplitude =  0.2171

 Excited state   3: excitation energy (eV) =    4.7275
 Total energy for state  3:                  -360.39378353 au
    Multiplicity: Singlet
    Trans. Mom.: -0.0386 X   0.1721 Y  -0.0000 Z
    Strength   :     0.0036016755
    D(   30) --> V(    1) amplitude =  0.7097
    D(   31) --> V(    3) amplitude =  0.6747
 
 ---------------------------------------------------
 Calculating Relaxed Density
 ---------------------------------------------------
 Iter    Rts Conv    Rts Left    Ttl Dev     Max Dev
 ---------------------------------------------------
   1         0           3      0.002559    0.001253
   2         0           3      0.000924    0.000498
   3         0           3      0.000239    0.000111
   4         0           3      0.000082    0.000045
   5         0           3      0.000010    0.000005
   6         3           0      0.000000    0.000000    Roots Converged
 ---------------------------------------------------
  SETman timing summary (seconds)
  CPU time               109.81s
  System time              0.00s
  Wall time               35.91s
 
 --------------------------------------------------------------
 
                    Orbital Energies (a.u.)
 --------------------------------------------------------------
 
 Alpha MOs
 -- Occupied --
-13.9378  -9.8313  -9.8269  -9.8011  -9.7953  -9.7948  -9.7942  -9.7911
 -9.7874  -0.9130  -0.7646  -0.7073  -0.6709  -0.6411  -0.5705  -0.5387
 -0.5254  -0.4895  -0.4337  -0.4236  -0.3973  -0.3921  -0.3842  -0.3617
 -0.3493  -0.3141  -0.3071  -0.2956  -0.2534  -0.2126  -0.1827
 -- Virtual --
 -0.0517  -0.0246  -0.0142   0.0024   0.0114   0.0135   0.0255   0.0278
  0.0408   0.0475   0.0518   0.0557   0.0715   0.0752   0.0905   0.0957
  0.0972   0.1116   0.1169   0.1198   0.1353   0.1381   0.1455   0.1465
  0.1526   0.1579   0.1655   0.1682   0.1754   0.1792   0.1834   0.1835
  0.1974   0.2003   0.2111   0.2156   0.2170   0.2227   0.2302   0.2374
  0.2496   0.2539   0.2608   0.2671   0.2721   0.2756   0.2906   0.3058
  0.3245   0.3283   0.3387   0.3584   0.3800   0.4066   0.4690   0.5239
  0.5677   0.6139   0.6256   0.6379   0.6623   0.6661   0.6726   0.6753
  0.6797   0.6935   0.6994   0.7146   0.7297   0.7326   0.7598   0.7913
  0.8208   0.8327   0.8432   0.8778   0.8815   0.8912   0.8982   0.9247
  0.9350   0.9634   0.9739   0.9869   1.0402   1.0556   1.0608   1.1197
  1.1247   1.1520   1.1715   1.1782   1.1896   1.2569   1.2640   1.2867
  1.3114   1.3529   1.3586   1.3897   1.3998   1.4074   1.4353   1.4409
  1.4814   1.5266   1.5863   1.6999   1.7659   1.8146   1.8308   1.8406
  1.8688   1.9079   1.9119   1.9376   1.9860   2.0161   2.0681   2.0907
  2.0979   2.1005   2.1760   2.1824   2.1949   2.2266   2.2416   2.3043
  2.3435   2.3765   2.4622   2.4901   2.5587   2.5727   2.5910   2.6082
  2.6455   2.7267   2.7598   2.7715   2.8669   2.9015   3.0068   3.1587
  3.3499   4.0625   4.1623   4.1924   4.2258   4.2680   4.3030   4.3877
  4.4262   4.6963
 --------------------------------------------------------------
 
          Ground-State Mulliken Net Atomic Charges

     Atom                 Charge (a.u.)
  ----------------------------------------
      1 C                     0.032947
      2 C                    -0.527271
      3 C                     0.012241
      4 C                    -1.324934
      5 C                     1.333322
      6 C                    -0.567003
      7 N                    -0.385324
      8 C                     0.096699
      9 C                    -0.288711
     10 H                     0.417089
     11 H                     0.206450
     12 H                     0.210698
     13 H                     0.192810
     14 H                     0.193859
     15 H                     0.195393
     16 H                     0.201736
  ----------------------------------------
  Sum of atomic charges =     0.000000

 -----------------------------------------------------------------
                    Cartesian Multipole Moments
 -----------------------------------------------------------------
    Charge (ESU x 10^10)
                -0.0000
    Dipole Moment (Debye)
         X      -1.6443      Y       1.8457      Z       0.0010
       Tot       2.4719
    Quadrupole Moments (Debye-Ang)
        XX     -45.2766     XY      -4.2396     YY     -44.3053
        XZ      -0.0021     YZ       0.0033     ZZ     -59.1487
    Octopole Moments (Debye-Ang^2)
       XXX     -14.6409    XXY       9.9787    XYY      -9.1974
       YYY      12.2643    XXZ       0.0038    XYZ      -0.0056
       YYZ       0.0057    XZZ      -2.1994    YZZ       2.5114
       ZZZ      -0.0002
    Hexadecapole Moments (Debye-Ang^3)
      XXXX    -820.5886   XXXY     -23.8540   XXYY    -196.5348
      XYYY     -18.3093   YYYY    -373.2436   XXXZ      -0.0045
      XXYZ       0.0156   XYYZ      -0.0095   YYYZ       0.0152
      XXZZ    -191.5509   XYZZ      -2.4594   YYZZ     -95.6036
      XZZZ       0.0047   YZZZ       0.0022   ZZZZ     -74.6948
 -----------------------------------------------------------------
 Calculating analytic gradient of the CIS energy
 CIS relaxed dipole moment
            1
    1  -2.0475012
    2   0.5343980
    3   0.0032443
	Magnitude:	 2.116 au	 5.379 Debye
 CIS 2 State Energy is -360.4071436438
 Gradient of the state energy (including CIS Excitation Energy)
            1           2           3           4           5           6
    1  -0.0119543  -0.0071308  -0.0128627  -0.0136561  -0.0131628   0.0090201
    2  -0.0190508   0.0120769  -0.0366716   0.0435655  -0.0332154   0.0281178
    3  -0.0000093   0.0000186   0.0000035  -0.0000347   0.0000353   0.0000236
            7           8           9          10          11          12
    1   0.0201783   0.0057298   0.0378882  -0.0104794   0.0015214  -0.0028832
    2  -0.0215300   0.0105115  -0.0118887   0.0260710  -0.0011186   0.0046161
    3  -0.0000689  -0.0000020  -0.0000008   0.0000612  -0.0000033   0.0000035
           13          14          15          16
    1  -0.0004064  -0.0027522  -0.0000627   0.0010129
    2  -0.0011321  -0.0003188  -0.0000822   0.0000495
    3  -0.0000008  -0.0000081  -0.0000073  -0.0000105
 Gradient time:  CPU 21.36 s  wall 6.73 s
 Geometry Optimization Parameters
   NAtoms,    NIC,     NZ,  NCons,   NDum,   NFix, NCnnct, MaxDiis
       16     116       0       0       0       0       0       0

 Cartesian Hessian Update
 Hessian updated using BFGS update


** GEOMETRY OPTIMIZATION IN DELOCALIZED INTERNAL COORDINATES **
   Searching for a Minimum

   Optimization Cycle:   2

                       Coordinates (Angstroms)
     ATOM                X               Y               Z
      1  C         2.1737586744   -0.6966583623   -0.0000567678
      2  C         2.1265498778    0.6978340568    0.0000384457
      3  C         0.9039290095    1.3991081617   -0.0000806880
      4  C        -0.2605985114    0.6561427354   -0.0000619633
      5  C        -0.2371765801   -0.7591936111    0.0000440984
      6  C         0.9924918409   -1.4408802909    0.0000344511
      7  N        -1.5750820429    1.0689755498   -0.0000161897
      8  C        -1.5932860908   -1.1639120576    0.0000252383
      9  C        -2.3734274352    0.0038936050    0.0000081126
     10  H        -1.9155334275    2.0739166227    0.0006967767
     11  H        -1.9737607512   -2.1905090152   -0.0000770930
     12  H        -3.4620138598    0.1489593583    0.0000155371
     13  H         3.0663297280    1.2632272428    0.0001027029
     14  H         0.8634768269    2.4958833071   -0.0000517111
     15  H         3.1450523255   -1.2063620940   -0.0001314822
     16  H         1.0223853672   -2.5378727159    0.0000365134
   Point Group: c1    Number of degrees of freedom:    42


   Energy is   -360.407143644

 Hessian updated using BFGS update

 40 Hessian modes will be used to form the next step
  Hessian Eigenvalues:
     0.018594    0.019738    0.020011    0.020794    0.021683    0.022200
     0.022636    0.023004    0.023236    0.023608    0.023851    0.023984
     0.024127    0.159224    0.160000    0.160000    0.160000    0.162211
     0.187808    0.220709    0.226213    0.243424    0.246774    0.309979
     0.357146    0.357479    0.357874    0.361101    0.364304    0.370059
     0.379729    0.405792    0.426829    0.437878    0.460936    0.469115
     0.474635    0.476404    0.495803    0.958288

 Minimum search - taking simple RFO step
 Searching for Lamda that Minimizes Along All modes
 Value Taken    Lamda =  -0.00983822
 Step Taken.  Stepsize is  0.173460

                             Maximum     Tolerance    Cnvgd?
         Gradient           0.032814      0.000300      NO
         Displacement       0.075450      0.001200      NO
         Energy change     -0.010297      0.000001      NO


 New Cartesian Coordinates Obtained by Inverse Iteration

 Displacement from previous Coordinates is:  0.217756
 ----------------------------------------------------------------
             Standard Nuclear Orientation (Angstroms)
    I     Atom           X                Y                Z
 ----------------------------------------------------------------
    1      C       2.1931411524    -0.6912170937    -0.0001698463
    2      C       2.1460740125     0.6976187450    -0.0000308429
    3      C       0.9142648915     1.4243800977    -0.0000150372
    4      C      -0.2512315947     0.6403739899     0.0000776094
    5      C      -0.2266854094    -0.7556258813     0.0000263432
    6      C       0.9996598039    -1.4643199486    -0.0000897127
    7      N      -1.5938391005     1.0441195217     0.0001793408
    8      C      -1.6004804999    -1.1572984721     0.0001973264
    9      C      -2.4189899000     0.0195474334    -0.0000449383
   10      H      -1.9222420468     2.0559149384     0.0003952166
   11      H      -1.9857349072    -2.1909768952     0.0001338680
   12      H      -3.5143393177     0.1627658217    -0.0002278359
   13      H       3.0943277380     1.2652096075     0.0000898435
   14      H       0.8735026841     2.5287588664     0.0001830169
   15      H       3.1743273683    -1.1978580626    -0.0001992960
   16      H       1.0213400768    -2.5688401754     0.0000209257
 ----------------------------------------------------------------
 Molecular Point Group                 C1    NOp =  1
 Largest Abelian Subgroup              C1    NOp =  1
 Nuclear Repulsion Energy =         397.95799625 hartrees
 There are       31 alpha and       31 beta electrons
 Applying Cartesian multipole field
    Component          Value
    ---------          -----
     (2,0,0)        1.00000E-11
     (0,2,0)        2.00000E-11
     (0,0,2)       -3.00000E-11
 Nucleus-field energy     =     0.0000000119 hartrees
 Requested basis set is 6-31+G(d)
 There are 59 shells and 185 basis functions
 A cutoff of  1.0D-12 yielded   1656 shell pairs
 There are     17099 function pairs
 Smallest overlap matrix eigenvalue = 1.29E-06
 Guess MOs from SCF MO coefficient file

 -----------------------------------------------------------------------
  General SCF calculation program by
  Eric Jon Sundstrom, Paul Horn, Yuezhi Mao, Dmitri Zuev, Alec White,
  David Stuck, Shaama M.S., Shane Yost, Joonho Lee, David Small,
  Daniel Levine, Susi Lehtola, Hugh Burton, Evgeny Epifanovsky,
  Bang C. Huynh
 -----------------------------------------------------------------------
 Exchange:  Slater      Correlation:  VWN5
 Using SG-1 standard quadrature grid
 using 4 threads for integral computing
 -------------------------------------------------------
 OpenMP Integral computing Module                
 Release: version 1.0, May 2013, Q-Chem Inc. Pittsburgh 
 -------------------------------------------------------
 A restricted SCF calculation will be
 performed using DIIS
 SCF converges when DIIS error is below 1.0e-08
 ---------------------------------------
  Cycle       Energy         DIIS error
 ---------------------------------------
    1    -360.5562258881      7.31e-04  
    2    -360.5592664425      2.65e-04  
    3    -360.5591109076      3.24e-04  
    4    -360.5595093488      9.80e-05  
    5    -360.5595518976      3.61e-05  
    6    -360.5595580563      1.14e-05  
    7    -360.5595586326      2.48e-06  
    8    -360.5595586547      1.16e-06  
    9    -360.5595586608      2.04e-07  
   10    -360.5595586609      9.30e-08  
   11    -360.5595586610      2.76e-08  
   12    -360.5595586610      7.52e-09  Convergence criterion met
 ---------------------------------------
 SCF time:   CPU 26.23s  wall 9.00s 
 SCF   energy in the final basis set =     -360.5595586610
 Total energy in the final basis set =     -360.5595586610
 
 Direct TDDFT/TDA calculation will be performed
 Exchange:  Slater      Correlation:  VWN5
 Using SG-1 standard quadrature grid
 Singlet excitation energies requested
 CIS energy converged when residual is below 10e- 6
 ---------------------------------------------------
 Iter    Rts Conv    Rts Left    Ttl Dev     Max Dev
 ---------------------------------------------------
   1         0           3      0.003977    0.001940
   2         0           3      0.003248    0.001739
   3         0           3      0.002240    0.001297
   4         0           3      0.002078    0.001358
   5         1           2      0.000802    0.000563
   6         1           2      0.000200    0.000153
   7         1           2      0.000030    0.000020
   8         1           2      0.000007    0.000005
   9         2           1      0.000002    0.000001
  10         3           0      0.000001    0.000000    Roots Converged
 ---------------------------------------------------
 
 ---------------------------------------------------
         TDDFT/TDA Excitation Energies              
 ---------------------------------------------------

 Excited state   1: excitation energy (eV) =    4.0030
 Total energy for state  1:                  -360.41245166 au
    Multiplicity: Singlet
    Trans. Mom.: -0.5862 X   0.5716 Y   0.0000 Z
    Strength   :     0.0657398799
    D(   29) --> V(    1) amplitude =  0.2754
    D(   31) --> V(    1) amplitude =  0.8997

 Excited state   2: excitation energy (eV) =    4.2001
 Total energy for state  2:                  -360.40520823 au
    Multiplicity: Singlet
    Trans. Mom.:  0.0001 X  -0.0001 Y  -0.0908 Z
    Strength   :     0.0008488897
    D(   31) --> V(    2) amplitude =  0.9995

 Excited state   3: excitation energy (eV) =    4.6344
 Total energy for state  3:                  -360.38924653 au
    Multiplicity: Singlet
    Trans. Mom.: -0.1159 X   0.1620 Y   0.0000 Z
    Strength   :     0.0045050071
    D(   30) --> V(    1) amplitude =  0.6852
    D(   31) --> V(    3) amplitude = -0.6927
 
 ---------------------------------------------------
 Calculating Relaxed Density
 ---------------------------------------------------
 Iter    Rts Conv    Rts Left    Ttl Dev     Max Dev
 ---------------------------------------------------
   1         0           3      0.002692    0.001327
   2         0           3      0.000951    0.000505
   3         0           3      0.000243    0.000114
   4         0           3      0.000081    0.000042
   5         0           3      0.000012    0.000006
   6         3           0      0.000000    0.000000    Roots Converged
 ---------------------------------------------------
  SETman timing summary (seconds)
  CPU time               111.26s
  System time              0.00s
  Wall time               37.52s
 
 --------------------------------------------------------------
 
                    Orbital Energies (a.u.)
 --------------------------------------------------------------
 
 Alpha MOs
 -- Occupied --
-13.9377  -9.8348  -9.8310  -9.8092  -9.8017  -9.7990  -9.7978  -9.7965
 -9.7894  -0.9104  -0.7632  -0.7006  -0.6715  -0.6377  -0.5714  -0.5344
 -0.5215  -0.4890  -0.4329  -0.4246  -0.3952  -0.3897  -0.3857  -0.3555
 -0.3509  -0.3125  -0.3071  -0.2999  -0.2487  -0.2164  -0.1786
 -- Virtual --
 -0.0582  -0.0247  -0.0152   0.0013   0.0100   0.0113   0.0242   0.0270
  0.0406   0.0474   0.0503   0.0543   0.0707   0.0746   0.0893   0.0934
  0.0959   0.1108   0.1170   0.1189   0.1337   0.1342   0.1448   0.1454
  0.1497   0.1527   0.1621   0.1667   0.1735   0.1762   0.1823   0.1839
  0.1947   0.1973   0.2084   0.2144   0.2165   0.2181   0.2281   0.2355
  0.2482   0.2519   0.2573   0.2626   0.2706   0.2712   0.2882   0.3055
  0.3167   0.3234   0.3251   0.3547   0.3704   0.4057   0.4605   0.5180
  0.5546   0.6129   0.6215   0.6376   0.6635   0.6636   0.6692   0.6739
  0.6739   0.6931   0.6951   0.7118   0.7262   0.7284   0.7532   0.7885
  0.8182   0.8274   0.8337   0.8736   0.8821   0.8900   0.8968   0.9189
  0.9313   0.9641   0.9740   0.9830   1.0383   1.0559   1.0632   1.1145
  1.1198   1.1530   1.1696   1.1791   1.1863   1.2564   1.2605   1.2893
  1.3046   1.3390   1.3437   1.3779   1.4072   1.4154   1.4261   1.4367
  1.4764   1.5092   1.5623   1.7099   1.7525   1.7938   1.8272   1.8286
  1.8481   1.8979   1.9019   1.9288   1.9547   1.9917   2.0469   2.0889
  2.0908   2.1068   2.1496   2.1706   2.2034   2.2097   2.2281   2.2920
  2.3210   2.3709   2.4344   2.4764   2.5389   2.5680   2.5686   2.5853
  2.6420   2.7079   2.7364   2.7615   2.8574   2.8878   2.9688   3.1436
  3.3108   4.0552   4.1486   4.1856   4.2200   4.2585   4.3001   4.3789
  4.4228   4.6813
 --------------------------------------------------------------
 
          Ground-State Mulliken Net Atomic Charges

     Atom                 Charge (a.u.)
  ----------------------------------------
      1 C                    -0.012464
      2 C                    -0.458699
      3 C                    -0.101046
      4 C                    -1.338010
      5 C                     1.413840
      6 C                    -0.480741
      7 N                    -0.381336
      8 C                    -0.039882
      9 C                    -0.230429
     10 H                     0.413181
     11 H                     0.202582
     12 H                     0.217462
     13 H                     0.193978
     14 H                     0.199182
     15 H                     0.196389
     16 H                     0.205993
  ----------------------------------------
  Sum of atomic charges =     0.000000

 -----------------------------------------------------------------
                    Cartesian Multipole Moments
 -----------------------------------------------------------------
    Charge (ESU x 10^10)
                 0.0000
    Dipole Moment (Debye)
         X      -1.5574      Y       1.9139      Z       0.0004
       Tot       2.4675
    Quadrupole Moments (Debye-Ang)
        XX     -44.8637     XY      -4.3802     YY     -44.4827
        XZ       0.0007     YZ       0.0016     ZZ     -59.5084
    Octopole Moments (Debye-Ang^2)
       XXX     -16.3892    XXY      10.6360    XYY      -8.0448
       YYY      12.4752    XXZ      -0.0021    XYZ      -0.0014
       YYZ       0.0041    XZZ      -2.0966    YZZ       2.7206
       ZZZ      -0.0028
    Hexadecapole Moments (Debye-Ang^3)
      XXXX    -827.7113   XXXY     -25.5654   XXYY    -201.9407
      XYYY     -18.2487   YYYY    -375.3053   XXXZ       0.0305
      XXYZ       0.0058   XYYZ       0.0027   YYYZ       0.0023
      XXZZ    -196.1848   XYZZ      -2.9307   YYZZ     -96.9731
      XZZZ       0.0217   YZZZ      -0.0053   ZZZZ     -75.8483
 -----------------------------------------------------------------
 Calculating analytic gradient of the CIS energy
 CIS relaxed dipole moment
            1
    1   2.2001184
    2  -2.6779344
    3  -0.0002078
	Magnitude:	 3.466 au	 8.809 Debye
 CIS 2 State Energy is -360.4052082318
 Gradient of the state energy (including CIS Excitation Energy)
            1           2           3           4           5           6
    1   0.0125204   0.0087065   0.0054551  -0.0034284   0.0123603  -0.0076426
    2   0.0161913  -0.0136573   0.0190241  -0.0330223   0.0220150  -0.0143180
    3  -0.0000083   0.0000082  -0.0000250  -0.0000006  -0.0000121  -0.0000089
            7           8           9          10          11          12
    1  -0.0135640  -0.0014022  -0.0268534   0.0081858  -0.0020875  -0.0013432
    2   0.0156138   0.0114226   0.0065237  -0.0246177  -0.0041472  -0.0017767
    3   0.0000278   0.0000464  -0.0000387   0.0000037  -0.0000038  -0.0000069
           13          14          15          16
    1   0.0045891   0.0005516   0.0044837  -0.0005313
    2   0.0018970   0.0055865  -0.0012725  -0.0054621
    3   0.0000042   0.0000072   0.0000011   0.0000058
 Gradient time:  CPU 22.38 s  wall 7.65 s
 Geometry Optimization Parameters
   NAtoms,    NIC,     NZ,  NCons,   NDum,   NFix, NCnnct, MaxDiis
       16     116       0       0       0       0       0       0

 Cartesian Hessian Update
 Hessian updated using BFGS update


** GEOMETRY OPTIMIZATION IN DELOCALIZED INTERNAL COORDINATES **
   Searching for a Minimum

   Optimization Cycle:   3

                       Coordinates (Angstroms)
     ATOM                X               Y               Z
      1  C         2.1931411524   -0.6912170937   -0.0001698463
      2  C         2.1460740125    0.6976187450   -0.0000308429
      3  C         0.9142648915    1.4243800977   -0.0000150372
      4  C        -0.2512315947    0.6403739899    0.0000776094
      5  C        -0.2266854094   -0.7556258813    0.0000263432
      6  C         0.9996598039   -1.4643199486   -0.0000897127
      7  N        -1.5938391005    1.0441195217    0.0001793408
      8  C        -1.6004804999   -1.1572984721    0.0001973264
      9  C        -2.4189899000    0.0195474334   -0.0000449383
     10  H        -1.9222420468    2.0559149384    0.0003952166
     11  H        -1.9857349072   -2.1909768952    0.0001338680
     12  H        -3.5143393177    0.1627658217   -0.0002278359
     13  H         3.0943277380    1.2652096075    0.0000898435
     14  H         0.8735026841    2.5287588664    0.0001830169
     15  H         3.1743273683   -1.1978580626   -0.0001992960
     16  H         1.0213400768   -2.5688401754    0.0000209257
   Point Group: c1    Number of degrees of freedom:    42


   Energy is   -360.405208232

 Hessian updated using BFGS update

 41 Hessian modes will be used to form the next step
  Hessian Eigenvalues:
     0.018593    0.019738    0.020011    0.020794    0.021683    0.022200
     0.022636    0.023004    0.023236    0.023608    0.023851    0.023984
     0.024127    0.159387    0.160000    0.160000    0.160000    0.160078
     0.161972    0.208898    0.220283    0.239537    0.246175    0.247451
     0.355399    0.357147    0.357763    0.358369    0.360908    0.364488
     0.369812    0.377936    0.410610    0.426834    0.438044    0.460924
     0.469865    0.476349    0.478011    0.494626    1.307438

 Minimum search - taking simple RFO step
 Searching for Lamda that Minimizes Along All modes
 Value Taken    Lamda =  -0.00437586
 Step Taken.  Stepsize is  0.086999

                             Maximum     Tolerance    Cnvgd?
         Gradient           0.031992      0.000300      NO
         Displacement       0.040623      0.001200      NO
         Energy change      0.001935      0.000001      NO


 New Cartesian Coordinates Obtained by Inverse Iteration

 Displacement from previous Coordinates is:  0.131997
 ----------------------------------------------------------------
             Standard Nuclear Orientation (Angstroms)
    I     Atom           X                Y                Z
 ----------------------------------------------------------------
    1      C       2.1735212051    -0.6907685734    -0.0001075142
    2      C       2.1326933086     0.7016730181    -0.0000248061
    3      C       0.9141191349     1.4240728244     0.0000675691
    4      C      -0.2459644287     0.6489861460     0.0001286460
    5      C      -0.2320070753    -0.7580233225     0.0000081488
    6      C       0.9912708244    -1.4579086467    -0.0000811364
    7      N      -1.5796968134     1.0541855761     0.0001038274
    8      C      -1.5971846664    -1.1712347855     0.0000738324
    9      C      -2.3933599043     0.0094000990     0.0001334424
   10      H      -1.9127517349     2.0662322477     0.0000969278
   11      H      -1.9821119785    -2.1973418572    -0.0000263943
   12      H      -3.4834361060     0.1505976270     0.0000591581
   13      H       3.0753561313     1.2656217272     0.0000341865
   14      H       0.8789173719     2.5213189030     0.0002157514
   15      H       3.1464146057    -1.1991746069    -0.0001367438
   16      H       1.0173150770    -2.5550838837    -0.0000189142
 ----------------------------------------------------------------
 Molecular Point Group                 C1    NOp =  1
 Largest Abelian Subgroup              C1    NOp =  1
 Nuclear Repulsion Energy =         399.26431095 hartrees
 There are       31 alpha and       31 beta electrons
 Applying Cartesian multipole field
    Component          Value
    ---------          -----
     (2,0,0)        1.00000E-11
     (0,2,0)        2.00000E-11
     (0,0,2)       -3.00000E-11
 Nucleus-field energy     =     0.0000000118 hartrees
 Requested basis set is 6-31+G(d)
 There are 59 shells and 185 basis functions
 A cutoff of  1.0D-12 yielded   1657 shell pairs
 There are     17105 function pairs
 Smallest overlap matrix eigenvalue = 1.27E-06
 Guess MOs from SCF MO coefficient file

 -----------------------------------------------------------------------
  General SCF calculation program by
  Eric Jon Sundstrom, Paul Horn, Yuezhi Mao, Dmitri Zuev, Alec White,
  David Stuck, Shaama M.S., Shane Yost, Joonho Lee, David Small,
  Daniel Levine, Susi Lehtola, Hugh Burton, Evgeny Epifanovsky,
  Bang C. Huynh
 -----------------------------------------------------------------------
 Exchange:  Slater      Correlation:  VWN5
 Using SG-1 standard quadrature grid
 using 4 threads for integral computing
 -------------------------------------------------------
 OpenMP Integral computing Module                
 Release: version 1.0, May 2013, Q-Chem Inc. Pittsburgh 
 -------------------------------------------------------
 A restricted SCF calculation will be
 performed using DIIS
 SCF converges when DIIS error is below 1.0e-08
 ---------------------------------------
  Cycle       Energy         DIIS error
 ---------------------------------------
    1    -360.5641002039      3.34e-04  
    2    -360.5647014703      1.57e-04  
    3    -360.5646224460      1.99e-04  
    4    -360.5647935749      5.66e-05  
    5    -360.5648089670      1.34e-05  
    6    -360.5648096860      4.56e-06  
    7    -360.5648097804      8.59e-07  
    8    -360.5648097824      5.46e-07  
    9    -360.5648097838      8.89e-08  
   10    -360.5648097839      5.71e-08  
   11    -360.5648097839      1.39e-08  
   12    -360.5648097839      2.94e-09  Convergence criterion met
 ---------------------------------------
 SCF time:   CPU 24.77s  wall 8.00s 
 SCF   energy in the final basis set =     -360.5648097839
 Total energy in the final basis set =     -360.5648097839
 
 Direct TDDFT/TDA calculation will be performed
 Exchange:  Slater      Correlation:  VWN5
 Using SG-1 standard quadrature grid
 Singlet excitation energies requested
 CIS energy converged when residual is below 10e- 6
 ---------------------------------------------------
 Iter    Rts Conv    Rts Left    Ttl Dev     Max Dev
 ---------------------------------------------------
   1         0           3      0.003982    0.001959
   2         0           3      0.003075    0.001540
   3         0           3      0.001877    0.001227
   4         0           3      0.001523    0.001118
   5         1           2      0.000424    0.000293
   6         1           2      0.000132    0.000095
   7         1           2      0.000027    0.000021
   8         1           2      0.000004    0.000003
   9         3           0      0.000001    0.000001    Roots Converged
 ---------------------------------------------------
 
 ---------------------------------------------------
         TDDFT/TDA Excitation Energies              
 ---------------------------------------------------

 Excited state   1: excitation energy (eV) =    4.1671
 Total energy for state  1:                  -360.41167194 au
    Multiplicity: Singlet
    Trans. Mom.: -0.5992 X   0.5646 Y   0.0000 Z
    Strength   :     0.0691999362
    D(   29) --> V(    1) amplitude = -0.2674
    D(   31) --> V(    1) amplitude =  0.8946

 Excited state   2: excitation energy (eV) =    4.2596
 Total energy for state  2:                  -360.40827404 au
    Multiplicity: Singlet
    Trans. Mom.:  0.0003 X  -0.0002 Y  -0.0931 Z
    Strength   :     0.0009042006
    D(   31) --> V(    2) amplitude =  0.9995

 Excited state   3: excitation energy (eV) =    4.6729
 Total energy for state  3:                  -360.39308280 au
    Multiplicity: Singlet
    Trans. Mom.:  0.0531 X  -0.1714 Y  -0.0000 Z
    Strength   :     0.0036883663
    D(   30) --> V(    1) amplitude =  0.7036
    D(   31) --> V(    3) amplitude =  0.6772
 
 ---------------------------------------------------
 Calculating Relaxed Density
 ---------------------------------------------------
 Iter    Rts Conv    Rts Left    Ttl Dev     Max Dev
 ---------------------------------------------------
   1         0           3      0.002652    0.001305
   2         0           3      0.000942    0.000505
   3         0           3      0.000244    0.000112
   4         0           3      0.000083    0.000043
   5         0           3      0.000011    0.000005
   6         3           0      0.000000    0.000000    Roots Converged
 ---------------------------------------------------
  SETman timing summary (seconds)
  CPU time               108.44s
  System time              0.00s
  Wall time               38.17s
 
 --------------------------------------------------------------
 
                    Orbital Energies (a.u.)
 --------------------------------------------------------------
 
 Alpha MOs
 -- Occupied --
-13.9377  -9.8331  -9.8295  -9.8052  -9.7979  -9.7966  -9.7962  -9.7933
 -9.7887  -0.9096  -0.7639  -0.7034  -0.6702  -0.6400  -0.5703  -0.5363
 -0.5231  -0.4896  -0.4326  -0.4235  -0.3964  -0.3897  -0.3866  -0.3601
 -0.3490  -0.3115  -0.3069  -0.3003  -0.2512  -0.2137  -0.1807
 -- Virtual --
 -0.0549  -0.0246  -0.0147   0.0020   0.0109   0.0114   0.0250   0.0274
  0.0407   0.0475   0.0512   0.0551   0.0706   0.0750   0.0901   0.0945
  0.0967   0.1114   0.1166   0.1194   0.1347   0.1359   0.1454   0.1462
  0.1515   0.1553   0.1643   0.1675   0.1750   0.1780   0.1828   0.1838
  0.1965   0.1986   0.2095   0.2154   0.2166   0.2198   0.2291   0.2362
  0.2488   0.2528   0.2601   0.2655   0.2708   0.2739   0.2893   0.3063
  0.3205   0.3250   0.3306   0.3558   0.3743   0.4065   0.4628   0.5212
  0.5597   0.6133   0.6223   0.6381   0.6630   0.6642   0.6707   0.6746
  0.6762   0.6934   0.6965   0.7128   0.7282   0.7293   0.7568   0.7898
  0.8194   0.8307   0.8389   0.8763   0.8830   0.8903   0.8976   0.9206
  0.9344   0.9639   0.9734   0.9853   1.0380   1.0571   1.0638   1.1170
  1.1233   1.1525   1.1706   1.1792   1.1866   1.2564   1.2630   1.2881
  1.3083   1.3446   1.3488   1.3805   1.4063   1.4079   1.4298   1.4372
  1.4783   1.5160   1.5741   1.7065   1.7601   1.8047   1.8279   1.8366
  1.8538   1.9021   1.9092   1.9365   1.9728   2.0002   2.0618   2.0915
  2.0940   2.0967   2.1637   2.1713   2.1978   2.2149   2.2346   2.3001
  2.3285   2.3746   2.4439   2.4790   2.5454   2.5700   2.5777   2.5965
  2.6463   2.7153   2.7487   2.7622   2.8604   2.8978   2.9856   3.1434
  3.3303   4.0546   4.1568   4.1923   4.2217   4.2617   4.2999   4.3826
  4.4256   4.6859
 --------------------------------------------------------------
 
          Ground-State Mulliken Net Atomic Charges

     Atom                 Charge (a.u.)
  ----------------------------------------
      1 C                    -0.003349
      2 C                    -0.468946
      3 C                    -0.063168
      4 C                    -1.319187
      5 C                     1.361362
      6 C                    -0.534287
      7 N                    -0.381989
      8 C                     0.048082
      9 C                    -0.262854
     10 H                     0.414442
     11 H                     0.205384
     12 H                     0.213502
     13 H                     0.193028
     14 H                     0.198728
     15 H                     0.194634
     16 H                     0.204619
  ----------------------------------------
  Sum of atomic charges =     0.000000

 -----------------------------------------------------------------
                    Cartesian Multipole Moments
 -----------------------------------------------------------------
    Charge (ESU x 10^10)
                -0.0000
    Dipole Moment (Debye)
         X      -1.5837      Y       1.8779      Z       0.0001
       Tot       2.4566
    Quadrupole Moments (Debye-Ang)
        XX     -45.2293     XY      -4.1770     YY     -44.2170
        XZ       0.0005     YZ       0.0008     ZZ     -59.3443
    Octopole Moments (Debye-Ang^2)
       XXX     -15.6930    XXY      10.2118    XYY      -8.4982
       YYY      12.3946    XXZ      -0.0022    XYZ      -0.0002
       YYZ      -0.0006    XZZ      -2.0684    YZZ       2.6232
       ZZZ      -0.0059
    Hexadecapole Moments (Debye-Ang^3)
      XXXX    -823.4395   XXXY     -24.9289   XXYY    -198.8624
      XYYY     -18.9487   YYYY    -374.7657   XXXZ       0.0186
      XXYZ       0.0004   XYYZ       0.0074   YYYZ      -0.0038
      XXZZ    -193.2551   XYZZ      -3.2152   YYZZ     -96.6904
      XZZZ       0.0195   YZZZ      -0.0087   ZZZZ     -75.3405
 -----------------------------------------------------------------
 Calculating analytic gradient of the CIS energy
 CIS relaxed dipole moment
            1
    1   2.1777200
    2  -2.7172175
    3  -0.0005657
	Magnitude:	 3.482 au	 8.851 Debye
 CIS 2 State Energy is -360.4082740417
 Gradient of the state energy (including CIS Excitation Energy)
            1           2           3           4           5           6
    1   0.0066990   0.0034851   0.0075140   0.0011580   0.0103564  -0.0058674
    2   0.0089323  -0.0046383   0.0154209  -0.0208286   0.0145315  -0.0114814
    3  -0.0000026  -0.0000026  -0.0000131   0.0000255  -0.0000160  -0.0000056
            7           8           9          10          11          12
    1  -0.0069199  -0.0084364  -0.0198995   0.0090792  -0.0004876   0.0018627
    2   0.0278506   0.0024841  -0.0063449  -0.0244796  -0.0002893  -0.0019961
    3  -0.0000079   0.0000083   0.0000109  -0.0000055  -0.0000020  -0.0000049
           13          14          15          16
    1   0.0004609   0.0011702   0.0003638  -0.0005386
    2   0.0004628   0.0009169   0.0000365  -0.0005775
    3   0.0000028   0.0000056   0.0000013   0.0000059
 Gradient time:  CPU 21.42 s  wall 6.83 s
 Geometry Optimization Parameters
   NAtoms,    NIC,     NZ,  NCons,   NDum,   NFix, NCnnct, MaxDiis
       16     116       0       0       0       0       0       0

 Cartesian Hessian Update
 Hessian updated using BFGS update


** GEOMETRY OPTIMIZATION IN DELOCALIZED INTERNAL COORDINATES **
   Searching for a Minimum

   Optimization Cycle:   4

                       Coordinates (Angstroms)
     ATOM                X               Y               Z
      1  C         2.1735212051   -0.6907685734   -0.0001075142
      2  C         2.1326933086    0.7016730181   -0.0000248061
      3  C         0.9141191349    1.4240728244    0.0000675691
      4  C        -0.2459644287    0.6489861460    0.0001286460
      5  C        -0.2320070753   -0.7580233225    0.0000081488
      6  C         0.9912708244   -1.4579086467   -0.0000811364
      7  N        -1.5796968134    1.0541855761    0.0001038274
      8  C        -1.5971846664   -1.1712347855    0.0000738324
      9  C        -2.3933599043    0.0094000990    0.0001334424
     10  H        -1.9127517349    2.0662322477    0.0000969278
     11  H        -1.9821119785   -2.1973418572   -0.0000263943
     12  H        -3.4834361060    0.1505976270    0.0000591581
     13  H         3.0753561313    1.2656217272    0.0000341865
     14  H         0.8789173719    2.5213189030    0.0002157514
     15  H         3.1464146057   -1.1991746069   -0.0001367438
     16  H         1.0173150770   -2.5550838837   -0.0000189142
   Point Group: c1    Number of degrees of freedom:    42


   Energy is   -360.408274042

 Hessian updated using BFGS update

 41 Hessian modes will be used to form the next step
  Hessian Eigenvalues:
     0.018594    0.019738    0.020011    0.020794    0.021683    0.022200
     0.022636    0.023004    0.023236    0.023608    0.023851    0.023984
     0.024127    0.159390    0.159849    0.160000    0.160000    0.160319
     0.162196    0.207056    0.220491    0.239477    0.244090    0.246678
     0.344350    0.357202    0.357372    0.357854    0.361020    0.364368
     0.370027    0.380872    0.424427    0.431102    0.446240    0.458650
     0.463040    0.473607    0.490599    0.506028    0.759751

 Minimum search - taking simple RFO step
 Searching for Lamda that Minimizes Along All modes
 Value Taken    Lamda =  -0.00329722
 Step Taken.  Stepsize is  0.084189

                             Maximum     Tolerance    Cnvgd?
         Gradient           0.019415      0.000300      NO
         Displacement       0.047546      0.001200      NO
         Energy change     -0.003066      0.000001      NO


 New Cartesian Coordinates Obtained by Inverse Iteration

 Displacement from previous Coordinates is:  0.116005
 ----------------------------------------------------------------
             Standard Nuclear Orientation (Angstroms)
    I     Atom           X                Y                Z
 ----------------------------------------------------------------
    1      C       2.1623448719    -0.6948949478    -0.0000068921
    2      C       2.1202237207     0.6999838484    -0.0000437462
    3      C       0.9072559364     1.4148468859     0.0000878687
    4      C      -0.2467065588     0.6543579904     0.0001234661
    5      C      -0.2353462101    -0.7623562606     0.0000116052
    6      C       0.9901849081    -1.4528842893    -0.0000599314
    7      N      -1.5725427890     1.0603151084     0.0001845905
    8      C      -1.5869696365    -1.1787152414    -0.0000208158
    9      C      -2.3672998219     0.0087186402     0.0001155704
   10      H      -1.9221747649     2.0892457919     0.0001633962
   11      H      -1.9746894417    -2.1984829674    -0.0001137285
   12      H      -3.4556756884     0.1505502773     0.0001201456
   13      H       3.0587798105     1.2632468925    -0.0000981044
   14      H       0.8720470508     2.5073247623     0.0001273600
   15      H       3.1313492790    -1.2029208491    -0.0000051021
   16      H       1.0223142852    -2.5457831492    -0.0000597010
 ----------------------------------------------------------------
 Molecular Point Group                 C1    NOp =  1
 Largest Abelian Subgroup              C1    NOp =  1
 Nuclear Repulsion Energy =         400.65653033 hartrees
 There are       31 alpha and       31 beta electrons
 Applying Cartesian multipole field
    Component          Value
    ---------          -----
     (2,0,0)        1.00000E-11
     (0,2,0)        2.00000E-11
     (0,0,2)       -3.00000E-11
 Nucleus-field energy     =     0.0000000117 hartrees
 Requested basis set is 6-31+G(d)
 There are 59 shells and 185 basis functions
 A cutoff of  1.0D-12 yielded   1657 shell pairs
 There are     17105 function pairs
 Smallest overlap matrix eigenvalue = 1.21E-06
 Guess MOs from SCF MO coefficient file

 -----------------------------------------------------------------------
  General SCF calculation program by
  Eric Jon Sundstrom, Paul Horn, Yuezhi Mao, Dmitri Zuev, Alec White,
  David Stuck, Shaama M.S., Shane Yost, Joonho Lee, David Small,
  Daniel Levine, Susi Lehtola, Hugh Burton, Evgeny Epifanovsky,
  Bang C. Huynh
 -----------------------------------------------------------------------
 Exchange:  Slater      Correlation:  VWN5
 Using SG-1 standard quadrature grid
 using 4 threads for integral computing
 -------------------------------------------------------
 OpenMP Integral computing Module                
 Release: version 1.0, May 2013, Q-Chem Inc. Pittsburgh 
 -------------------------------------------------------
 A restricted SCF calculation will be
 performed using DIIS
 SCF converges when DIIS error is below 1.0e-08
 ---------------------------------------
  Cycle       Energy         DIIS error
 ---------------------------------------
    1    -360.5633272741      3.35e-04  
    2    -360.5638901596      1.70e-04  
    3    -360.5637708258      2.37e-04  
    4    -360.5639960330      5.92e-05  
    5    -360.5640097512      2.21e-05  
    6    -360.5640118716      8.04e-06  
    7    -360.5640121903      1.79e-06  
    8    -360.5640122048      6.04e-07  
    9    -360.5640122063      1.96e-07  
   10    -360.5640122064      6.53e-08  
   11    -360.5640122065      2.21e-08  
   12    -360.5640122065      3.71e-09  Convergence criterion met
 ---------------------------------------
 SCF time:   CPU 24.80s  wall 8.00s 
 SCF   energy in the final basis set =     -360.5640122065
 Total energy in the final basis set =     -360.5640122065
 
 Direct TDDFT/TDA calculation will be performed
 Exchange:  Slater      Correlation:  VWN5
 Using SG-1 standard quadrature grid
 Singlet excitation energies requested
 CIS energy converged when residual is below 10e- 6
 ---------------------------------------------------
 Iter    Rts Conv    Rts Left    Ttl Dev     Max Dev
 ---------------------------------------------------
   1         0           3      0.004006    0.001976
   2         0           3      0.003114    0.001560
   3         0           3      0.002174    0.001162
   4         0           3      0.001739    0.001281
   5         1           2      0.000675    0.000449
   6         1           2      0.000166    0.000106
   7         1           2      0.000032    0.000019
   8         1           2      0.000005    0.000003
   9         3           0      0.000001    0.000000    Roots Converged
 ---------------------------------------------------
 
 ---------------------------------------------------
         TDDFT/TDA Excitation Energies              
 ---------------------------------------------------

 Excited state   1: excitation energy (eV) =    4.1726
 Total energy for state  1:                  -360.41067120 au
    Multiplicity: Singlet
    Trans. Mom.:  0.0001 X  -0.0001 Y   0.0875 Z
    Strength   :     0.0007833731
    D(   31) --> V(    2) amplitude =  0.9994

 Excited state   2: excitation energy (eV) =    4.2847
 Total energy for state  2:                  -360.40655308 au
    Multiplicity: Singlet
    Trans. Mom.:  0.6618 X  -0.5560 Y  -0.0001 Z
    Strength   :     0.0784158747
    D(   29) --> V(    1) amplitude =  0.2537
    D(   31) --> V(    1) amplitude =  0.8875
    D(   31) --> V(    3) amplitude =  0.2253

 Excited state   3: excitation energy (eV) =    4.7150
 Total energy for state  3:                  -360.39073963 au
    Multiplicity: Singlet
    Trans. Mom.:  0.0909 X  -0.1656 Y   0.0000 Z
    Strength   :     0.0041216653
    D(   30) --> V(    1) amplitude =  0.7057
    D(   31) --> V(    3) amplitude = -0.6738
 
 ---------------------------------------------------
 Calculating Relaxed Density
 ---------------------------------------------------
 Iter    Rts Conv    Rts Left    Ttl Dev     Max Dev
 ---------------------------------------------------
   1         0           3      0.002620    0.001279
   2         0           3      0.000945    0.000505
   3         0           3      0.000246    0.000112
   4         0           3      0.000085    0.000044
   5         0           3      0.000011    0.000005
   6         3           0      0.000000    0.000000    Roots Converged
 ---------------------------------------------------
  SETman timing summary (seconds)
  CPU time               109.20s
  System time              0.00s
  Wall time               37.57s
 
 --------------------------------------------------------------
 
                    Orbital Energies (a.u.)
 --------------------------------------------------------------
 
 Alpha MOs
 -- Occupied --
-13.9400  -9.8315  -9.8275  -9.8016  -9.7953  -9.7942  -9.7935  -9.7905
 -9.7872  -0.9124  -0.7649  -0.7053  -0.6707  -0.6400  -0.5698  -0.5370
 -0.5244  -0.4897  -0.4325  -0.4226  -0.3978  -0.3917  -0.3869  -0.3615
 -0.3470  -0.3112  -0.3075  -0.2990  -0.2530  -0.2127  -0.1807
 -- Virtual --
 -0.0518  -0.0279  -0.0136   0.0023   0.0115   0.0126   0.0255   0.0275
  0.0404   0.0475   0.0512   0.0557   0.0708   0.0753   0.0902   0.0953
  0.0971   0.1119   0.1145   0.1199   0.1345   0.1378   0.1460   0.1466
  0.1525   0.1568   0.1658   0.1684   0.1753   0.1799   0.1833   0.1836
  0.1975   0.2008   0.2104   0.2161   0.2164   0.2218   0.2298   0.2370
  0.2492   0.2536   0.2614   0.2685   0.2717   0.2758   0.2909   0.3084
  0.3237   0.3271   0.3376   0.3554   0.3792   0.4073   0.4671   0.5237
  0.5652   0.6138   0.6239   0.6379   0.6627   0.6649   0.6726   0.6752
  0.6816   0.6941   0.7004   0.7138   0.7303   0.7322   0.7613   0.7913
  0.8199   0.8328   0.8430   0.8783   0.8839   0.8904   0.8991   0.9229
  0.9373   0.9553   0.9710   0.9872   1.0384   1.0573   1.0642   1.1201
  1.1261   1.1526   1.1714   1.1792   1.1876   1.2559   1.2680   1.2881
  1.3119   1.3520   1.3540   1.3847   1.4009   1.4085   1.4336   1.4399
  1.4809   1.5220   1.5868   1.6975   1.7641   1.8154   1.8297   1.8411
  1.8621   1.9004   1.9166   1.9425   1.9860   2.0123   2.0714   2.0815
  2.0957   2.1065   2.1694   2.1799   2.1979   2.2283   2.2444   2.3082
  2.3424   2.3798   2.4536   2.4871   2.5543   2.5714   2.5882   2.6065
  2.6489   2.7248   2.7586   2.7679   2.8646   2.9063   3.0003   3.1492
  3.3487   4.0571   4.1632   4.1969   4.2230   4.2658   4.3017   4.3870
  4.4279   4.6920
 --------------------------------------------------------------
 
          Ground-State Mulliken Net Atomic Charges

     Atom                 Charge (a.u.)
  ----------------------------------------
      1 C                     0.011492
      2 C                    -0.489798
      3 C                    -0.011468
      4 C                    -1.300282
      5 C                     1.302808
      6 C                    -0.572571
      7 N                    -0.365991
      8 C                     0.102764
      9 C                    -0.292087
     10 H                     0.412705
     11 H                     0.206676
     12 H                     0.209837
     13 H                     0.191823
     14 H                     0.197192
     15 H                     0.193820
     16 H                     0.203080
  ----------------------------------------
  Sum of atomic charges =     0.000000

 -----------------------------------------------------------------
                    Cartesian Multipole Moments
 -----------------------------------------------------------------
    Charge (ESU x 10^10)
                -0.0000
    Dipole Moment (Debye)
         X      -1.6510      Y       1.9102      Z       0.0000
       Tot       2.5248
    Quadrupole Moments (Debye-Ang)
        XX     -45.4499     XY      -4.2831     YY     -44.0361
        XZ      -0.0003     YZ       0.0005     ZZ     -59.2060
    Octopole Moments (Debye-Ang^2)
       XXX     -15.2440    XXY      10.2724    XYY      -9.2342
       YYY      12.8111    XXZ      -0.0020    XYZ      -0.0013
       YYZ      -0.0020    XZZ      -2.1246    YZZ       2.6316
       ZZZ      -0.0069
    Hexadecapole Moments (Debye-Ang^3)
      XXXX    -819.3503   XXXY     -24.5873   XXYY    -195.7314
      XYYY     -19.1772   YYYY    -373.9477   XXXZ       0.0079
      XXYZ      -0.0020   XYYZ       0.0039   YYYZ      -0.0050
      XXZZ    -190.8774   XYZZ      -2.8637   YYZZ     -96.3772
      XZZZ       0.0133   YZZZ      -0.0108   ZZZZ     -74.9357
 -----------------------------------------------------------------
 Calculating analytic gradient of the CIS energy
 CIS relaxed dipole moment
            1
    1  -2.0884704
    2   0.5426893
    3  -0.0001986
	Magnitude:	 2.158 au	 5.485 Debye
 CIS 2 State Energy is -360.4065530790
 Gradient of the state energy (including CIS Excitation Energy)
            1           2           3           4           5           6
    1  -0.0130385  -0.0065335  -0.0135372  -0.0017602  -0.0177270   0.0097280
    2  -0.0176255   0.0111088  -0.0294248   0.0432688  -0.0311352   0.0218592
    3   0.0000070  -0.0000097   0.0000061   0.0000048  -0.0000018  -0.0000096
            7           8           9          10          11          12
    1   0.0154963   0.0114785   0.0380030  -0.0155518   0.0015843  -0.0023767
    2  -0.0433145  -0.0051705   0.0055011   0.0405339   0.0011789   0.0041688
    3   0.0000057  -0.0000034   0.0000025  -0.0000056   0.0000004  -0.0000009
           13          14          15          16
    1  -0.0023881  -0.0018518  -0.0023194   0.0007941
    2  -0.0009669  -0.0025000   0.0002796   0.0022384
    3  -0.0000004   0.0000010   0.0000023   0.0000016
 Gradient time:  CPU 21.91 s  wall 7.42 s
 Geometry Optimization Parameters
   NAtoms,    NIC,     NZ,  NCons,   NDum,   NFix, NCnnct, MaxDiis
       16     116       0       0       0       0       0       0

 Cartesian Hessian Update
 Hessian updated using BFGS update


** GEOMETRY OPTIMIZATION IN DELOCALIZED INTERNAL COORDINATES **
   Searching for a Minimum

   Optimization Cycle:   5

                       Coordinates (Angstroms)
     ATOM                X               Y               Z
      1  C         2.1623448719   -0.6948949478   -0.0000068921
      2  C         2.1202237207    0.6999838484   -0.0000437462
      3  C         0.9072559364    1.4148468859    0.0000878687
      4  C        -0.2467065588    0.6543579904    0.0001234661
      5  C        -0.2353462101   -0.7623562606    0.0000116052
      6  C         0.9901849081   -1.4528842893   -0.0000599314
      7  N        -1.5725427890    1.0603151084    0.0001845905
      8  C        -1.5869696365   -1.1787152414   -0.0000208158
      9  C        -2.3672998219    0.0087186402    0.0001155704
     10  H        -1.9221747649    2.0892457919    0.0001633962
     11  H        -1.9746894417   -2.1984829674   -0.0001137285
     12  H        -3.4556756884    0.1505502773    0.0001201456
     13  H         3.0587798105    1.2632468925   -0.0000981044
     14  H         0.8720470508    2.5073247623    0.0001273600
     15  H         3.1313492790   -1.2029208491   -0.0000051021
     16  H         1.0223142852   -2.5457831492   -0.0000597010
   Point Group: c1    Number of degrees of freedom:    42


   Energy is   -360.406553079

 Hessian updated using BFGS update

 42 Hessian modes will be used to form the next step
  Hessian Eigenvalues:
     0.018594    0.019738    0.020011    0.020794    0.021683    0.022200
     0.022636    0.023004    0.023236    0.023608    0.023851    0.023984
     0.024127    0.159386    0.159924    0.160000    0.160000    0.160048
     0.160300    0.162190    0.209606    0.220477    0.239549    0.246637
     0.257925    0.357126    0.357282    0.357847    0.360709    0.364276
     0.368801    0.374597    0.388556    0.425574    0.435619    0.450285
     0.461622    0.468299    0.476320    0.490524    0.552046    1.649564

 Minimum search - taking simple RFO step
 Searching for Lamda that Minimizes Along All modes
 Value Taken    Lamda =  -0.00415034
 Step Taken.  Stepsize is  0.057092

                             Maximum     Tolerance    Cnvgd?
         Gradient           0.036941      0.000300      NO
         Displacement       0.031887      0.001200      NO
         Energy change      0.001721      0.000001      NO


 New Cartesian Coordinates Obtained by Inverse Iteration

 Displacement from previous Coordinates is:  0.080226
 ----------------------------------------------------------------
             Standard Nuclear Orientation (Angstroms)
    I     Atom           X                Y                Z
 ----------------------------------------------------------------
    1      C       2.1709116000    -0.6926797662    -0.0000157478
    2      C       2.1286618229     0.7002589629    -0.0000059470
    3      C       0.9115307857     1.4206919773     0.0000559186
    4      C      -0.2466468364     0.6501814051     0.0000719888
    5      C      -0.2327920224    -0.7588913248     0.0000187395
    6      C       0.9918140901    -1.4566461659    -0.0000143737
    7      N      -1.5786907400     1.0558828909     0.0001423579
    8      C      -1.5930867349    -1.1728636107    -0.0000373666
    9      C      -2.3856816294     0.0103810107     0.0000995275
   10      H      -1.9177922699     2.0759514212     0.0002418778
   11      H      -1.9796095457    -2.1967919481    -0.0001186570
   12      H      -3.4757724353     0.1500622353     0.0001417403
   13      H       3.0708122155     1.2634237441    -0.0000396400
   14      H       0.8758091934     2.5164350503     0.0000813048
[...]
            1           2           3           4           5           6
    1   0.0041588   0.0017104   0.0055588   0.0019386   0.0069647  -0.0032974
    2   0.0060256  -0.0032490   0.0115241  -0.0164096   0.0122515  -0.0086557
    3   0.0000289   0.0008776   0.0010061  -0.0020099   0.0027860   0.0014804
            7           8           9          10          11          12
    1  -0.0065469  -0.0061473  -0.0135957   0.0068099  -0.0002520   0.0018165
    2   0.0198986   0.0012884  -0.0037703  -0.0179068   0.0004038  -0.0017523
    3  -0.0037449  -0.0008303  -0.0000845   0.0025766  -0.0001090   0.0007606
           13          14          15          16
    1   0.0001756   0.0008305   0.0001254  -0.0002499
    2   0.0000975   0.0000248   0.0001323   0.0000971
    3  -0.0001989  -0.0010413  -0.0004421  -0.0010553
 Gradient time:  CPU 18.99 s  wall 4.78 s
 Geometry Optimization Parameters
   NAtoms,    NIC,     NZ,  NCons,   NDum,   NFix, NCnnct, MaxDiis
       16     116       0       0       0       0       0       0

 Cartesian Hessian Update
 Hessian updated using BFGS update


** GEOMETRY OPTIMIZATION IN DELOCALIZED INTERNAL COORDINATES **
   Searching for a Minimum

   Optimization Cycle:  49

                       Coordinates (Angstroms)
     ATOM                X               Y               Z
      1  C         2.1711929491   -0.6930818356    0.0052876974
      2  C         2.1288427008    0.7001319225    0.0036823297
      3  C         0.9119990001    1.4218092085   -0.0041877392
      4  C        -0.2464653955    0.6493564089   -0.0046508357
      5  C        -0.2321794356   -0.7577856310    0.0005409299
      6  C         0.9926682260   -1.4578181885    0.0040297948
      7  N        -1.5800420282    1.0561009077   -0.0082403905
      8  C        -1.5931652111   -1.1720714922   -0.0046135231
      9  C        -2.3873601117    0.0110120905   -0.0044180859
     10  H        -1.9179102701    2.0773372156    0.0206215562
     11  H        -1.9800169256   -2.1960846857   -0.0037969466
     12  H        -3.4774263113    0.1471793126    0.0072361129
     13  H         3.0719303846    1.2622792324    0.0024594908
     14  H         0.8764209111    2.5175747329   -0.0146242901
     15  H         3.1446980248   -1.1994276984    0.0039392397
     16  H         1.0199084438   -2.5539590075   -0.0027393591
   Point Group: c1    Number of degrees of freedom:    42


   Energy is   -360.409085064

 Hessian updated using BFGS update

 42 Hessian modes will be used to form the next step
  Hessian Eigenvalues:
     0.013910    0.020108    0.020811    0.021567    0.022378    0.022780
     0.023216    0.023392    0.023771    0.023944    0.025612    0.034811
     0.041059    0.159494    0.159961    0.160010    0.160070    0.160410
     0.161114    0.162935    0.219206    0.224367    0.242010    0.248453
     0.259093    0.357241    0.357826    0.358050    0.362514    0.364451
     0.372258    0.375384    0.391663    0.429368    0.438966    0.456401
     0.468205    0.473022    0.484682    0.516355    0.572626   16.493616

 Minimum search - taking simple RFO step
 Searching for Lamda that Minimizes Along All modes
 Value Taken    Lamda =  -0.00298768
 Calculated Step too Large.  Step scaled by  0.764164
 Step Taken.  Stepsize is  0.300000

                             Maximum     Tolerance    Cnvgd?
         Gradient           0.014335      0.000300      NO
         Displacement       0.177724      0.001200      NO
         Energy change     -0.001189      0.000001      NO


 New Cartesian Coordinates Obtained by Inverse Iteration

 Displacement from previous Coordinates is:  0.244482
 ----------------------------------------------------------------
             Standard Nuclear Orientation (Angstroms)
    I     Atom           X                Y                Z
 ----------------------------------------------------------------
    1      C       2.1707740724    -0.6951116020    -0.0168625723
    2      C       2.1269707893     0.6987942765    -0.0107189847
    3      C       0.9089901918     1.4162120305     0.0089600736
    4      C      -0.2492309974     0.6515150779     0.0143214728
    5      C      -0.2337009741    -0.7608922946    -0.0028694036
    6      C       0.9933331523    -1.4555274826    -0.0143666979
    7      N      -1.5784235339     1.0579767728     0.0190857266
    8      C      -1.5887215337    -1.1751056855     0.0153457764
    9      C      -2.3797595773     0.0116733229     0.0128551568
   10      H      -1.9273865010     2.0898044881    -0.0628492556
   11      H      -1.9767908474    -2.1987323657     0.0172911100
   12      H      -3.4702638868     0.1514572816    -0.0205654469
   13      H       3.0685969245     1.2630074400    -0.0050482059
   14      H       0.8730997817     2.5113209309     0.0521306343
   15      H       3.1437654849    -1.2020669459    -0.0139809450
   16      H       1.0218424060    -2.5517727523     0.0077975427
 ----------------------------------------------------------------
 Molecular Point Group                 C1    NOp =  1
 Largest Abelian Subgroup              C1    NOp =  1
 Nuclear Repulsion Energy =         399.82702551 hartrees
 There are       31 alpha and       31 beta electrons
 Applying Cartesian multipole field
    Component          Value
    ---------          -----
     (2,0,0)        1.00000E-11
     (0,2,0)        2.00000E-11
     (0,0,2)       -3.00000E-11
 Nucleus-field energy     =     0.0000000118 hartrees
 Requested basis set is 6-31+G(d)
 There are 59 shells and 185 basis functions
 A cutoff of  1.0D-12 yielded   1657 shell pairs
 There are     17105 function pairs
 Smallest overlap matrix eigenvalue = 1.26E-06
 Guess MOs from SCF MO coefficient file

 -----------------------------------------------------------------------
  General SCF calculation program by
  Eric Jon Sundstrom, Paul Horn, Yuezhi Mao, Dmitri Zuev, Alec White,
  David Stuck, Shaama M.S., Shane Yost, Joonho Lee, David Small,
  Daniel Levine, Susi Lehtola, Hugh Burton, Evgeny Epifanovsky,
  Bang C. Huynh
 -----------------------------------------------------------------------
 Exchange:  Slater      Correlation:  VWN5
 Using SG-1 standard quadrature grid
 using 4 threads for integral computing
 -------------------------------------------------------
 OpenMP Integral computing Module                
 Release: version 1.0, May 2013, Q-Chem Inc. Pittsburgh 
 -------------------------------------------------------
 A restricted SCF calculation will be
 performed using DIIS
 SCF converges when DIIS error is below 1.0e-08
 ---------------------------------------
  Cycle       Energy         DIIS error
 ---------------------------------------
    1    -360.5589924555      7.53e-04  
    2    -360.5624023105      9.29e-05  
    3    -360.5623337295      1.60e-04  
    4    -360.5624297367      4.61e-05  
    5    -360.5624383792      1.73e-05  
    6    -360.5624397915      3.60e-06  
    7    -360.5624398373      2.00e-06  
    8    -360.5624398564      4.05e-07  
    9    -360.5624398571      1.66e-07  
   10    -360.5624398572      4.36e-08  
   11    -360.5624398572      1.57e-08  
   12    -360.5624398572      3.88e-09  Convergence criterion met
 ---------------------------------------
 SCF time:   CPU 18.63s  wall 5.00s 
 SCF   energy in the final basis set =     -360.5624398572
 Total energy in the final basis set =     -360.5624398572
 
 Direct TDDFT/TDA calculation will be performed
 Exchange:  Slater      Correlation:  VWN5
 Using SG-1 standard quadrature grid
 Singlet excitation energies requested
 CIS energy converged when residual is below 10e- 6
 ---------------------------------------------------
 Iter    Rts Conv    Rts Left    Ttl Dev     Max Dev
 ---------------------------------------------------
   1         0           3      0.004062    0.001973
   2         0           3      0.003341    0.001649
   3         0           3      0.002342    0.001544
   4         0           3      0.000773    0.000389
   5         0           3      0.000202    0.000107
   6         0           3      0.000047    0.000029
   7         1           2      0.000009    0.000005
   8         2           1      0.000002    0.000001
   9         3           0      0.000001    0.000000    Roots Converged
 ---------------------------------------------------
 
 ---------------------------------------------------
         TDDFT/TDA Excitation Energies              
 ---------------------------------------------------

 Excited state   1: excitation energy (eV) =    4.1295
 Total energy for state  1:                  -360.41068274 au
    Multiplicity: Singlet
    Trans. Mom.: -0.1871 X   0.1817 Y  -0.0750 Z
    Strength   :     0.0074531801
    D(   31) --> V(    1) amplitude = -0.3202
    D(   31) --> V(    2) amplitude =  0.9388

 Excited state   2: excitation energy (eV) =    4.2273
 Total energy for state  2:                  -360.40708836 au
    Multiplicity: Singlet
    Trans. Mom.:  0.6236 X  -0.5297 Y  -0.0412 Z
    Strength   :     0.0695032449
    D(   29) --> V(    1) amplitude =  0.2451
    D(   31) --> V(    1) amplitude =  0.8305
    D(   31) --> V(    2) amplitude =  0.3340
    D(   31) --> V(    3) amplitude = -0.2304

 Excited state   3: excitation energy (eV) =    4.6905
 Total energy for state  3:                  -360.39006621 au
    Multiplicity: Singlet
    Trans. Mom.: -0.0998 X   0.1652 Y   0.0006 Z
    Strength   :     0.0042814633
    D(   30) --> V(    1) amplitude =  0.7000
    D(   31) --> V(    3) amplitude = -0.6779
 
 ---------------------------------------------------
 Calculating Relaxed Density
 ---------------------------------------------------
 Iter    Rts Conv    Rts Left    Ttl Dev     Max Dev
 ---------------------------------------------------
   1         0           3      0.002383    0.001146
   2         0           3      0.000878    0.000459
   3         0           3      0.000224    0.000102
   4         0           3      0.000074    0.000040
   5         0           3      0.000010    0.000005
   6         3           0      0.000000    0.000000    Roots Converged
 ---------------------------------------------------
  SETman timing summary (seconds)
  CPU time                90.60s
  System time              0.00s
  Wall time               22.83s
 
 --------------------------------------------------------------
 
                    Orbital Energies (a.u.)
 --------------------------------------------------------------
 
 Alpha MOs
 -- Occupied --
-13.9405  -9.8325  -9.8285  -9.8035  -9.7963  -9.7959  -9.7949  -9.7921
 -9.7880  -0.9114  -0.7641  -0.7036  -0.6707  -0.6389  -0.5698  -0.5355
 -0.5234  -0.4890  -0.4325  -0.4231  -0.3977  -0.3903  -0.3861  -0.3600
 -0.3479  -0.3116  -0.3074  -0.2990  -0.2519  -0.2136  -0.1801
 -- Virtual --
 -0.0534  -0.0287  -0.0141   0.0020   0.0110   0.0120   0.0251   0.0272
  0.0404   0.0474   0.0506   0.0553   0.0706   0.0749   0.0899   0.0947
  0.0966   0.1111   0.1148   0.1196   0.1339   0.1367   0.1456   0.1463
  0.1519   0.1560   0.1648   0.1679   0.1749   0.1788   0.1822   0.1839
  0.1970   0.1998   0.2098   0.2155   0.2164   0.2209   0.2293   0.2365
  0.2490   0.2528   0.2606   0.2668   0.2709   0.2744   0.2899   0.3074
  0.3218   0.3260   0.3334   0.3517   0.3763   0.4062   0.4647   0.5220
  0.5622   0.6137   0.6239   0.6382   0.6629   0.6644   0.6723   0.6749
  0.6786   0.6939   0.6990   0.7134   0.7294   0.7308   0.7592   0.7903
  0.8190   0.8313   0.8402   0.8768   0.8824   0.8905   0.8985   0.9205
  0.9357   0.9495   0.9695   0.9860   1.0382   1.0563   1.0634   1.1167
  1.1236   1.1517   1.1641   1.1789   1.1887   1.2550   1.2640   1.2878
  1.3090   1.3460   1.3490   1.3853   1.4020   1.4096   1.4341   1.4387
  1.4833   1.5237   1.5804   1.6955   1.7606   1.8088   1.8265   1.8391
  1.8575   1.8966   1.9112   1.9404   1.9770   2.0060   2.0656   2.0793
  2.0936   2.1010   2.1677   2.1754   2.1989   2.2229   2.2397   2.3038
  2.3396   2.3773   2.4471   2.4839   2.5502   2.5698   2.5830   2.6005
  2.6460   2.7192   2.7529   2.7645   2.8607   2.9007   2.9877   3.1454
  3.3376   4.0534   4.1595   4.1931   4.2210   4.2630   4.3007   4.3846
  4.4264   4.6886
 --------------------------------------------------------------
 
          Ground-State Mulliken Net Atomic Charges

     Atom                 Charge (a.u.)
  ----------------------------------------
      1 C                     0.004515
      2 C                    -0.481392
      3 C                    -0.045186
      4 C                    -1.312396
      5 C                     1.336816
      6 C                    -0.540620
      7 N                    -0.360159
      8 C                     0.051278
      9 C                    -0.267917
     10 H                     0.409332
     11 H                     0.205882
     12 H                     0.211538
     13 H                     0.192355
     14 H                     0.197682
     15 H                     0.194625
     16 H                     0.203647
  ----------------------------------------
  Sum of atomic charges =     0.000000

 -----------------------------------------------------------------
                    Cartesian Multipole Moments
 -----------------------------------------------------------------
    Charge (ESU x 10^10)
                -0.0000
    Dipole Moment (Debye)
         X      -1.6339      Y       1.9106      Z      -0.0811
       Tot       2.5153
    Quadrupole Moments (Debye-Ang)
        XX     -45.3034     XY      -4.3208     YY     -44.1422
        XZ       0.4272     YZ      -0.2386     ZZ     -59.2943
    Octopole Moments (Debye-Ang^2)
       XXX     -15.4406    XXY      10.3724    XYY      -9.0770
       YYY      12.7782    XXZ      -0.9148    XYZ       0.6913
       YYZ      -0.2585    XZZ      -2.1163    YZZ       2.6624
       ZZZ      -0.3706
    Hexadecapole Moments (Debye-Ang^3)
      XXXX    -821.9422   XXXY     -24.6737   XXYY    -197.1883
      XYYY     -18.9389   YYYY    -374.6548   XXXZ       4.8660
      XXYZ      -1.4865   XYYZ       2.3833   YYYZ      -1.6807
      XXZZ    -192.3095   XYZZ      -2.7992   YYZZ     -96.6203
      XZZZ       2.7733   YZZZ      -0.9383   ZZZZ     -75.2957
 -----------------------------------------------------------------
 Calculating analytic gradient of the CIS energy
 CIS relaxed dipole moment
            1
    1  -1.6213022
    2   0.1742984
    3  -0.2414397
	Magnitude:	 1.648 au	 4.190 Debye
 CIS 2 State Energy is -360.4070883598
 Gradient of the state energy (including CIS Excitation Energy)
            1           2           3           4           5           6
    1  -0.0082276  -0.0035345  -0.0111808  -0.0042936  -0.0138807   0.0063409
    2  -0.0118806   0.0064633  -0.0224879   0.0320114  -0.0243888   0.0170760
    3  -0.0001459  -0.0016895  -0.0010662   0.0034913  -0.0045512  -0.0021209
            7           8           9          10          11          12
    1   0.0133533   0.0126154   0.0277391  -0.0142207   0.0005447  -0.0035976
    2  -0.0404393  -0.0025939   0.0079380   0.0364135  -0.0008460   0.0035639
    3   0.0087504   0.0016331   0.0001962  -0.0071884   0.0000495  -0.0014509
           13          14          15          16
    1  -0.0003738  -0.0015804  -0.0002677   0.0005638
    2  -0.0001905  -0.0003020  -0.0002139  -0.0001233
    3   0.0004026   0.0013018   0.0008169   0.0015711
 Gradient time:  CPU 18.20 s  wall 4.58 s
 Geometry Optimization Parameters
   NAtoms,    NIC,     NZ,  NCons,   NDum,   NFix, NCnnct, MaxDiis
       16     116       0       0       0       0       0       0

 Cartesian Hessian Update
 Hessian updated using BFGS update


** GEOMETRY OPTIMIZATION IN DELOCALIZED INTERNAL COORDINATES **
   Searching for a Minimum

   Optimization Cycle:  50

                       Coordinates (Angstroms)
     ATOM                X               Y               Z
      1  C         2.1707740724   -0.6951116020   -0.0168625723
      2  C         2.1269707893    0.6987942765   -0.0107189847
      3  C         0.9089901918    1.4162120305    0.0089600736
      4  C        -0.2492309974    0.6515150779    0.0143214728
      5  C        -0.2337009741   -0.7608922946   -0.0028694036
      6  C         0.9933331523   -1.4555274826   -0.0143666979
      7  N        -1.5784235339    1.0579767728    0.0190857266
      8  C        -1.5887215337   -1.1751056855    0.0153457764
      9  C        -2.3797595773    0.0116733229    0.0128551568
     10  H        -1.9273865010    2.0898044881   -0.0628492556
     11  H        -1.9767908474   -2.1987323657    0.0172911100
     12  H        -3.4702638868    0.1514572816   -0.0205654469
     13  H         3.0685969245    1.2630074400   -0.0050482059
     14  H         0.8730997817    2.5113209309    0.0521306343
     15  H         3.1437654849   -1.2020669459   -0.0139809450
     16  H         1.0218424060   -2.5517727523    0.0077975427
   Point Group: c1    Number of degrees of freedom:    42


   Energy is   -360.407088360

 Hessian updated using BFGS update

 42 Hessian modes will be used to form the next step
  Hessian Eigenvalues:
     0.020095    0.020698    0.021507    0.022084    0.022753    0.023178
     0.023271    0.023771    0.023940    0.025189    0.026802    0.040348
     0.078518    0.159498    0.159962    0.160010    0.160071    0.160419
     0.161137    0.162947    0.219205    0.224363    0.242013    0.248452
     0.259093    0.357241    0.357826    0.358050    0.362513    0.364451
     0.372262    0.375383    0.391664    0.429368    0.438964    0.456407
     0.468244    0.473024    0.484681    0.516366    0.572593   17.447480

 Minimum search - taking simple RFO step
 Searching for Lamda that Minimizes Along All modes
 Value Taken    Lamda =  -0.00253124
 Step Taken.  Stepsize is  0.181802

                             Maximum     Tolerance    Cnvgd?
         Gradient           0.029239      0.000300      NO
         Displacement       0.105509      0.001200      NO
         Energy change      0.001997      0.000001      NO


 New Cartesian Coordinates Obtained by Inverse Iteration

 Displacement from previous Coordinates is:  0.150367
 ----------------------------------------------------------------
             Standard Nuclear Orientation (Angstroms)
    I     Atom           X                Y                Z
 ----------------------------------------------------------------
    1      C       2.1712045517    -0.6939496915    -0.0026681038
    2      C       2.1283262701     0.6995746053    -0.0011031694
    3      C       0.9109604419     1.4195941384     0.0000668482
    4      C      -0.2474265826     0.6502267967     0.0012883284
    5      C      -0.2327173908    -0.7590333180    -0.0010021201
    6      C       0.9930630742    -1.4569171892    -0.0029027135
    7      N      -1.5793624871     1.0565821947     0.0019778997
    8      C      -1.5915782010    -1.1733388121     0.0017851323
    9      C      -2.3846077589     0.0111233998     0.0033483860
   10      H      -1.9218420861     2.0829892782    -0.0130060129
   11      H      -1.9789000617    -2.1972035151     0.0037834679
   12      H      -3.4750551775     0.1486677459    -0.0010690590
   13      H       3.0708416961     1.2625573739     0.0001598501
   14      H       0.8749950879     2.5154550289     0.0116642629
   15      H       3.1445049482    -1.2005740812    -0.0031211776
   16      H       1.0206886272    -2.5532014623     0.0013241621
 ----------------------------------------------------------------
 Molecular Point Group                 C1    NOp =  1
 Largest Abelian Subgroup              C1    NOp =  1
 Nuclear Repulsion Energy =         399.65361895 hartrees
 There are       31 alpha and       31 beta electrons


 *******************************************
 **  MAXIMUM OPTIMIZATION CYCLES REACHED  **
 *******************************************

 Q-Chem fatal error occurred in module 0, line  455:

 Maximum optimization cycles reached

