
Running Job 1 of 1 QfuncsWB97X-VI-2nd.in
qchem QfuncsWB97X-VI-2nd.in_98022.0 /scratch/scaparas/job_3585690/qchem98022/ 0
/cm/shared/apps/spack/cpu/opt/spack/linux-centos8-zen2/gcc-10.2.0/qchem-5.3-5qddma6gy34jvefiv7mbcb7qm253n45r/exe/qcprog.exe_s QfuncsWB97X-VI-2nd.in_98022.0 /scratch/scaparas/job_3585690/qchem98022/
                  Welcome to Q-Chem
     A Quantum Leap Into The Future Of Chemistry


 Q-Chem 5.3, Q-Chem, Inc., Pleasanton, CA (2020)

 License issued to: University of California, San Diego (site)

 Yihan Shao,  Zhengting Gan,  E. Epifanovsky,  A. T. B. Gilbert,  M. Wormit,  
 J. Kussmann,  A. W. Lange,  A. Behn,  Jia Deng,  Xintian Feng,  D. Ghosh,  
 M. Goldey,  P. R. Horn,  L. D. Jacobson,  I. Kaliman,  T. Kus,  A. Landau,  
 Jie Liu,  E. I. Proynov,  R. M. Richard,  R. P. Steele,  E. J. Sundstrom,  
 H. L. Woodcock III,  P. M. Zimmerman,  D. Zuev,  B. Alam,  B. Albrecht,  
 A. Aldossary,  E. Alguire,  S. A. Baeppler,  D. Barton,  Z. Benda,  
 Y. A. Bernard,  E. J. Berquist,  K. B. Bravaya,  H. Burton,  K. Carter-Fenk,  
 D. Casanova,  Chun-Min Chang,  Yunqing Chen,  A. Chien,  K. D. Closser,  
 M. P. Coons,  S. Coriani,  S. Dasgupta,  A. L. Dempwolff,  M. Diedenhofen,  
 Hainam Do,  R. G. Edgar,  Po-Tung Fang,  S. Faraji,  S. Fatehi,  
 Qingguo Feng,  J. Fosso-Tande,  J. Gayvert,  Qinghui Ge,  A. Ghysels,  
 G. Gidofalvi,  J. Gomes,  J. Gonthier,  S. Gulania,  A. Gunina,  D. Hait,  
 M. W. D. Hanson-Heine,  S. Hammes-Schiffer,  P. H. P. Harbach,  
 A. W. Hauser,  M. F. Herbst,  J. E. Herr,  E. G. Hohenstein,  Z. C. Holden,  
 S. Houck,  Kerwin Hui,  B. C. Huynh,  M. Ivanov,  T.-C. Jagau,  Hyunjun Ji,  
 B. Kaduk,  K. Khistyaev,  Jaehoon Kim,  P. Klunzinger,  K. Koh,  
 D. Kosenkov,  L. Koulias,  T. Kowalczyk,  C. M. Krauter,  A. Kunitsa,  
 Ka Un Lao,  A. Laurent,  K. V. Lawler,  Joonho Lee,  D. Lefrancois,  
 S. Lehtola,  D. S. Levine,  Yi-Pei Li,  You-Sheng Lin,  Fenglai Liu,  
 Kuan-Yu Liu,  E. Livshits,  M. Loipersberger,  A. Luenser,  P. Manohar,  
 E. Mansoor,  S. F. Manzer,  Shan-Ping Mao,  Yuezhi Mao,  N. Mardirossian,  
 A. V. Marenich,  T. Markovich,  L. A. Martinez-Martinez,  S. A. Maurer,  
 N. J. Mayhall,  S. C. McKenzie,  J.-M. Mewes,  P. Morgante,  A. F. Morrison,  
 J. W. Mullinax,  K. Nanda,  T. S. Nguyen-Beck,  R. Olivares-Amaya,  
 K. J. Oosterbaan,  J. A. Parkhill,  S. K. Paul,  F. Pavosevic,  Zheng Pei,  
 T. M. Perrine,  F. Plasser,  P. Pokhilko,  S. Prager,  A. Prociuk,  
 E. Ramos,  B. Rana,  D. R. Rehn,  F. Rob,  E. Rossomme,  M. Scheurer,  
 M. Schneider,  N. Sergueev,  S. M. Sharada,  S. Sharma,  W. Skomorowski,  
 D. W. Small,  T. Stauch,  C. J. Stein,  T. Stein,  Yu-Chuan Su,  
 S. P. Veccham,  Zhen Tao,  A. J. W. Thom,  A. Tkatchenko,  T. Tsuchimochi,  
 N. M. Tubman,  L. Vogt,  M. L. Vidal,  O. Vydrov,  M. A. Watson,  J. Wenzel,  
 M. de Wergifosse,  T. A. Wesolowski,  A. White,  J. Witte,  A. Yamada,  
 Jun Yang,  K. Yao,  S. Yeganeh,  S. R. Yost,  Zhi-Qiang You,  A. Zech,  
 Igor Ying Zhang,  Xing Zhang,  Yan Zhao,  Ying Zhu,  B. R. Brooks,  
 G. K. L. Chan,  C. J. Cramer,  M. S. Gordon,  W. J. Hehre,  A. Klamt,  
 M. W. Schmidt,  C. D. Sherrill,  D. G. Truhlar,  A. Aspuru-Guzik,  R. Baer,  
 A. T. Bell,  N. A. Besley,  Jeng-Da Chai,  A. E. DePrince, III,  
 R. A. DiStasio Jr.,  A. Dreuw,  B. D. Dunietz,  T. R. Furlani,  
 Chao-Ping Hsu,  Yousung Jung,  Jing Kong,  D. S. Lambrecht,  WanZhen Liang,  
 C. Ochsenfeld,  V. A. Rassolov,  L. V. Slipchenko,  J. E. Subotnik,  
 T. Van Voorhis,  J. M. Herbert,  A. I. Krylov,  P. M. W. Gill,  M. Head-Gordon

 Contributors to earlier versions of Q-Chem not listed above: 
 R. D. Adamson,  B. Austin,  J. Baker,  G. J. O. Beran,  K. Brandhorst,  
 S. T. Brown,  E. F. C. Byrd,  A. K. Chakraborty,  C.-L. Cheng,  
 Siu Hung Chien,  D. M. Chipman,  D. L. Crittenden,  H. Dachsel,  
 R. J. Doerksen,  A. D. Dutoi,  L. Fusti-Molnar,  W. A. Goddard III,  
 A. Golubeva-Zadorozhnaya,  S. R. Gwaltney,  G. Hawkins,  A. Heyden,  
 S. Hirata,  G. Kedziora,  F. J. Keil,  C. Kelley,  Jihan Kim,  R. A. King,  
 R. Z. Khaliullin,  P. P. Korambath,  W. Kurlancheek,  A. M. Lee,  M. S. Lee,  
 S. V. Levchenko,  Ching Yeh Lin,  D. Liotard,  R. C. Lochan,  I. Lotan,  
 P. E. Maslen,  N. Nair,  D. P. O'Neill,  D. Neuhauser,  E. Neuscamman,  
 C. M. Oana,  R. Olson,  B. Peters,  R. Peverati,  P. A. Pieniazek,  
 Y. M. Rhee,  J. Ritchie,  M. A. Rohrdanz,  E. Rosta,  N. J. Russ,  
 H. F. Schaefer III,  N. E. Schultz,  N. Shenvi,  A. C. Simmonett,  A. Sodt,  
 D. Stuck,  K. S. Thanthiriwatte,  V. Vanovschi,  Tao Wang,  A. Warshel,  
 C. F. Williams,  Q. Wu,  X. Xu,  W. Zhang

 Please cite Q-Chem as follows:
 Y. Shao et al., Mol. Phys. 113, 184-215 (2015)
 DOI: 10.1080/00268976.2014.952696

 Q-Chem 5.3.1 for Intel X86 EM64T Linux

 Parts of Q-Chem use Armadillo 9.800.1 (Horizon Scraper).
 http://arma.sourceforge.net/

 Q-Chem begins on Wed Jun 23 13:52:32 2021  

Host: 
0

     Scratch files written to /scratch/scaparas/job_3585690/qchem98022//
 Aug2920 |scratch|qcdevops|jenkins|workspace|build_RNUM    
Processing $rem in /cm/shared/apps/spack/cpu/opt/spack/linux-centos8-zen2/gcc-10.2.0/qchem-5.3-5qddma6gy34jvefiv7mbcb7qm253n45r/config/preferences:
Processing $rem in /home/scaparas/.qchemrc:

Checking the input file for inconsistencies... 	...done.

--------------------------------------------------------------
User input:
--------------------------------------------------------------
$molecule
0 1
C   -2.1510630    0.6892080    0.0000880
C   -2.1279270   -0.7158180    0.0000750
C   -0.9322970   -1.4131000   -0.0000110
C    0.2469110   -0.6702010   -0.0000420
C    0.2481930    0.7482990    0.0000000
C   -0.9794740    1.4235260    0.0000320
N    1.5617740   -1.0775920   -0.0002850
C    1.6201330    1.1629000   -0.0001570
C    2.3820130    0.0308060    0.0002480
H    1.8763150   -2.0300110    0.0004380
H    1.9921730    2.1730100   -0.0003480
H    3.4525490   -0.0824250    0.0004080
H   -3.0615940   -1.2620200    0.0000880
H   -0.9172520   -2.4953420   -0.0000730
H   -3.1042030    1.2007850    0.0000900
H   -1.0093480    2.5054210   -0.0000150
$end

$rem
BASIS  =  6-31+G*
GUI  =  2
JOB_TYPE  =  Optimization
METHOD  = WB97X
SCF_CONVERGENCE  =  8
THRESH = 12
CIS_N_ROOTS  = 3
CIS_SINGLETS = true
CIS_TRIPLETS = false
CIS_STATE_DERIV = 2
MEM_STATIC = 500
MEM_TOTAL = 3000
$end
--------------------------------------------------------------
 ----------------------------------------------------------------
             Standard Nuclear Orientation (Angstroms)
    I     Atom           X                Y                Z
 ----------------------------------------------------------------
    1      C       2.1510629040    -0.6892079969     0.0000583065
    2      C       2.1279268385     0.7158180020     0.0000481775
    3      C       0.9322968051     1.4130999466    -0.0000206639
    4      C      -0.2469111607     0.6702008918    -0.0000373513
    5      C      -0.2481930942    -0.7482991083     0.0000020775
    6      C       0.9794739374    -1.4235260513     0.0000165335
    7      N      -1.5617741827     1.0775918311    -0.0002621374
    8      C      -1.6201330769    -1.1629001718    -0.0001374500
    9      C      -2.3820131241    -0.0308062080     0.0002797387
   10      H      -1.8763152174     2.0300108152     0.0004667797
   11      H      -1.9921730325    -2.1730101887    -0.0003253498
   12      H      -3.4525491271     0.0824247420     0.0004541695
   13      H       3.0615938132     1.2620200454     0.0000497686
   14      H       0.9172517540     2.4953419460    -0.0000804893
   15      H       3.1042029277    -1.2007849526     0.0000467087
   16      H       1.0093479871    -2.5054210498    -0.0000328375
 ----------------------------------------------------------------
 Molecular Point Group                 C1    NOp =  1
 Largest Abelian Subgroup              C1    NOp =  1
 Nuclear Repulsion Energy =         401.33686680 hartrees
 There are       31 alpha and       31 beta electrons
 Requested basis set is 6-31+G(d)
 There are 59 shells and 185 basis functions

 Total QAlloc Memory Limit   3000 MB
 Mega-Array Size       489 MB
 MEM_STATIC part       500 MB
 A cutoff of  1.0D-12 yielded   1657 shell pairs
 There are     17105 function pairs
 Smallest overlap matrix eigenvalue = 1.26E-06

 Scale SEOQF with 1.000000e-01/1.000000e-01/1.000000e-01

 Standard Electronic Orientation quadrupole field applied
 Nucleus-field energy     =     0.0000000117 hartrees
 Guess from superposition of atomic densities
 Warning:  Energy on first SCF cycle will be non-variational
 SAD guess density has 62.000000 electrons

 -----------------------------------------------------------------------
  General SCF calculation program by
  Eric Jon Sundstrom, Paul Horn, Yuezhi Mao, Dmitri Zuev, Alec White,
  David Stuck, Shaama M.S., Shane Yost, Joonho Lee, David Small,
  Daniel Levine, Susi Lehtola, Hugh Burton, Evgeny Epifanovsky,
  Bang C. Huynh
 -----------------------------------------------------------------------
 Exchange:     0.1577 Hartree-Fock + 1.0000 wB97X + LR-HF
 Correlation:  1.0000 wB97X
 Using SG-2 standard quadrature grid
 using 4 threads for integral computing
 -------------------------------------------------------
 OpenMP Integral computing Module                
 Release: version 1.0, May 2013, Q-Chem Inc. Pittsburgh 
 -------------------------------------------------------
 using 4 threads for integral computing
 -------------------------------------------------------
 OpenMP Integral computing Module                
 Release: version 1.0, May 2013, Q-Chem Inc. Pittsburgh 
 -------------------------------------------------------
 A restricted SCF calculation will be
 performed using DIIS
 SCF converges when DIIS error is below 1.0e-08
 ---------------------------------------
  Cycle       Energy         DIIS error
 ---------------------------------------
    1    -366.9830087829      5.53e-02  
    2    -363.6637576752      3.30e-03  
    3    -363.7019353643      2.26e-03  
    4    -363.7230395672      5.61e-04  
    5    -363.7242815453      2.65e-04  
    6    -363.7245766723      3.62e-05  
    7    -363.7245859741      1.78e-05  
    8    -363.7245885587      5.34e-06  
    9    -363.7245890726      1.63e-06  
   10    -363.7245891315      1.04e-06  
   11    -363.7245891457      3.24e-07  
   12    -363.7245891480      1.58e-07  
   13    -363.7245891483      4.61e-08  
   14    -363.7245891483      1.57e-08  
   15    -363.7245891483      7.93e-09  Convergence criterion met
 ---------------------------------------
 SCF time:   CPU 87.24s  wall 22.00s 
 SCF   energy in the final basis set =     -363.7245891483
 Total energy in the final basis set =     -363.7245891483
 
 Direct TDDFT/TDA calculation will be performed
 Exchange:     0.1577 Hartree-Fock + 1.0000 wB97X + LR-HF
 Correlation:  1.0000 wB97X
 Using SG-2 standard quadrature grid
 Singlet excitation energies requested
 CIS energy converged when residual is below 10e- 6
 ---------------------------------------------------
 Iter    Rts Conv    Rts Left    Ttl Dev     Max Dev
 ---------------------------------------------------
   1         0           3      0.003731    0.001718
   2         0           3      0.001172    0.000538
   3         0           3      0.000753    0.000364
   4         0           3      0.000429    0.000183
   5         0           3      0.000173    0.000080
   6         0           3      0.000076    0.000032
   7         0           3      0.000035    0.000013
   8         0           3      0.000016    0.000006
   9         0           3      0.000006    0.000003
  10         2           1      0.000003    0.000001
  11         2           1      0.000002    0.000001
  12         3           0      0.000002    0.000001    Roots Converged
 ---------------------------------------------------
 
 ---------------------------------------------------
         TDDFT/TDA Excitation Energies              
 ---------------------------------------------------

 Excited state   1: excitation energy (eV) =    5.2705
 Total energy for state  1:                  -363.53090236 au
    Multiplicity: Singlet
    Trans. Mom.: -0.4061 X  -0.3145 Y   0.0001 Z
    Strength   :     0.0340704002
    D(   30) --> V(    1) amplitude =  0.7937
    D(   31) --> V(    5) amplitude =  0.5365

 Excited state   2: excitation energy (eV) =    5.4603
 Total energy for state  2:                  -363.52392711 au
    Multiplicity: Singlet
    Trans. Mom.: -0.7855 X   0.6732 Y   0.0002 Z
    Strength   :     0.1431781971
    D(   30) --> V(    5) amplitude = -0.3612
    D(   31) --> V(    1) amplitude =  0.9027

 Excited state   3: excitation energy (eV) =    6.0220
 Total energy for state  3:                  -363.50328399 au
    Multiplicity: Singlet
    Trans. Mom.: -0.0003 X   0.0003 Y  -0.1959 Z
    Strength   :     0.0056625586
    D(   31) --> V(    2) amplitude =  0.9195
 
 ---------------------------------------------------
 Calculating Relaxed Density
 ---------------------------------------------------
 Iter    Rts Conv    Rts Left    Ttl Dev     Max Dev
 ---------------------------------------------------
   1         0           3      0.000786    0.000349
   2         0           3      0.000330    0.000161
   3         0           3      0.000121    0.000050
   4         0           3      0.000039    0.000015
   5         0           3      0.000015    0.000006
   6         0           3      0.000005    0.000003
   7         3           0      0.000000    0.000000    Roots Converged
 ---------------------------------------------------
  SETman timing summary (seconds)
  CPU time               313.05s
  System time              0.00s
  Wall time               78.72s
 
 --------------------------------------------------------------
 
                    Orbital Energies (a.u.)
 --------------------------------------------------------------
 
 Alpha MOs
 -- Occupied --
-14.4614 -10.3080 -10.3050 -10.2754 -10.2709 -10.2706 -10.2699 -10.2646
-10.2610  -1.1168  -0.9753  -0.9156  -0.8666  -0.8478  -0.7484  -0.7168
 -0.7033  -0.6587  -0.5968  -0.5856  -0.5469  -0.5415  -0.5400  -0.5194
 -0.4983  -0.4587  -0.4470  -0.4367  -0.3817  -0.3121  -0.2942
 -- Virtual --
  0.0591   0.0665   0.0840   0.0883   0.0988   0.1013   0.1050   0.1204
  0.1262   0.1295   0.1317   0.1351   0.1540   0.1611   0.1683   0.1698
  0.1806   0.1954   0.2087   0.2093   0.2224   0.2267   0.2346   0.2397
  0.2402   0.2549   0.2571   0.2600   0.2663   0.2729   0.2786   0.2896
  0.2908   0.2999   0.3040   0.3085   0.3158   0.3170   0.3280   0.3348
  0.3456   0.3477   0.3644   0.3766   0.3916   0.4014   0.4022   0.4177
  0.4386   0.4613   0.4714   0.4963   0.5421   0.5503   0.6182   0.6891
  0.7355   0.7774   0.7794   0.8034   0.8225   0.8250   0.8407   0.8412
  0.8510   0.8575   0.8670   0.8829   0.8978   0.9091   0.9248   0.9599
  1.0032   1.0124   1.0238   1.0462   1.0531   1.0621   1.0706   1.0933
  1.1129   1.1395   1.1560   1.1765   1.2014   1.2221   1.2277   1.2795
  1.2889   1.3140   1.3317   1.3417   1.3636   1.4287   1.4291   1.4482
  1.4770   1.5237   1.5268   1.5620   1.5703   1.5746   1.6066   1.6130
  1.6507   1.7001   1.7615   1.8990   1.9560   1.9965   2.0018   2.0354
  2.0556   2.1082   2.1109   2.1165   2.1766   2.2132   2.2548   2.2858
  2.2859   2.3111   2.3621   2.3728   2.3779   2.3969   2.4258   2.4942
  2.5222   2.5585   2.6614   2.6738   2.7488   2.7702   2.7842   2.8149
  2.8515   2.9246   2.9604   2.9741   3.0698   3.0923   3.2302   3.3607
  3.5647   4.2716   4.3843   4.4136   4.4483   4.4847   4.5208   4.6037
  4.6434   4.9123
 --------------------------------------------------------------
 
          Ground-State Mulliken Net Atomic Charges

     Atom                 Charge (a.u.)
  ----------------------------------------
      1 C                    -0.044546
      2 C                    -0.444302
      3 C                    -0.074983
      4 C                    -0.698657
      5 C                     0.863885
      6 C                    -0.546879
      7 N                    -0.567604
      8 C                     0.107402
      9 C                    -0.251618
     10 H                     0.429878
     11 H                     0.214058
     12 H                     0.215352
     13 H                     0.196964
     14 H                     0.201301
     15 H                     0.195609
     16 H                     0.204140
  ----------------------------------------
  Sum of atomic charges =     0.000000

 -----------------------------------------------------------------
                    Cartesian Multipole Moments
 -----------------------------------------------------------------
    Charge (ESU x 10^10)
                -0.0000
    Dipole Moment (Debye)
         X      -1.4793      Y       1.5661      Z       0.0011
       Tot       2.1543
    Quadrupole Moments (Debye-Ang)
        XX     -44.8823     XY      -3.1664     YY     -44.1346
        XZ      -0.0033     YZ       0.0034     ZZ     -58.6976
    Octopole Moments (Debye-Ang^2)
       XXX     -14.8581    XXY       8.3353    XYY      -7.7991
       YYY      10.4499    XXZ       0.0078    XYZ      -0.0068
       YYZ       0.0021    XZZ      -1.9778    YZZ       2.0059
       ZZZ      -0.0009
    Hexadecapole Moments (Debye-Ang^3)
      XXXX    -803.7391   XXXY     -21.5271   XXYY    -194.0900
      XYYY     -19.6355   YYYY    -364.2987   XXXZ      -0.0242
      XXYZ       0.0134   XYYZ      -0.0073   YYYZ       0.0146
      XXZZ    -187.4554   XYZZ      -3.8724   YYZZ     -92.7135
      XZZZ      -0.0012   YZZZ       0.0031   ZZZZ     -71.5732
 -----------------------------------------------------------------
 Calculating analytic gradient of the CIS energy
 CIS relaxed dipole moment
            1
    1  -1.5941521
    2   0.5944312
    3  -0.0002274
	Magnitude:	 1.701 au	 4.324 Debye
 CIS 2 State Energy is -363.5239271135
 Gradient of the state energy (including CIS Excitation Energy)
            1           2           3           4           5           6
    1  -0.0231342  -0.0368374   0.0413339  -0.0148461   0.0260186   0.0067691
    2  -0.0291335   0.0373218  -0.0281692   0.0059868  -0.0030850   0.0310956
    3   0.0000044  -0.0000008  -0.0000089   0.0000188   0.0000236   0.0000002
            7           8           9          10          11          12
    1   0.0199476  -0.0455010   0.0229267   0.0027207   0.0020117   0.0041324
    2   0.0226871   0.0180550  -0.0516480  -0.0057797   0.0040112  -0.0010365
    3  -0.0000528  -0.0000237   0.0000427  -0.0000001  -0.0000041   0.0000015
           13          14          15          16
    1  -0.0033339   0.0006701  -0.0031991   0.0003210
    2  -0.0017258  -0.0037565   0.0013921   0.0037847
    3  -0.0000002   0.0000036  -0.0000013  -0.0000029
 Gradient time:  CPU 49.63 s  wall 12.48 s
 Geometry Optimization Parameters
   NAtoms,    NIC,     NZ,  NCons,   NDum,   NFix, NCnnct, MaxDiis
       16     116       0       0       0       0       0       0


** GEOMETRY OPTIMIZATION IN DELOCALIZED INTERNAL COORDINATES **
   Searching for a Minimum

   Optimization Cycle:   1

                       Coordinates (Angstroms)
     ATOM                X               Y               Z
      1  C         2.1510629040   -0.6892079969    0.0000583065
      2  C         2.1279268385    0.7158180020    0.0000481775
      3  C         0.9322968051    1.4130999466   -0.0000206639
      4  C        -0.2469111607    0.6702008918   -0.0000373513
      5  C        -0.2481930942   -0.7482991083    0.0000020775
      6  C         0.9794739374   -1.4235260513    0.0000165335
      7  N        -1.5617741827    1.0775918311   -0.0002621374
      8  C        -1.6201330769   -1.1629001718   -0.0001374500
      9  C        -2.3820131241   -0.0308062080    0.0002797387
     10  H        -1.8763152174    2.0300108152    0.0004667797
     11  H        -1.9921730325   -2.1730101887   -0.0003253498
     12  H        -3.4525491271    0.0824247420    0.0004541695
     13  H         3.0615938132    1.2620200454    0.0000497686
     14  H         0.9172517540    2.4953419460   -0.0000804893
     15  H         3.1042029277   -1.2007849526    0.0000467087
     16  H         1.0093479871   -2.5054210498   -0.0000328375
   Point Group: c1    Number of degrees of freedom:    42


   Energy is   -363.523927113


 Attempting to generate delocalized internal coordinates
 Initial Hessian constructed with Jon Baker's OPTIMIZE code

 42 Hessian modes will be used to form the next step
  Hessian Eigenvalues:
     0.018594    0.019738    0.020011    0.020794    0.021683    0.022200
     0.022636    0.023004    0.023236    0.023608    0.023851    0.023984
     0.024127    0.160000    0.160000    0.160000    0.160000    0.160000
     0.160000    0.160000    0.220000    0.221879    0.226618    0.240111
     0.246509    0.357123    0.357170    0.357835    0.357899    0.364196
     0.364272    0.370088    0.384319    0.426334    0.434649    0.457693
     0.466917    0.471622    0.474685    0.475669    0.481247    0.509555

 Minimum search - taking simple RFO step
 Searching for Lamda that Minimizes Along All modes
 Value Taken    Lamda =  -0.01561474
 Step Taken.  Stepsize is  0.185885

                             Maximum     Tolerance    Cnvgd?
         Gradient           0.034050      0.000300      NO
         Displacement       0.077383      0.001200      NO
         Energy change     *********      0.000001      NO


 New Cartesian Coordinates Obtained by Inverse Iteration

 Displacement from previous Coordinates is:  0.251149
 ----------------------------------------------------------------
             Standard Nuclear Orientation (Angstroms)
    I     Atom           X                Y                Z
 ----------------------------------------------------------------
    1      C       2.1881292012    -0.6934732137    -0.0000213437
    2      C       2.1532091487     0.7023177268    -0.0000057616
    3      C       0.9123787442     1.4257078743     0.0000338427
    4      C      -0.2562910419     0.6638128142     0.0000168574
    5      C      -0.2479662039    -0.7580837572     0.0000278779
    6      C       0.9958459745    -1.4587469111     0.0000197787
    7      N      -1.5888493723     1.0750062169    -0.0000883087
    8      C      -1.6090017357    -1.1529153989     0.0000087628
    9      C      -2.4175376271     0.0000659146     0.0000664817
   10      H      -1.9006295083     2.0355790361     0.0006261036
   11      H      -1.9820688968    -2.1692622433    -0.0001191801
   12      H      -3.4934874572     0.1179267304     0.0000453397
   13      H       3.0897089036     1.2541830719    -0.0000377706
   14      H       0.8848447580     2.5130489073    -0.0000101964
   15      H       3.1513462408    -1.1965500627    -0.0000595830
   16      H       1.0234638235    -2.5460642129     0.0000230809
 ----------------------------------------------------------------
 Molecular Point Group                 C1    NOp =  1
 Largest Abelian Subgroup              C1    NOp =  1
 Nuclear Repulsion Energy =         397.89943805 hartrees
 There are       31 alpha and       31 beta electrons
 Applying Cartesian multipole field
    Component          Value
    ---------          -----
     (2,0,0)        1.00000E-11
     (0,2,0)        2.00000E-11
     (0,0,2)       -3.00000E-11
 Nucleus-field energy     =     0.0000000119 hartrees
 Requested basis set is 6-31+G(d)
 There are 59 shells and 185 basis functions
 A cutoff of  1.0D-12 yielded   1657 shell pairs
 There are     17105 function pairs
 Smallest overlap matrix eigenvalue = 1.30E-06
 Guess MOs from SCF MO coefficient file

 -----------------------------------------------------------------------
  General SCF calculation program by
  Eric Jon Sundstrom, Paul Horn, Yuezhi Mao, Dmitri Zuev, Alec White,
  David Stuck, Shaama M.S., Shane Yost, Joonho Lee, David Small,
  Daniel Levine, Susi Lehtola, Hugh Burton, Evgeny Epifanovsky,
  Bang C. Huynh
 -----------------------------------------------------------------------
 Exchange:     0.1577 Hartree-Fock + 1.0000 wB97X + LR-HF
 Correlation:  1.0000 wB97X
 Using SG-2 standard quadrature grid
 using 4 threads for integral computing
 -------------------------------------------------------
 OpenMP Integral computing Module                
 Release: version 1.0, May 2013, Q-Chem Inc. Pittsburgh 
 -------------------------------------------------------
 using 4 threads for integral computing
 -------------------------------------------------------
 OpenMP Integral computing Module                
 Release: version 1.0, May 2013, Q-Chem Inc. Pittsburgh 
 -------------------------------------------------------
 A restricted SCF calculation will be
 performed using DIIS
 SCF converges when DIIS error is below 1.0e-08
 ---------------------------------------
  Cycle       Energy         DIIS error
 ---------------------------------------
    1    -363.7141086573      8.80e-04  
    2    -363.7177415739      2.01e-04  
    3    -363.7179707572      1.10e-04  
    4    -363.7180356175      3.02e-05  
    5    -363.7180467840      1.62e-05  
    6    -363.7180501294      6.94e-06  
    7    -363.7180510398      2.97e-06  
    8    -363.7180511647      1.09e-06  
    9    -363.7180511808      3.01e-07  
   10    -363.7180511827      1.82e-07  
   11    -363.7180511830      5.19e-08  
   12    -363.7180511830      2.31e-08  
   13    -363.7180511830      9.77e-09  Convergence criterion met
 ---------------------------------------
 SCF time:   CPU 76.87s  wall 19.00s 
 SCF   energy in the final basis set =     -363.7180511830
 Total energy in the final basis set =     -363.7180511830
 
 Direct TDDFT/TDA calculation will be performed
 Exchange:     0.1577 Hartree-Fock + 1.0000 wB97X + LR-HF
 Correlation:  1.0000 wB97X
 Using SG-2 standard quadrature grid
 Singlet excitation energies requested
 CIS energy converged when residual is below 10e- 6
 ---------------------------------------------------
 Iter    Rts Conv    Rts Left    Ttl Dev     Max Dev
 ---------------------------------------------------
   1         0           3      0.003810    0.001761
   2         0           3      0.001149    0.000594
   3         0           3      0.000725    0.000396
   4         0           3      0.000405    0.000189
   5         0           3      0.000159    0.000084
   6         0           3      0.000070    0.000036
   7         0           3      0.000032    0.000016
   8         0           3      0.000014    0.000006
   9         1           2      0.000005    0.000002
  10         3           0      0.000002    0.000001    Roots Converged
 ---------------------------------------------------
 
 ---------------------------------------------------
         TDDFT/TDA Excitation Energies              
 ---------------------------------------------------

 Excited state   1: excitation energy (eV) =    5.0380
 Total energy for state  1:                  -363.53290832 au
    Multiplicity: Singlet
    Trans. Mom.: -1.0302 X   0.7508 Y   0.0001 Z
    Strength   :     0.2005830816
    D(   30) --> V(    5) amplitude = -0.2650
    D(   31) --> V(    1) amplitude =  0.8984

 Excited state   2: excitation energy (eV) =    5.1306
 Total energy for state  2:                  -363.52950415 au
    Multiplicity: Singlet
    Trans. Mom.: -0.0043 X  -0.4370 Y   0.0000 Z
    Strength   :     0.0240050463
    D(   30) --> V(    1) amplitude =  0.7409
    D(   31) --> V(    1) amplitude = -0.2528
    D(   31) --> V(    5) amplitude =  0.5511

 Excited state   3: excitation energy (eV) =    5.7552
 Total energy for state  3:                  -363.50655282 au
    Multiplicity: Singlet
    Trans. Mom.:  0.0002 X  -0.0001 Y   0.2132 Z
    Strength   :     0.0064065274
    D(   31) --> V(    2) amplitude =  0.9267
 
 ---------------------------------------------------
 Calculating Relaxed Density
 ---------------------------------------------------
 Iter    Rts Conv    Rts Left    Ttl Dev     Max Dev
 ---------------------------------------------------
   1         0           3      0.000859    0.000387
   2         0           3      0.000349    0.000178
   3         0           3      0.000123    0.000050
   4         0           3      0.000040    0.000015
   5         0           3      0.000015    0.000006
   6         0           3      0.000005    0.000002
   7         3           0      0.000000    0.000000    Roots Converged
 ---------------------------------------------------
  SETman timing summary (seconds)
  CPU time               292.31s
  System time              0.00s
  Wall time               73.51s
 
 --------------------------------------------------------------
 
                    Orbital Energies (a.u.)
 --------------------------------------------------------------
 
 Alpha MOs
 -- Occupied --
-14.4654 -10.3141 -10.3089 -10.2838 -10.2794 -10.2768 -10.2751 -10.2718
-10.2626  -1.1178  -0.9695  -0.9098  -0.8690  -0.8386  -0.7501  -0.7171
 -0.6988  -0.6564  -0.5975  -0.5856  -0.5455  -0.5406  -0.5404  -0.5108
 -0.5005  -0.4562  -0.4443  -0.4413  -0.3768  -0.3187  -0.2839
 -- Virtual --
  0.0489   0.0654   0.0838   0.0887   0.0967   0.1007   0.1049   0.1199
  0.1256   0.1287   0.1306   0.1346   0.1544   0.1593   0.1680   0.1689
  0.1800   0.1954   0.2067   0.2079   0.2204   0.2249   0.2323   0.2388
  0.2407   0.2530   0.2571   0.2600   0.2657   0.2717   0.2773   0.2874
  0.2883   0.2954   0.3039   0.3067   0.3093   0.3148   0.3256   0.3346
  0.3436   0.3471   0.3603   0.3733   0.3834   0.3942   0.3996   0.4148
  0.4346   0.4504   0.4649   0.4847   0.5263   0.5478   0.6138   0.6773
  0.7146   0.7767   0.7777   0.8019   0.8217   0.8271   0.8388   0.8389
  0.8393   0.8588   0.8657   0.8804   0.8963   0.8970   0.9169   0.9573
  0.9969   1.0048   1.0161   1.0504   1.0529   1.0608   1.0687   1.0958
  1.1048   1.1359   1.1543   1.1696   1.1964   1.2180   1.2263   1.2793
  1.2810   1.3130   1.3270   1.3419   1.3544   1.4244   1.4266   1.4504
  1.4677   1.5136   1.5163   1.5510   1.5740   1.5780   1.6002   1.6050
  1.6502   1.6944   1.7443   1.8901   1.9285   1.9887   2.0021   2.0165
  2.0422   2.0966   2.1039   2.1075   2.1440   2.1754   2.2364   2.2571
  2.2670   2.3016   2.3373   2.3571   2.3727   2.3798   2.4105   2.4731
  2.5071   2.5572   2.6366   2.6601   2.7315   2.7500   2.7571   2.7825
  2.8308   2.9012   2.9376   2.9540   3.0580   3.0755   3.1949   3.3468
  3.5087   4.2678   4.3643   4.4017   4.4363   4.4773   4.5216   4.5961
  4.6362   4.8954
 --------------------------------------------------------------
 
          Ground-State Mulliken Net Atomic Charges

     Atom                 Charge (a.u.)
  ----------------------------------------
      1 C                    -0.065342
      2 C                    -0.407602
      3 C                    -0.175670
      4 C                    -0.718537
      5 C                     0.931713
      6 C                    -0.461953
      7 N                    -0.541975
      8 C                    -0.009391
      9 C                    -0.219411
     10 H                     0.430504
     11 H                     0.209659
     12 H                     0.220947
     13 H                     0.197426
     14 H                     0.203411
     15 H                     0.198236
     16 H                     0.207986
  ----------------------------------------
  Sum of atomic charges =     0.000000

 -----------------------------------------------------------------
                    Cartesian Multipole Moments
 -----------------------------------------------------------------
    Charge (ESU x 10^10)
                 0.0000
    Dipole Moment (Debye)
         X      -1.5023      Y       1.6962      Z       0.0009
       Tot       2.2658
    Quadrupole Moments (Debye-Ang)
        XX     -44.4880     XY      -3.7883     YY     -44.2634
        XZ      -0.0024     YZ       0.0031     ZZ     -59.1673
    Octopole Moments (Debye-Ang^2)
       XXX     -15.8475    XXY       9.2915    XYY      -7.4826
       YYY      11.2180    XXZ       0.0026    XYZ      -0.0065
       YYZ       0.0041    XZZ      -2.1226    YZZ       2.2788
       ZZZ      -0.0023
    Hexadecapole Moments (Debye-Ang^3)
      XXXX    -812.0138   XXXY     -21.9736   XXYY    -198.9268
      XYYY     -17.6115   YYYY    -368.0755   XXXZ      -0.0079
      XXYZ       0.0121   XYYZ      -0.0093   YYYZ       0.0120
      XXZZ    -192.4525   XYZZ      -2.7382   YYZZ     -94.5736
      XZZZ       0.0034   YZZZ       0.0003   ZZZZ     -73.0723
 -----------------------------------------------------------------
 Calculating analytic gradient of the CIS energy
 CIS relaxed dipole moment
            1
    1  -0.8085218
    2   0.4914686
    3   0.0002552
	Magnitude:	 0.946 au	 2.405 Debye
 CIS 2 State Energy is -363.5295041455
 Gradient of the state energy (including CIS Excitation Energy)
            1           2           3           4           5           6
    1  -0.0000191   0.0036293  -0.0139153   0.0115282  -0.0117402   0.0185724
    2   0.0137354  -0.0294050   0.0006596  -0.0320798   0.0242809  -0.0023871
    3  -0.0000013  -0.0000009   0.0000014  -0.0000010   0.0000115   0.0000003
            7           8           9          10          11          12
    1  -0.0351139   0.0315714  -0.0017743  -0.0026352   0.0006805  -0.0011994
    2  -0.0170799  -0.0064855   0.0460379   0.0004664   0.0003528   0.0017114
    3  -0.0000172  -0.0000023   0.0000052   0.0000086  -0.0000038   0.0000004
           13          14          15          16
    1   0.0012751  -0.0016893   0.0006673   0.0001627
    2  -0.0005106   0.0010257   0.0010526  -0.0013748
    3  -0.0000004   0.0000003   0.0000002  -0.0000009
 Gradient time:  CPU 49.70 s  wall 12.54 s
 Geometry Optimization Parameters
   NAtoms,    NIC,     NZ,  NCons,   NDum,   NFix, NCnnct, MaxDiis
       16     116       0       0       0       0       0       0

 Cartesian Hessian Update
 Hessian updated using BFGS update


** GEOMETRY OPTIMIZATION IN DELOCALIZED INTERNAL COORDINATES **
   Searching for a Minimum

   Optimization Cycle:   2

                       Coordinates (Angstroms)
     ATOM                X               Y               Z
      1  C         2.1881292012   -0.6934732137   -0.0000213437
      2  C         2.1532091487    0.7023177268   -0.0000057616
      3  C         0.9123787442    1.4257078743    0.0000338427
      4  C        -0.2562910419    0.6638128142    0.0000168574
      5  C        -0.2479662039   -0.7580837572    0.0000278779
      6  C         0.9958459745   -1.4587469111    0.0000197787
      7  N        -1.5888493723    1.0750062169   -0.0000883087
      8  C        -1.6090017357   -1.1529153989    0.0000087628
      9  C        -2.4175376271    0.0000659146    0.0000664817
     10  H        -1.9006295083    2.0355790361    0.0006261036
     11  H        -1.9820688968   -2.1692622433   -0.0001191801
     12  H        -3.4934874572    0.1179267304    0.0000453397
     13  H         3.0897089036    1.2541830719   -0.0000377706
     14  H         0.8848447580    2.5130489073   -0.0000101964
     15  H         3.1513462408   -1.1965500627   -0.0000595830
     16  H         1.0234638235   -2.5460642129    0.0000230809
   Point Group: c1    Number of degrees of freedom:    42


   Energy is   -363.529504146

 Hessian updated using BFGS update

 40 Hessian modes will be used to form the next step
  Hessian Eigenvalues:
     0.018594    0.019738    0.020011    0.020794    0.021683    0.022200
     0.022636    0.023004    0.023236    0.023608    0.023851    0.023984
     0.024127    0.159795    0.160000    0.160000    0.160000    0.160296
     0.212153    0.222175    0.226669    0.245488    0.247700    0.347957
     0.357148    0.357447    0.357876    0.360836    0.364247    0.369221
     0.380248    0.388045    0.428091    0.447369    0.458355    0.467123
     0.471700    0.476517    0.491680    0.966687

 Minimum search - taking simple RFO step
 Searching for Lamda that Minimizes Along All modes
 Value Taken    Lamda =  -0.00590311
 Step Taken.  Stepsize is  0.096215

                             Maximum     Tolerance    Cnvgd?
         Gradient           0.039898      0.000300      NO
         Displacement       0.063319      0.001200      NO
         Energy change     -0.005577      0.000001      NO


 New Cartesian Coordinates Obtained by Inverse Iteration

 Displacement from previous Coordinates is:  0.152023
 ----------------------------------------------------------------
             Standard Nuclear Orientation (Angstroms)
    I     Atom           X                Y                Z
 ----------------------------------------------------------------
    1      C       2.1800438288    -0.6884196416    -0.0000548199
    2      C       2.1646913320     0.7223268655    -0.0000238696
    3      C       0.9233522402     1.4490185640     0.0000563854
    4      C      -0.2466339175     0.6772625061     0.0000480891
    5      C      -0.2584057875    -0.7665316982     0.0000175217
    6      C       0.9788111252    -1.4635474250    -0.0000002686
    7      N      -1.5729769857     1.0717352665     0.0000069817
    8      C      -1.6239466435    -1.1716530623     0.0000776144
    9      C      -2.4155770483    -0.0181280447    -0.0000257093
   10      H      -1.8813904642     2.0340155664     0.0006565224
   11      H      -2.0026252301    -2.1879770521     0.0000038913
   12      H      -3.4915081686     0.0998622751    -0.0001331243
   13      H       3.1035785534     1.2708551960    -0.0000590277
   14      H       0.9004461857     2.5366198345     0.0000269808
   15      H       3.1387466726    -1.2021672783    -0.0000991354
   16      H       1.0064892589    -2.5507193793     0.0000279491
 ----------------------------------------------------------------
 Molecular Point Group                 C1    NOp =  1
 Largest Abelian Subgroup              C1    NOp =  1
 Nuclear Repulsion Energy =         396.56506576 hartrees
 There are       31 alpha and       31 beta electrons
 Applying Cartesian multipole field
    Component          Value
    ---------          -----
     (2,0,0)        1.00000E-11
     (0,2,0)        2.00000E-11
     (0,0,2)       -3.00000E-11
 Nucleus-field energy     =     0.0000000120 hartrees
 Requested basis set is 6-31+G(d)
 There are 59 shells and 185 basis functions
 A cutoff of  1.0D-12 yielded   1656 shell pairs
 There are     17099 function pairs
 Smallest overlap matrix eigenvalue = 1.40E-06
 Guess MOs from SCF MO coefficient file

 -----------------------------------------------------------------------
  General SCF calculation program by
  Eric Jon Sundstrom, Paul Horn, Yuezhi Mao, Dmitri Zuev, Alec White,
  David Stuck, Shaama M.S., Shane Yost, Joonho Lee, David Small,
  Daniel Levine, Susi Lehtola, Hugh Burton, Evgeny Epifanovsky,
  Bang C. Huynh
 -----------------------------------------------------------------------
 Exchange:     0.1577 Hartree-Fock + 1.0000 wB97X + LR-HF
 Correlation:  1.0000 wB97X
 Using SG-2 standard quadrature grid
 using 4 threads for integral computing
 -------------------------------------------------------
 OpenMP Integral computing Module                
 Release: version 1.0, May 2013, Q-Chem Inc. Pittsburgh 
 -------------------------------------------------------
 using 4 threads for integral computing
 -------------------------------------------------------
 OpenMP Integral computing Module                
 Release: version 1.0, May 2013, Q-Chem Inc. Pittsburgh 
 -------------------------------------------------------
 A restricted SCF calculation will be
 performed using DIIS
 SCF converges when DIIS error is below 1.0e-08
 ---------------------------------------
  Cycle       Energy         DIIS error
 ---------------------------------------
    1    -363.7169318642      6.43e-04  
    2    -363.7183372690      1.08e-04  
    3    -363.7184004239      6.85e-05  
    4    -363.7184225032      1.80e-05  
    5    -363.7184261499      6.74e-06  
    6    -363.7184269229      3.51e-06  
    7    -363.7184271929      1.43e-06  
    8    -363.7184272272      4.96e-07  
    9    -363.7184272302      1.53e-07  
   10    -363.7184272307      9.23e-08  
   11    -363.7184272307      2.88e-08  
   12    -363.7184272307      1.77e-08  
   13    -363.7184272307      5.78e-09  Convergence criterion met
 ---------------------------------------
 SCF time:   CPU 75.64s  wall 19.00s 
 SCF   energy in the final basis set =     -363.7184272307
 Total energy in the final basis set =     -363.7184272307
 
 Direct TDDFT/TDA calculation will be performed
 Exchange:     0.1577 Hartree-Fock + 1.0000 wB97X + LR-HF
 Correlation:  1.0000 wB97X
 Using SG-2 standard quadrature grid
 Singlet excitation energies requested
 CIS energy converged when residual is below 10e- 6
 ---------------------------------------------------
 Iter    Rts Conv    Rts Left    Ttl Dev     Max Dev
 ---------------------------------------------------
   1         0           3      0.003815    0.001777
   2         0           3      0.001151    0.000585
   3         0           3      0.000737    0.000349
   4         0           3      0.000407    0.000179
   5         0           3      0.000154    0.000075
   6         0           3      0.000067    0.000030
   7         0           3      0.000030    0.000012
   8         0           3      0.000014    0.000005
   9         0           3      0.000005    0.000002
  10         3           0      0.000002    0.000001    Roots Converged
 ---------------------------------------------------
 
 ---------------------------------------------------
         TDDFT/TDA Excitation Energies              
 ---------------------------------------------------

 Excited state   1: excitation energy (eV) =    5.0268
 Total energy for state  1:                  -363.53369397 au
    Multiplicity: Singlet
    Trans. Mom.: -0.3270 X  -0.3475 Y   0.0000 Z
    Strength   :     0.0280437952
    D(   30) --> V(    1) amplitude =  0.7849
    D(   31) --> V(    5) amplitude = -0.5465

 Excited state   2: excitation energy (eV) =    5.1114
 Total energy for state  2:                  -363.53058816 au
    Multiplicity: Singlet
    Trans. Mom.: -0.9032 X   0.7900 Y   0.0000 Z
    Strength   :     0.1803086647
    D(   30) --> V(    5) amplitude =  0.3128
    D(   31) --> V(    1) amplitude =  0.9142

 Excited state   3: excitation energy (eV) =    5.8640
 Total energy for state  3:                  -363.50293023 au
    Multiplicity: Singlet
    Trans. Mom.:  0.0001 X   0.0000 Y   0.2090 Z
    Strength   :     0.0062772165
    D(   31) --> V(    2) amplitude =  0.9228
 
 ---------------------------------------------------
 Calculating Relaxed Density
 ---------------------------------------------------
 Iter    Rts Conv    Rts Left    Ttl Dev     Max Dev
 ---------------------------------------------------
   1         0           3      0.000821    0.000378
   2         0           3      0.000337    0.000173
   3         0           3      0.000121    0.000051
   4         0           3      0.000040    0.000016
   5         0           3      0.000017    0.000007
   6         0           3      0.000006    0.000003
   7         3           0      0.000000    0.000000    Roots Converged
 ---------------------------------------------------
  SETman timing summary (seconds)
  CPU time               292.76s
  System time              0.00s
  Wall time               73.62s
 
 --------------------------------------------------------------
 
                    Orbital Energies (a.u.)
 --------------------------------------------------------------
 
 Alpha MOs
 -- Occupied --
-14.4650 -10.3152 -10.3116 -10.2847 -10.2803 -10.2797 -10.2773 -10.2736
-10.2657  -1.1144  -0.9647  -0.9113  -0.8631  -0.8412  -0.7485  -0.7161
 -0.6987  -0.6541  -0.5996  -0.5824  -0.5444  -0.5388  -0.5384  -0.5138
 -0.5006  -0.4550  -0.4417  -0.4406  -0.3796  -0.3127  -0.2874
 -- Virtual --
  0.0487   0.0660   0.0838   0.0882   0.0944   0.1006   0.1043   0.1192
  0.1256   0.1285   0.1303   0.1347   0.1540   0.1595   0.1676   0.1685
  0.1801   0.1953   0.2064   0.2077   0.2202   0.2251   0.2329   0.2381
  0.2397   0.2542   0.2562   0.2592   0.2654   0.2717   0.2744   0.2855
  0.2876   0.2958   0.3020   0.3073   0.3084   0.3145   0.3262   0.3336
  0.3419   0.3452   0.3607   0.3713   0.3821   0.3910   0.3977   0.4118
  0.4298   0.4505   0.4633   0.4840   0.5232   0.5456   0.6102   0.6701
  0.7040   0.7759   0.7780   0.8027   0.8163   0.8264   0.8359   0.8375
  0.8398   0.8578   0.8624   0.8802   0.8938   0.8958   0.9180   0.9561
  0.9956   1.0055   1.0167   1.0481   1.0522   1.0613   1.0684   1.0928
  1.1021   1.1365   1.1547   1.1714   1.1958   1.2176   1.2228   1.2752
  1.2821   1.3097   1.3280   1.3432   1.3507   1.4212   1.4275   1.4498
  1.4673   1.5114   1.5145   1.5438   1.5715   1.5780   1.5998   1.6026
  1.6439   1.6885   1.7443   1.8920   1.9248   1.9883   1.9993   2.0110
  2.0325   2.0945   2.0975   2.1088   2.1429   2.1567   2.2280   2.2380
  2.2592   2.2946   2.3305   2.3462   2.3654   2.3670   2.4056   2.4672
  2.5072   2.5506   2.6320   2.6513   2.7246   2.7352   2.7519   2.7752
  2.8219   2.8940   2.9306   2.9424   3.0595   3.0692   3.1932   3.3320
  3.4866   4.2598   4.3557   4.4039   4.4376   4.4758   4.5170   4.5935
  4.6349   4.8849
 --------------------------------------------------------------
 
          Ground-State Mulliken Net Atomic Charges

     Atom                 Charge (a.u.)
  ----------------------------------------
      1 C                    -0.072715
      2 C                    -0.391438
      3 C                    -0.153336
      4 C                    -0.676878
      5 C                     0.844806
      6 C                    -0.502266
      7 N                    -0.547618
      8 C                     0.058456
      9 C                    -0.231245
     10 H                     0.429754
     11 H                     0.213822
     12 H                     0.220387
     13 H                     0.199393
     14 H                     0.204930
     15 H                     0.195901
     16 H                     0.208046
  ----------------------------------------
  Sum of atomic charges =     0.000000

 -----------------------------------------------------------------
                    Cartesian Multipole Moments
 -----------------------------------------------------------------
    Charge (ESU x 10^10)
                 0.0000
    Dipole Moment (Debye)
         X      -1.5605      Y       1.6117      Z       0.0008
       Tot       2.2434
    Quadrupole Moments (Debye-Ang)
        XX     -44.6463     XY      -3.2977     YY     -44.0635
        XZ      -0.0018     YZ       0.0027     ZZ     -59.3074
    Octopole Moments (Debye-Ang^2)
       XXX     -16.1506    XXY       8.8684    XYY      -7.5282
       YYY      10.6829    XXZ       0.0001    XYZ      -0.0057
       YYZ       0.0047    XZZ      -2.3347    YZZ       2.1515
       ZZZ      -0.0027
    Hexadecapole Moments (Debye-Ang^3)
      XXXX    -814.5167   XXXY     -22.2307   XXYY    -199.3745
      XYYY     -19.9674   YYYY    -372.4490   XXXZ       0.0018
      XXYZ       0.0097   XYYZ      -0.0092   YYYZ       0.0087
      XXZZ    -192.9346   XYZZ      -4.1671   YYZZ     -95.8397
      XZZZ       0.0060   YZZZ      -0.0022   ZZZZ     -73.4206
 -----------------------------------------------------------------
 Calculating analytic gradient of the CIS energy
 CIS relaxed dipole moment
            1
    1  -1.6178717
    2   0.6315003
    3   0.0002029
	Magnitude:	 1.737 au	 4.414 Debye
 CIS 2 State Energy is -363.5305881623
 Gradient of the state energy (including CIS Excitation Energy)
            1           2           3           4           5           6
    1   0.0030671  -0.0004192   0.0133753  -0.0134520   0.0072327  -0.0086887
    2  -0.0158414   0.0260347  -0.0004603   0.0178064  -0.0139560   0.0003202
    3  -0.0000012  -0.0000008   0.0000010  -0.0000025  -0.0000077   0.0000014
            7           8           9          10          11          12
    1   0.0225832  -0.0219143  -0.0021122   0.0008006  -0.0001770  -0.0008917
    2   0.0131567   0.0042553  -0.0297912   0.0002853  -0.0013116  -0.0005628
    3  -0.0000087   0.0000228  -0.0000119   0.0000142  -0.0000018  -0.0000048
           13          14          15          16
    1   0.0007819   0.0000002   0.0006491  -0.0008348
    2   0.0001956   0.0011306  -0.0002953  -0.0009662
    3  -0.0000004   0.0000004   0.0000003  -0.0000005
 Gradient time:  CPU 49.08 s  wall 12.34 s
 Geometry Optimization Parameters
   NAtoms,    NIC,     NZ,  NCons,   NDum,   NFix, NCnnct, MaxDiis
       16     116       0       0       0       0       0       0

 Cartesian Hessian Update
 Hessian updated using BFGS update


** GEOMETRY OPTIMIZATION IN DELOCALIZED INTERNAL COORDINATES **
   Searching for a Minimum

   Optimization Cycle:   3

                       Coordinates (Angstroms)
     ATOM                X               Y               Z
      1  C         2.1800438288   -0.6884196416   -0.0000548199
      2  C         2.1646913320    0.7223268655   -0.0000238696
      3  C         0.9233522402    1.4490185640    0.0000563854
      4  C        -0.2466339175    0.6772625061    0.0000480891
      5  C        -0.2584057875   -0.7665316982    0.0000175217
      6  C         0.9788111252   -1.4635474250   -0.0000002686
      7  N        -1.5729769857    1.0717352665    0.0000069817
      8  C        -1.6239466435   -1.1716530623    0.0000776144
      9  C        -2.4155770483   -0.0181280447   -0.0000257093
     10  H        -1.8813904642    2.0340155664    0.0006565224
     11  H        -2.0026252301   -2.1879770521    0.0000038913
     12  H        -3.4915081686    0.0998622751   -0.0001331243
     13  H         3.1035785534    1.2708551960   -0.0000590277
     14  H         0.9004461857    2.5366198345    0.0000269808
     15  H         3.1387466726   -1.2021672783   -0.0000991354
     16  H         1.0064892589   -2.5507193793    0.0000279491
   Point Group: c1    Number of degrees of freedom:    42


   Energy is   -363.530588162

 Hessian updated using BFGS update

 41 Hessian modes will be used to form the next step
  Hessian Eigenvalues:
     0.018594    0.019738    0.020011    0.020794    0.021683    0.022200
     0.022636    0.023004    0.023236    0.023608    0.023851    0.023984
     0.024127    0.159055    0.160000    0.160000    0.160000    0.160003
     0.160284    0.213807    0.222095    0.225635    0.245823    0.249697
     0.356548    0.357151    0.357377    0.357876    0.363001    0.364194
     0.371926    0.381120    0.405517    0.427941    0.447600    0.456654
     0.467254    0.471691    0.476598    0.493514    1.473956

 Minimum search - taking simple RFO step
 Searching for Lamda that Minimizes Along All modes
 Value Taken    Lamda =  -0.00178100
 Step Taken.  Stepsize is  0.043717

                             Maximum     Tolerance    Cnvgd?
         Gradient           0.023242      0.000300      NO
         Displacement       0.020346      0.001200      NO
         Energy change     -0.001084      0.000001      NO


 New Cartesian Coordinates Obtained by Inverse Iteration

 Displacement from previous Coordinates is:  0.069792
 ----------------------------------------------------------------
             Standard Nuclear Orientation (Angstroms)
    I     Atom           X                Y                Z
 ----------------------------------------------------------------
    1      C       2.1747347342    -0.6870050160    -0.0000230972
    2      C       2.1533841192     0.7127628047     0.0000032757
    3      C       0.9168166508     1.4408136208     0.0000369339
    4      C      -0.2467205272     0.6722125356     0.0000410894
    5      C      -0.2538829260    -0.7630696923    -0.0000085452
    6      C       0.9811671072    -1.4599681653    -0.0000147037
    7      N      -1.5736680082     1.0714695544    -0.0000127433
    8      C      -1.6142634436    -1.1655501070    -0.0000107506
    9      C      -2.4088651889    -0.0123704139     0.0000850217
   10      H      -1.8817427218     2.0329799262     0.0004994934
   11      H      -1.9931329553    -2.1800994243    -0.0000917429
   12      H      -3.4833819957     0.1044880096     0.0000819700
   13      H       3.0895525873     1.2632714849    -0.0000104212
   14      H       0.8968042230     2.5267593356    -0.0000009116
   15      H       3.1332654430    -1.1987231998    -0.0000496340
   16      H       1.0130278532    -2.5454187607     0.0000007469
 ----------------------------------------------------------------
 Molecular Point Group                 C1    NOp =  1
 Largest Abelian Subgroup              C1    NOp =  1
 Nuclear Repulsion Energy =         397.89020638 hartrees
 There are       31 alpha and       31 beta electrons
 Applying Cartesian multipole field
    Component          Value
    ---------          -----
     (2,0,0)        1.00000E-11
     (0,2,0)        2.00000E-11
     (0,0,2)       -3.00000E-11
 Nucleus-field energy     =     0.0000000119 hartrees
 Requested basis set is 6-31+G(d)
 There are 59 shells and 185 basis functions
 A cutoff of  1.0D-12 yielded   1657 shell pairs
 There are     17105 function pairs
 Smallest overlap matrix eigenvalue = 1.33E-06
 Guess MOs from SCF MO coefficient file

 -----------------------------------------------------------------------
  General SCF calculation program by
  Eric Jon Sundstrom, Paul Horn, Yuezhi Mao, Dmitri Zuev, Alec White,
  David Stuck, Shaama M.S., Shane Yost, Joonho Lee, David Small,
  Daniel Levine, Susi Lehtola, Hugh Burton, Evgeny Epifanovsky,
  Bang C. Huynh
 -----------------------------------------------------------------------
 Exchange:     0.1577 Hartree-Fock + 1.0000 wB97X + LR-HF
 Correlation:  1.0000 wB97X
 Using SG-2 standard quadrature grid
 using 4 threads for integral computing
 -------------------------------------------------------
 OpenMP Integral computing Module                
 Release: version 1.0, May 2013, Q-Chem Inc. Pittsburgh 
 -------------------------------------------------------
 using 4 threads for integral computing
 -------------------------------------------------------
 OpenMP Integral computing Module                
 Release: version 1.0, May 2013, Q-Chem Inc. Pittsburgh 
 -------------------------------------------------------
 A restricted SCF calculation will be
 performed using DIIS
 SCF converges when DIIS error is below 1.0e-08
 ---------------------------------------
  Cycle       Energy         DIIS error
 ---------------------------------------
    1    -363.7192328973      2.22e-04  
    2    -363.7194177737      4.96e-05  
    3    -363.7194285865      2.95e-05  
    4    -363.7194327760      6.46e-06  
    5    -363.7194331633      2.72e-06  
    6    -363.7194332673      1.24e-06  
    7    -363.7194332931      5.56e-07  
    8    -363.7194332975      2.37e-07  
    9    -363.7194332980      6.15e-08  
   10    -363.7194332980      2.25e-08  
   11    -363.7194332980      6.16e-09  Convergence criterion met
 ---------------------------------------
 SCF time:   CPU 64.38s  wall 16.00s 
 SCF   energy in the final basis set =     -363.7194332980
 Total energy in the final basis set =     -363.7194332980
 
 Direct TDDFT/TDA calculation will be performed
 Exchange:     0.1577 Hartree-Fock + 1.0000 wB97X + LR-HF
 Correlation:  1.0000 wB97X
 Using SG-2 standard quadrature grid
 Singlet excitation energies requested
 CIS energy converged when residual is below 10e- 6
 ---------------------------------------------------
 Iter    Rts Conv    Rts Left    Ttl Dev     Max Dev
 ---------------------------------------------------
   1         0           3      0.003814    0.001771
   2         0           3      0.001149    0.000588
   3         0           3      0.000722    0.000387
   4         0           3      0.000398    0.000195
   5         0           3      0.000154    0.000079
   6         0           3      0.000068    0.000032
   7         0           3      0.000031    0.000013
   8         0           3      0.000014    0.000005
   9         0           3      0.000005    0.000002
  10         3           0      0.000002    0.000001    Roots Converged
 ---------------------------------------------------
 
 ---------------------------------------------------
         TDDFT/TDA Excitation Energies              
 ---------------------------------------------------

 Excited state   1: excitation energy (eV) =    5.0822
 Total energy for state  1:                  -363.53266543 au
    Multiplicity: Singlet
    Trans. Mom.:  0.5136 X   0.1145 Y  -0.0000 Z
    Strength   :     0.0344746420
    D(   30) --> V(    1) amplitude =  0.7675
    D(   31) --> V(    5) amplitude =  0.5665

 Excited state   2: excitation energy (eV) =    5.1019
 Total energy for state  2:                  -363.53194138 au
    Multiplicity: Singlet
    Trans. Mom.:  0.8440 X  -0.8602 Y  -0.0001 Z
    Strength   :     0.1815385060
    D(   30) --> V(    5) amplitude = -0.2960
    D(   31) --> V(    1) amplitude =  0.9162

 Excited state   3: excitation energy (eV) =    5.8230
 Total energy for state  3:                  -363.50544190 au
    Multiplicity: Singlet
    Trans. Mom.: -0.0001 X   0.0001 Y  -0.2117 Z
    Strength   :     0.0063919779
    D(   31) --> V(    2) amplitude =  0.9244
 
 ---------------------------------------------------
 Calculating Relaxed Density
 ---------------------------------------------------
 Iter    Rts Conv    Rts Left    Ttl Dev     Max Dev
 ---------------------------------------------------
   1         0           3      0.000828    0.000377
   2         0           3      0.000329    0.000165
   3         0           3      0.000114    0.000051
   4         0           3      0.000038    0.000017
   5         0           3      0.000016    0.000007
   6         1           2      0.000004    0.000002
   7         3           0      0.000000    0.000000    Roots Converged
 ---------------------------------------------------
  SETman timing summary (seconds)
  CPU time               291.21s
  System time              0.00s
  Wall time               73.28s
 
 --------------------------------------------------------------
 
                    Orbital Energies (a.u.)
 --------------------------------------------------------------
 
 Alpha MOs
 -- Occupied --
-14.4646 -10.3140 -10.3096 -10.2831 -10.2785 -10.2771 -10.2754 -10.2714
-10.2636  -1.1166  -0.9678  -0.9118  -0.8658  -0.8409  -0.7495  -0.7168
 -0.6992  -0.6556  -0.5987  -0.5834  -0.5455  -0.5402  -0.5400  -0.5134
 -0.5003  -0.4544  -0.4427  -0.4423  -0.3794  -0.3149  -0.2861
 -- Virtual --
  0.0495   0.0658   0.0838   0.0884   0.0963   0.1007   0.1046   0.1196
  0.1257   0.1288   0.1307   0.1348   0.1541   0.1596   0.1679   0.1687
  0.1802   0.1955   0.2067   0.2077   0.2206   0.2252   0.2331   0.2387
  0.2404   0.2540   0.2566   0.2597   0.2655   0.2722   0.2757   0.2872
  0.2881   0.2967   0.3030   0.3074   0.3095   0.3148   0.3260   0.3343
  0.3436   0.3458   0.3613   0.3729   0.3843   0.3941   0.3995   0.4142
  0.4326   0.4513   0.4655   0.4863   0.5268   0.5483   0.6133   0.6757
  0.7105   0.7756   0.7778   0.8025   0.8190   0.8264   0.8378   0.8394
  0.8406   0.8585   0.8654   0.8805   0.8963   0.8965   0.9191   0.9572
  0.9968   1.0056   1.0179   1.0490   1.0527   1.0617   1.0688   1.0939
  1.1046   1.1366   1.1552   1.1712   1.1961   1.2187   1.2258   1.2777
  1.2839   1.3121   1.3289   1.3426   1.3527   1.4243   1.4272   1.4496
  1.4692   1.5141   1.5146   1.5469   1.5732   1.5773   1.6010   1.6039
  1.6483   1.6926   1.7468   1.8932   1.9289   1.9933   2.0022   2.0174
  2.0373   2.0995   2.1028   2.1116   2.1486   2.1676   2.2378   2.2504
  2.2643   2.2994   2.3356   2.3534   2.3690   2.3760   2.4127   2.4750
  2.5111   2.5565   2.6378   2.6590   2.7280   2.7472   2.7557   2.7813
  2.8298   2.9015   2.9385   2.9496   3.0627   3.0770   3.2016   3.3415
  3.5056   4.2642   4.3638   4.4050   4.4381   4.4789   4.5195   4.5965
  4.6369   4.8920
 --------------------------------------------------------------
 
          Ground-State Mulliken Net Atomic Charges

     Atom                 Charge (a.u.)
  ----------------------------------------
      1 C                    -0.070736
      2 C                    -0.394499
      3 C                    -0.160752
      4 C                    -0.688264
      5 C                     0.870612
      6 C                    -0.495415
      7 N                    -0.546495
      8 C                     0.046387
      9 C                    -0.230153
     10 H                     0.429902
     11 H                     0.212571
     12 H                     0.219906
     13 H                     0.197977
     14 H                     0.204928
     15 H                     0.196027
     16 H                     0.208005
  ----------------------------------------
  Sum of atomic charges =     0.000000

 -----------------------------------------------------------------
                    Cartesian Multipole Moments
 -----------------------------------------------------------------
    Charge (ESU x 10^10)
                 0.0000
    Dipole Moment (Debye)
         X      -1.5413      Y       1.6440      Z       0.0007
       Tot       2.2535
    Quadrupole Moments (Debye-Ang)
        XX     -44.6981     XY      -3.4418     YY     -44.0947
        XZ      -0.0019     YZ       0.0022     ZZ     -59.1684
    Octopole Moments (Debye-Ang^2)
       XXX     -16.0811    XXY       8.9164    XYY      -7.4328
       YYY      10.9072    XXZ       0.0022    XYZ      -0.0048
       YYZ       0.0028    XZZ      -2.2178    YZZ       2.1921
       ZZZ      -0.0027
    Hexadecapole Moments (Debye-Ang^3)
      XXXX    -810.6270   XXXY     -22.0204   XXYY    -198.1864
      XYYY     -19.1535   YYYY    -369.9240   XXXZ      -0.0041
      XXYZ       0.0077   XYYZ      -0.0060   YYYZ       0.0054
      XXZZ    -191.4682   XYZZ      -3.7331   YYZZ     -95.0882
      XZZZ       0.0057   YZZZ      -0.0037   ZZZZ     -73.0487
 -----------------------------------------------------------------
 Calculating analytic gradient of the CIS energy
 CIS relaxed dipole moment
            1
    1  -1.6085195
    2   0.5661611
    3   0.0000919
	Magnitude:	 1.705 au	 4.334 Debye
 CIS 2 State Energy is -363.5319413768
 Gradient of the state energy (including CIS Excitation Energy)
            1           2           3           4           5           6
    1  -0.0004739  -0.0083640   0.0140921  -0.0115278   0.0028959  -0.0020528
    2  -0.0154732   0.0197252  -0.0012184   0.0097247  -0.0129495   0.0024990
    3   0.0000006   0.0000003  -0.0000029   0.0000074   0.0000009   0.0000004
            7           8           9          10          11          12
    1   0.0095574  -0.0102857   0.0057267   0.0005550   0.0003985   0.0001041
    2   0.0117170   0.0043403  -0.0176313  -0.0008628  -0.0000904  -0.0000657
    3  -0.0000204   0.0000012   0.0000068   0.0000085  -0.0000010  -0.0000013
           13          14          15          16
    1  -0.0002408   0.0000292  -0.0001798  -0.0002340
    2  -0.0001104  -0.0001690   0.0002288   0.0003358
    3  -0.0000002   0.0000004  -0.0000001  -0.0000006
 Gradient time:  CPU 49.14 s  wall 12.36 s
 Geometry Optimization Parameters
   NAtoms,    NIC,     NZ,  NCons,   NDum,   NFix, NCnnct, MaxDiis
       16     116       0       0       0       0       0       0

 Cartesian Hessian Update
 Hessian updated using BFGS update


** GEOMETRY OPTIMIZATION IN DELOCALIZED INTERNAL COORDINATES **
   Searching for a Minimum

   Optimization Cycle:   4

                       Coordinates (Angstroms)
     ATOM                X               Y               Z
      1  C         2.1747347342   -0.6870050160   -0.0000230972
      2  C         2.1533841192    0.7127628047    0.0000032757
      3  C         0.9168166508    1.4408136208    0.0000369339
      4  C        -0.2467205272    0.6722125356    0.0000410894
      5  C        -0.2538829260   -0.7630696923   -0.0000085452
      6  C         0.9811671072   -1.4599681653   -0.0000147037
      7  N        -1.5736680082    1.0714695544   -0.0000127433
      8  C        -1.6142634436   -1.1655501070   -0.0000107506
      9  C        -2.4088651889   -0.0123704139    0.0000850217
     10  H        -1.8817427218    2.0329799262    0.0004994934
     11  H        -1.9931329553   -2.1800994243   -0.0000917429
     12  H        -3.4833819957    0.1044880096    0.0000819700
     13  H         3.0895525873    1.2632714849   -0.0000104212
     14  H         0.8968042230    2.5267593356   -0.0000009116
     15  H         3.1332654430   -1.1987231998   -0.0000496340
     16  H         1.0130278532   -2.5454187607    0.0000007469
   Point Group: c1    Number of degrees of freedom:    42


   Energy is   -363.531941377

 Hessian updated using BFGS update

 40 Hessian modes will be used to form the next step
  Hessian Eigenvalues:
     0.018593    0.019738    0.020011    0.020794    0.021683    0.022200
     0.022636    0.023004    0.023608    0.023851    0.023984    0.024127
     0.156006    0.159943    0.160000    0.160000    0.160088    0.160516
     0.211380    0.220646    0.225499    0.245993    0.249805    0.313651
     0.357150    0.357376    0.357843    0.359341    0.364064    0.366002
     0.376210    0.405306    0.429018    0.435087    0.459541    0.471688
     0.476087    0.486524    0.595536    0.838152

 Minimum search - taking simple RFO step
 Searching for Lamda that Minimizes Along All modes
 Value Taken    Lamda =  -0.00239623
 Step Taken.  Stepsize is  0.091901

                             Maximum     Tolerance    Cnvgd?
         Gradient           0.011959      0.000300      NO
         Displacement       0.035058      0.001200      NO
         Energy change     -0.001353      0.000001      NO


 New Cartesian Coordinates Obtained by Inverse Iteration

 Displacement from previous Coordinates is:  0.101464
 ----------------------------------------------------------------
             Standard Nuclear Orientation (Angstroms)
    I     Atom           X                Y                Z
 ----------------------------------------------------------------
    1      C       2.1744466640    -0.6740565295    -0.0000277435
    2      C       2.1554307767     0.6982085738     0.0000099341
    3      C       0.9087328184     1.4268187631     0.0000422684
    4      C      -0.2400087940     0.6608957547     0.0000626951
    5      C      -0.2499168221    -0.7520528495    -0.0000174139
    6      C       0.9843202094    -1.4481391617    -0.0000335443
    7      N      -1.5740601084     1.0557221999     0.0000857154
    8      C      -1.6102738404    -1.1565033571    -0.0000352307
    9      C      -2.4190409597    -0.0040843191     0.0001279069
   10      H      -1.8752125510     2.0200557926     0.0003155698
   11      H      -1.9896287175    -2.1699343679    -0.0001103140
   12      H      -3.4918863262     0.1145316729     0.0001429372
   13      H       3.0890102115     1.2516702867     0.0000113587
   14      H       0.8888719706     2.5115285476     0.0000190287
   15      H       3.1306323420    -1.1895667140    -0.0000518725
   16      H       1.0216780780    -2.5325417999    -0.0000153142
 ----------------------------------------------------------------
 Molecular Point Group                 C1    NOp =  1
 Largest Abelian Subgroup              C1    NOp =  1
 Nuclear Repulsion Energy =         399.37186304 hartrees
 There are       31 alpha and       31 beta electrons
 Applying Cartesian multipole field
    Component          Value
    ---------          -----
     (2,0,0)        1.00000E-11
     (0,2,0)        2.00000E-11
     (0,0,2)       -3.00000E-11
 Nucleus-field energy     =     0.0000000118 hartrees
 Requested basis set is 6-31+G(d)
 There are 59 shells and 185 basis functions
 A cutoff of  1.0D-12 yielded   1657 shell pairs
 There are     17105 function pairs
 Smallest overlap matrix eigenvalue = 1.23E-06
 Guess MOs from SCF MO coefficient file

 -----------------------------------------------------------------------
  General SCF calculation program by
  Eric Jon Sundstrom, Paul Horn, Yuezhi Mao, Dmitri Zuev, Alec White,
  David Stuck, Shaama M.S., Shane Yost, Joonho Lee, David Small,
  Daniel Levine, Susi Lehtola, Hugh Burton, Evgeny Epifanovsky,
  Bang C. Huynh
 -----------------------------------------------------------------------
 Exchange:     0.1577 Hartree-Fock + 1.0000 wB97X + LR-HF
 Correlation:  1.0000 wB97X
 Using SG-2 standard quadrature grid
 using 4 threads for integral computing
 -------------------------------------------------------
 OpenMP Integral computing Module                
 Release: version 1.0, May 2013, Q-Chem Inc. Pittsburgh 
 -------------------------------------------------------
 using 4 threads for integral computing
 -------------------------------------------------------
 OpenMP Integral computing Module                
 Release: version 1.0, May 2013, Q-Chem Inc. Pittsburgh 
 -------------------------------------------------------
 A restricted SCF calculation will be
 performed using DIIS
 SCF converges when DIIS error is below 1.0e-08
 ---------------------------------------
  Cycle       Energy         DIIS error
 ---------------------------------------
    1    -363.7155975398      4.95e-04  
    2    -363.7165580494      1.09e-04  
    3    -363.7166091920      7.46e-05  
    4    -363.7166350474      1.41e-05  
    5    -363.7166380738      5.97e-06  
    6    -363.7166387534      3.50e-06  
    7    -363.7166389914      1.41e-06  
    8    -363.7166390270      5.46e-07  
    9    -363.7166390296      1.66e-07  
   10    -363.7166390301      8.95e-08  
   11    -363.7166390302      2.61e-08  
   12    -363.7166390302      1.41e-08  
   13    -363.7166390302      5.11e-09  Convergence criterion met
 ---------------------------------------
 SCF time:   CPU 76.16s  wall 19.00s 
 SCF   energy in the final basis set =     -363.7166390302
 Total energy in the final basis set =     -363.7166390302
 
 Direct TDDFT/TDA calculation will be performed
 Exchange:     0.1577 Hartree-Fock + 1.0000 wB97X + LR-HF
 Correlation:  1.0000 wB97X
 Using SG-2 standard quadrature grid
 Singlet excitation energies requested
 CIS energy converged when residual is below 10e- 6
 ---------------------------------------------------
 Iter    Rts Conv    Rts Left    Ttl Dev     Max Dev
 ---------------------------------------------------
   1         0           3      0.002578    0.001775
   2         0           3      0.000693    0.000405
   3         0           3      0.000408    0.000214
   4         0           3      0.000291    0.000102
   5         0           3      0.000132    0.000062
   6         0           3      0.000091    0.000061
   7         0           3      0.000063    0.000047
   8         0           3      0.000502    0.000490
   9         0           3      0.000804    0.000793
  10         1           2      0.000403    0.000391
  11         1           2      0.000143    0.000138
  12         1           2      0.000051    0.000049
  13         2           1      0.000017    0.000016
  14         2           1      0.000008    0.000007
  15         2           1      0.000003    0.000003
  16         2           1      0.000002    0.000001
  17         3           0      0.000001    0.000001    Roots Converged
 ---------------------------------------------------
 
 ---------------------------------------------------
         TDDFT/TDA Excitation Energies              
 ---------------------------------------------------

 Excited state   1: excitation energy (eV) =    5.0009
 Total energy for state  1:                  -363.53286045 au
    Multiplicity: Singlet
    Trans. Mom.:  0.9198 X  -0.9139 Y  -0.0001 Z
    Strength   :     0.2059779475
    D(   30) --> V(    5) amplitude = -0.2530
    D(   31) --> V(    1) amplitude =  0.9366

 Excited state   2: excitation energy (eV) =    5.1592
 Total energy for state  2:                  -363.52704297 au
    Multiplicity: Singlet
    Trans. Mom.: -0.3805 X  -0.1515 Y   0.0000 Z
    Strength   :     0.0212010703
    D(   30) --> V(    1) amplitude = -0.7644
    D(   31) --> V(    5) amplitude = -0.5790

 Excited state   3: excitation energy (eV) =    5.7271
 Total energy for state  3:                  -363.50617089 au
    Multiplicity: Singlet
    Trans. Mom.: -0.0000 X   0.0001 Y  -0.2111 Z
    Strength   :     0.0062539104
    D(   31) --> V(    2) amplitude =  0.9250
 
 ---------------------------------------------------
 Calculating Relaxed Density
 ---------------------------------------------------
 Iter    Rts Conv    Rts Left    Ttl Dev     Max Dev
 ---------------------------------------------------
   1         0           3      0.000846    0.000381
   2         0           3      0.000337    0.000168
   3         0           3      0.000117    0.000054
   4         0           3      0.000037    0.000017
   5         0           3      0.000017    0.000007
   6         1           2      0.000004    0.000002
   7         3           0      0.000000    0.000000    Roots Converged
 ---------------------------------------------------
  SETman timing summary (seconds)
  CPU time               355.37s
  System time              0.00s
  Wall time               89.38s
 
 --------------------------------------------------------------
 
                    Orbital Energies (a.u.)
 --------------------------------------------------------------
 
 Alpha MOs
 -- Occupied --
-14.4629 -10.3142 -10.3066 -10.2821 -10.2771 -10.2747 -10.2731 -10.2684
-10.2618  -1.1188  -0.9725  -0.9104  -0.8709  -0.8397  -0.7527  -0.7158
 -0.6995  -0.6568  -0.5981  -0.5858  -0.5468  -0.5419  -0.5398  -0.5116
 -0.5025  -0.4519  -0.4458  -0.4443  -0.3770  -0.3205  -0.2828
 -- Virtual --
  0.0482   0.0657   0.0837   0.0887   0.0998   0.1007   0.1047   0.1198
  0.1255   0.1291   0.1305   0.1348   0.1544   0.1595   0.1682   0.1687
  0.1799   0.1962   0.2073   0.2082   0.2209   0.2247   0.2331   0.2392
  0.2413   0.2532   0.2566   0.2603   0.2657   0.2721   0.2777   0.2887
  0.2895   0.2959   0.3039   0.3074   0.3116   0.3158   0.3258   0.3350
  0.3447   0.3463   0.3610   0.3744   0.3851   0.3987   0.4001   0.4173
  0.4377   0.4517   0.4690   0.4883   0.5276   0.5532   0.6165   0.6850
  0.7212   0.7737   0.7767   0.8025   0.8236   0.8272   0.8356   0.8375
  0.8435   0.8592   0.8709   0.8808   0.8973   0.8995   0.9193   0.9583
  0.9968   1.0049   1.0172   1.0504   1.0516   1.0622   1.0695   1.0935
  1.1076   1.1364   1.1554   1.1730   1.1970   1.2206   1.2314   1.2799
  1.2852   1.3163   1.3304   1.3425   1.3575   1.4261   1.4265   1.4504
  1.4711   1.5113   1.5193   1.5509   1.5755   1.5817   1.6009   1.6072
  1.6519   1.6943   1.7427   1.9015   1.9312   1.9921   2.0085   2.0255
  2.0507   2.1005   2.1098   2.1129   2.1496   2.1781   2.2431   2.2683
  2.2683   2.3173   2.3308   2.3649   2.3820   2.3841   2.4218   2.4796
  2.5140   2.5628   2.6413   2.6679   2.7291   2.7610   2.7657   2.7860
  2.8406   2.9093   2.9429   2.9661   3.0685   3.0832   3.2038   3.3570
  3.5314   4.2685   4.3726   4.4010   4.4416   4.4830   4.5227   4.6001
  4.6389   4.9014
 --------------------------------------------------------------
 
          Ground-State Mulliken Net Atomic Charges

     Atom                 Charge (a.u.)
  ----------------------------------------
      1 C                    -0.058286
      2 C                    -0.397169
      3 C                    -0.142493
      4 C                    -0.721087
      5 C                     0.912150
      6 C                    -0.512401
      7 N                    -0.549059
      8 C                     0.018069
      9 C                    -0.216186
     10 H                     0.427312
     11 H                     0.210023
     12 H                     0.222653
     13 H                     0.198162
     14 H                     0.204698
     15 H                     0.195820
     16 H                     0.207795
  ----------------------------------------
  Sum of atomic charges =     0.000000

 -----------------------------------------------------------------
                    Cartesian Multipole Moments
 -----------------------------------------------------------------
    Charge (ESU x 10^10)
                 0.0000
    Dipole Moment (Debye)
         X      -1.5010      Y       1.6865      Z       0.0004
       Tot       2.2577
    Quadrupole Moments (Debye-Ang)
        XX     -44.4668     XY      -3.5594     YY     -44.3768
        XZ      -0.0011     YZ       0.0012     ZZ     -59.0206
    Octopole Moments (Debye-Ang^2)
       XXX     -16.6346    XXY       9.0685    XYY      -6.9104
       YYY      11.0130    XXZ       0.0009    XYZ      -0.0026
       YYZ       0.0002    XZZ      -1.9929    YZZ       2.2844
       ZZZ      -0.0044
    Hexadecapole Moments (Debye-Ang^3)
      XXXX    -806.7121   XXXY     -22.1272   XXYY    -198.2250
      XYYY     -18.6790   YYYY    -365.1999   XXXZ       0.0009
      XXYZ       0.0032   XYYZ      -0.0005   YYYZ      -0.0013
      XXZZ    -191.0443   XYZZ      -3.7252   YYZZ     -93.7138
      XZZZ       0.0095   YZZZ      -0.0075   ZZZZ     -72.6952
 -----------------------------------------------------------------
 Calculating analytic gradient of the CIS energy
 CIS relaxed dipole moment
            1
    1  -0.7511479
    2   0.5947615
    3   0.0001067
	Magnitude:	 0.958 au	 2.435 Debye
 CIS 2 State Energy is -363.5270429698
 Gradient of the state energy (including CIS Excitation Energy)
            1           2           3           4           5           6
    1  -0.0023461   0.0180551  -0.0380659   0.0353567  -0.0041514   0.0063035
    2   0.0482065  -0.0596096  -0.0052773  -0.0237737   0.0375350   0.0000449
    3   0.0000005  -0.0000019   0.0000011   0.0000009   0.0000036  -0.0000014
            7           8           9          10          11          12
    1  -0.0223303   0.0247595  -0.0153523  -0.0014613  -0.0008954   0.0008511
    2  -0.0346204  -0.0075141   0.0435406   0.0010673   0.0010716   0.0001599
    3  -0.0000083  -0.0000089   0.0000133   0.0000014  -0.0000005  -0.0000010
           13          14          15          16
    1   0.0000744  -0.0006039  -0.0003122   0.0001186
    2  -0.0010737  -0.0004790   0.0006225   0.0000994
    3   0.0000003  -0.0000005  -0.0000001   0.0000016
 Gradient time:  CPU 49.34 s  wall 12.41 s
 Geometry Optimization Parameters
   NAtoms,    NIC,     NZ,  NCons,   NDum,   NFix, NCnnct, MaxDiis
       16     116       0       0       0       0       0       0

 Cartesian Hessian Update
 Hessian updated using BFGS update


** GEOMETRY OPTIMIZATION IN DELOCALIZED INTERNAL COORDINATES **
   Searching for a Minimum

   Optimization Cycle:   5

                       Coordinates (Angstroms)
     ATOM                X               Y               Z
      1  C         2.1744466640   -0.6740565295   -0.0000277435
      2  C         2.1554307767    0.6982085738    0.0000099341
      3  C         0.9087328184    1.4268187631    0.0000422684
      4  C        -0.2400087940    0.6608957547    0.0000626951
      5  C        -0.2499168221   -0.7520528495   -0.0000174139
      6  C         0.9843202094   -1.4481391617   -0.0000335443
      7  N        -1.5740601084    1.0557221999    0.0000857154
      8  C        -1.6102738404   -1.1565033571   -0.0000352307
      9  C        -2.4190409597   -0.0040843191    0.0001279069
     10  H        -1.8752125510    2.0200557926    0.0003155698
     11  H        -1.9896287175   -2.1699343679   -0.0001103140
     12  H        -3.4918863262    0.1145316729    0.0001429372
[...]
    1  -0.0466128   0.0465305   0.0042641  -0.0015928  -0.0003378  -0.0006490
    2  -0.0235368  -0.0142212   0.0627615   0.0006266   0.0001499   0.0007888
    3   0.0000000  -0.0000015   0.0000023   0.0000001   0.0000000   0.0000001
           13          14          15          16
    1   0.0004937  -0.0004020   0.0001982  -0.0000911
    2   0.0007881   0.0000926   0.0006306  -0.0002139
    3   0.0000001   0.0000000   0.0000000  -0.0000000
 Gradient time:  CPU 46.22 s  wall 11.62 s
 Geometry Optimization Parameters
   NAtoms,    NIC,     NZ,  NCons,   NDum,   NFix, NCnnct, MaxDiis
       16     116       0       0       0       0       0       0

 Cartesian Hessian Update
 Hessian updated using BFGS update


** GEOMETRY OPTIMIZATION IN DELOCALIZED INTERNAL COORDINATES **
   Searching for a Minimum

   Optimization Cycle:  49

                       Coordinates (Angstroms)
     ATOM                X               Y               Z
      1  C         2.1795609760   -0.6961571757   -0.0000452195
      2  C         2.1418664485    0.6969857767    0.0000134338
      3  C         0.9058728759    1.4402343837    0.0000742086
      4  C        -0.2489145620    0.6668909836    0.0000703327
      5  C        -0.2481110087   -0.7583528757    0.0000090443
      6  C         0.9925507812   -1.4699089045   -0.0000491386
      7  N        -1.5945412876    1.0764318316    0.0001156180
      8  C        -1.5910223547   -1.1583439243    0.0000236447
      9  C        -2.4051342361    0.0100139143    0.0000889983
     10  H        -1.9004976693    2.0385751704    0.0001674950
     11  H        -1.9766599356   -2.1704347081   -0.0000097363
     12  H        -3.4825027617    0.1088904509    0.0001180570
     13  H         3.0755168103    1.2545108430    0.0000140338
     14  H         0.8949928397    2.5256299741    0.0001188908
     15  H         3.1436951827   -1.1970866561   -0.0000888306
     16  H         1.0164228527   -2.5553265913   -0.0000948509
   Point Group: c1    Number of degrees of freedom:    42


   Energy is   -363.526123292

 Hessian updated using BFGS update

 39 Hessian modes will be used to form the next step
  Hessian Eigenvalues:
     0.018593    0.020011    0.020794    0.021683    0.022200    0.022636
     0.023608    0.023851    0.023984    0.024127    0.158723    0.159948
     0.160009    0.160020    0.160115    0.160475    0.160712    0.222185
     0.228360    0.241569    0.246283    0.295634    0.357147    0.357400
     0.357842    0.359007    0.364261    0.365009    0.377489    0.406178
     0.428951    0.440023    0.464645    0.471990    0.477761    0.551800
     0.645526    0.928911    1.996445

 Minimum search - taking simple RFO step
 Searching for Lamda that Minimizes Along All modes
 Value Taken    Lamda =  -0.00683240
 Step Taken.  Stepsize is  0.090213

                             Maximum     Tolerance    Cnvgd?
         Gradient           0.043475      0.000300      NO
         Displacement       0.040822      0.001200      NO
         Energy change      0.004623      0.000001      NO


 New Cartesian Coordinates Obtained by Inverse Iteration

 Displacement from previous Coordinates is:  0.098717
 ----------------------------------------------------------------
             Standard Nuclear Orientation (Angstroms)
    I     Atom           X                Y                Z
 ----------------------------------------------------------------
    1      C       2.1765036261    -0.6882825952    -0.0000448352
    2      C       2.1522042512     0.7101841565     0.0000137367
    3      C       0.9149076873     1.4408509113     0.0000744762
    4      C      -0.2470560956     0.6714426191     0.0000697382
    5      C      -0.2527132507    -0.7629938269     0.0000089770
    6      C       0.9830733412    -1.4617411867    -0.0000482307
    7      N      -1.5778892300     1.0723466678     0.0001153565
    8      C      -1.6112633880    -1.1642611834     0.0000230578
    9      C      -2.4094666389    -0.0086736040     0.0000897892
   10      H      -1.8849003683     2.0342029663     0.0001655434
   11      H      -1.9925762127    -2.1778878396    -0.0000109828
   12      H      -3.4847434701     0.1041288490     0.0001187964
   13      H       3.0874311204     1.2630836235     0.0000135738
   14      H       0.8982583874     2.5266859021     0.0001194841
   15      H       3.1355684277    -1.1993623119    -0.0000887143
   16      H       1.0157567641    -2.5471706554    -0.0000937848
 ----------------------------------------------------------------
 Molecular Point Group                 C1    NOp =  1
 Largest Abelian Subgroup              C1    NOp =  1
 Nuclear Repulsion Energy =         397.82363601 hartrees
 There are       31 alpha and       31 beta electrons
 Applying Cartesian multipole field
    Component          Value
    ---------          -----
     (2,0,0)        1.00000E-11
     (0,2,0)        2.00000E-11
     (0,0,2)       -3.00000E-11
 Nucleus-field energy     =     0.0000000119 hartrees
 Requested basis set is 6-31+G(d)
 There are 59 shells and 185 basis functions
 A cutoff of  1.0D-12 yielded   1657 shell pairs
 There are     17105 function pairs
 Smallest overlap matrix eigenvalue = 1.33E-06
 Guess MOs from SCF MO coefficient file

 -----------------------------------------------------------------------
  General SCF calculation program by
  Eric Jon Sundstrom, Paul Horn, Yuezhi Mao, Dmitri Zuev, Alec White,
  David Stuck, Shaama M.S., Shane Yost, Joonho Lee, David Small,
  Daniel Levine, Susi Lehtola, Hugh Burton, Evgeny Epifanovsky,
  Bang C. Huynh
 -----------------------------------------------------------------------
 Exchange:     0.1577 Hartree-Fock + 1.0000 wB97X + LR-HF
 Correlation:  1.0000 wB97X
 Using SG-2 standard quadrature grid
 using 4 threads for integral computing
 -------------------------------------------------------
 OpenMP Integral computing Module                
 Release: version 1.0, May 2013, Q-Chem Inc. Pittsburgh 
 -------------------------------------------------------
 using 4 threads for integral computing
 -------------------------------------------------------
 OpenMP Integral computing Module                
 Release: version 1.0, May 2013, Q-Chem Inc. Pittsburgh 
 -------------------------------------------------------
 A restricted SCF calculation will be
 performed using DIIS
 SCF converges when DIIS error is below 1.0e-08
 ---------------------------------------
  Cycle       Energy         DIIS error
 ---------------------------------------
    1    -363.7177305240      4.26e-04  
    2    -363.7187159011      8.82e-05  
    3    -363.7187843742      4.98e-05  
    4    -363.7187995109      1.74e-05  
    5    -363.7188042326      6.62e-06  
    6    -363.7188052776      4.12e-06  
    7    -363.7188054881      9.76e-07  
    8    -363.7188055057      4.72e-07  
    9    -363.7188055077      1.75e-07  
   10    -363.7188055082      6.10e-08  
   11    -363.7188055083      3.96e-08  
   12    -363.7188055083      9.29e-09  Convergence criterion met
 ---------------------------------------
 SCF time:   CPU 66.26s  wall 17.00s 
 SCF   energy in the final basis set =     -363.7188055083
 Total energy in the final basis set =     -363.7188055083
 
 Direct TDDFT/TDA calculation will be performed
 Exchange:     0.1577 Hartree-Fock + 1.0000 wB97X + LR-HF
 Correlation:  1.0000 wB97X
 Using SG-2 standard quadrature grid
 Singlet excitation energies requested
 CIS energy converged when residual is below 10e- 6
 ---------------------------------------------------
 Iter    Rts Conv    Rts Left    Ttl Dev     Max Dev
 ---------------------------------------------------
   1         0           3      0.003816    0.001769
   2         0           3      0.001150    0.000590
   3         0           3      0.000725    0.000389
   4         0           3      0.000408    0.000175
   5         0           3      0.000159    0.000073
   6         0           3      0.000070    0.000031
   7         0           3      0.000031    0.000014
   8         0           3      0.000014    0.000006
   9         0           3      0.000005    0.000002
  10         3           0      0.000002    0.000001    Roots Converged
 ---------------------------------------------------
 
 ---------------------------------------------------
         TDDFT/TDA Excitation Energies              
 ---------------------------------------------------

 Excited state   1: excitation energy (eV) =    5.0659
 Total energy for state  1:                  -363.53263879 au
    Multiplicity: Singlet
    Trans. Mom.: -0.9886 X   0.6005 Y   0.0000 Z
    Strength   :     0.1660520811
    D(   30) --> V(    1) amplitude = -0.3702
    D(   30) --> V(    5) amplitude =  0.2494
    D(   31) --> V(    1) amplitude =  0.7993
    D(   31) --> V(    5) amplitude =  0.3348

 Excited state   2: excitation energy (eV) =    5.0922
 Total energy for state  2:                  -363.53167121 au
    Multiplicity: Singlet
    Trans. Mom.: -0.1848 X   0.6268 Y   0.0000 Z
    Strength   :     0.0532732839
    D(   30) --> V(    1) amplitude =  0.6802
    D(   31) --> V(    1) amplitude =  0.4726
    D(   31) --> V(    5) amplitude = -0.4677

 Excited state   3: excitation energy (eV) =    5.7942
 Total energy for state  3:                  -363.50587165 au
    Multiplicity: Singlet
    Trans. Mom.:  0.0000 X  -0.0000 Y   0.2138 Z
    Strength   :     0.0064872811
    D(   31) --> V(    2) amplitude =  0.9252
 
 ---------------------------------------------------
 Calculating Relaxed Density
 ---------------------------------------------------
 Iter    Rts Conv    Rts Left    Ttl Dev     Max Dev
 ---------------------------------------------------
   1         0           3      0.000857    0.000385
   2         0           3      0.000348    0.000175
   3         0           3      0.000121    0.000044
   4         0           3      0.000038    0.000014
   5         0           3      0.000015    0.000005
   6         0           3      0.000005    0.000002
   7         3           0      0.000000    0.000000    Roots Converged
 ---------------------------------------------------
  SETman timing summary (seconds)
  CPU time               277.77s
  System time              0.00s
  Wall time               69.84s
 
 --------------------------------------------------------------
 
                    Orbital Energies (a.u.)
 --------------------------------------------------------------
 
 Alpha MOs
 -- Occupied --
-14.4650 -10.3141 -10.3098 -10.2834 -10.2786 -10.2770 -10.2755 -10.2716
-10.2632  -1.1168  -0.9681  -0.9114  -0.8664  -0.8401  -0.7495  -0.7171
 -0.6990  -0.6559  -0.5984  -0.5835  -0.5460  -0.5406  -0.5400  -0.5125
 -0.4999  -0.4542  -0.4430  -0.4427  -0.3789  -0.3159  -0.2850
 -- Virtual --
  0.0492   0.0657   0.0837   0.0885   0.0962   0.1007   0.1046   0.1197
  0.1256   0.1288   0.1307   0.1348   0.1540   0.1595   0.1679   0.1687
  0.1802   0.1955   0.2066   0.2076   0.2205   0.2251   0.2330   0.2387
  0.2406   0.2537   0.2568   0.2598   0.2655   0.2722   0.2758   0.2872
  0.2881   0.2964   0.3032   0.3072   0.3091   0.3147   0.3257   0.3344
  0.3437   0.3458   0.3611   0.3730   0.3842   0.3940   0.3998   0.4146
  0.4326   0.4504   0.4656   0.4858   0.5267   0.5478   0.6135   0.6757
  0.7102   0.7754   0.7778   0.8024   0.8195   0.8266   0.8375   0.8392
  0.8409   0.8587   0.8657   0.8803   0.8959   0.8965   0.9189   0.9572
  0.9965   1.0050   1.0176   1.0492   1.0529   1.0617   1.0686   1.0939
  1.1048   1.1368   1.1549   1.1707   1.1961   1.2182   1.2264   1.2777
  1.2839   1.3123   1.3288   1.3427   1.3528   1.4244   1.4269   1.4498
  1.4684   1.5138   1.5146   1.5465   1.5734   1.5773   1.6004   1.6041
  1.6488   1.6921   1.7463   1.8917   1.9278   1.9929   2.0022   2.0162
  2.0369   2.0997   2.1031   2.1115   2.1467   2.1683   2.2365   2.2529
  2.2639   2.2988   2.3349   2.3526   2.3701   2.3765   2.4127   2.4752
  2.5103   2.5575   2.6359   2.6585   2.7273   2.7467   2.7554   2.7797
  2.8305   2.9010   2.9380   2.9493   3.0618   3.0771   3.2008   3.3410
  3.5049   4.2645   4.3635   4.4047   4.4370   4.4786   4.5199   4.5962
  4.6366   4.8918
 --------------------------------------------------------------
 
          Ground-State Mulliken Net Atomic Charges

     Atom                 Charge (a.u.)
  ----------------------------------------
      1 C                    -0.072019
      2 C                    -0.391456
      3 C                    -0.171075
      4 C                    -0.690979
      5 C                     0.877532
      6 C                    -0.486074
      7 N                    -0.543810
      8 C                     0.036382
      9 C                    -0.228277
     10 H                     0.430143
     11 H                     0.212083
     12 H                     0.220028
     13 H                     0.197512
     14 H                     0.205360
     15 H                     0.196411
     16 H                     0.208239
  ----------------------------------------
  Sum of atomic charges =     0.000000

 -----------------------------------------------------------------
                    Cartesian Multipole Moments
 -----------------------------------------------------------------
    Charge (ESU x 10^10)
                 0.0000
    Dipole Moment (Debye)
         X      -1.5355      Y       1.6628      Z       0.0001
       Tot       2.2633
    Quadrupole Moments (Debye-Ang)
        XX     -44.6868     XY      -3.5045     YY     -44.0911
        XZ      -0.0005     YZ       0.0008     ZZ     -59.1805
    Octopole Moments (Debye-Ang^2)
       XXX     -16.1585    XXY       8.9350    XYY      -7.3619
       YYY      11.0580    XXZ      -0.0009    XYZ      -0.0005
       YYZ      -0.0011    XZZ      -2.1986    YZZ       2.2154
       ZZZ      -0.0057
    Hexadecapole Moments (Debye-Ang^3)
      XXXX    -810.8794   XXXY     -21.9022   XXYY    -198.2062
      XYYY     -18.7714   YYYY    -369.8447   XXXZ       0.0039
      XXYZ       0.0004   XYYZ       0.0016   YYYZ      -0.0027
      XXZZ    -191.5814   XYZZ      -3.5590   YYZZ     -95.1339
      XZZZ       0.0109   YZZZ      -0.0084   ZZZZ     -73.0993
 -----------------------------------------------------------------
 Calculating analytic gradient of the CIS energy
 CIS relaxed dipole moment
            1
    1  -0.9512214
    2   0.4483807
    3   0.0000404
	Magnitude:	 1.052 au	 2.673 Debye
 CIS 2 State Energy is -363.5316712097
 Gradient of the state energy (including CIS Excitation Energy)
            1           2           3           4           5           6
    1   0.0006204  -0.0010593  -0.0084257   0.0114615  -0.0136619   0.0110491
    2   0.0052032  -0.0165559   0.0058191  -0.0176572   0.0092245  -0.0046827
    3   0.0000002  -0.0000007   0.0000005  -0.0000008   0.0000006  -0.0000004
            7           8           9          10          11          12
    1  -0.0296998   0.0269689   0.0041535  -0.0008243  -0.0001851  -0.0004969
    2  -0.0085439  -0.0096686   0.0352766   0.0000387   0.0001189   0.0003644
    3   0.0000001  -0.0000010   0.0000015   0.0000001   0.0000000   0.0000000
           13          14          15          16
    1   0.0002500  -0.0001124   0.0000959  -0.0001338
    2   0.0006014   0.0000109   0.0004960  -0.0000455
    3  -0.0000000  -0.0000000   0.0000000  -0.0000000
 Gradient time:  CPU 46.15 s  wall 11.60 s
 Geometry Optimization Parameters
   NAtoms,    NIC,     NZ,  NCons,   NDum,   NFix, NCnnct, MaxDiis
       16     116       0       0       0       0       0       0

 Cartesian Hessian Update
 Hessian updated using BFGS update


** GEOMETRY OPTIMIZATION IN DELOCALIZED INTERNAL COORDINATES **
   Searching for a Minimum

   Optimization Cycle:  50

                       Coordinates (Angstroms)
     ATOM                X               Y               Z
      1  C         2.1765036261   -0.6882825952   -0.0000448352
      2  C         2.1522042512    0.7101841565    0.0000137367
      3  C         0.9149076873    1.4408509113    0.0000744762
      4  C        -0.2470560956    0.6714426191    0.0000697382
      5  C        -0.2527132507   -0.7629938269    0.0000089770
      6  C         0.9830733412   -1.4617411867   -0.0000482307
      7  N        -1.5778892300    1.0723466678    0.0001153565
      8  C        -1.6112633880   -1.1642611834    0.0000230578
      9  C        -2.4094666389   -0.0086736040    0.0000897892
     10  H        -1.8849003683    2.0342029663    0.0001655434
     11  H        -1.9925762127   -2.1778878396   -0.0000109828
     12  H        -3.4847434701    0.1041288490    0.0001187964
     13  H         3.0874311204    1.2630836235    0.0000135738
     14  H         0.8982583874    2.5266859021    0.0001194841
     15  H         3.1355684277   -1.1993623119   -0.0000887143
     16  H         1.0157567641   -2.5471706554   -0.0000937848
   Point Group: c1    Number of degrees of freedom:    42


   Energy is   -363.531671210

 Hessian updated using BFGS update

 42 Hessian modes will be used to form the next step
  Hessian Eigenvalues:
     0.018593    0.019738    0.020011    0.020794    0.021683    0.022200
     0.022636    0.023004    0.023236    0.023608    0.023851    0.023984
     0.024127    0.153894    0.159034    0.159995    0.160017    0.160100
     0.160330    0.160506    0.216644    0.226419    0.239347    0.245698
     0.295407    0.356592    0.357217    0.357572    0.358996    0.364088
     0.364914    0.367823    0.402858    0.415620    0.429308    0.449817
     0.471613    0.476495    0.487132    0.553430    0.650311    2.005851

 Minimum search - taking simple RFO step
 Searching for Lamda that Minimizes Along All modes
 Value Taken    Lamda =  -0.00541405
 Step Taken.  Stepsize is  0.126203

                             Maximum     Tolerance    Cnvgd?
         Gradient           0.026362      0.000300      NO
         Displacement       0.058935      0.001200      NO
         Energy change     -0.005548      0.000001      NO


 New Cartesian Coordinates Obtained by Inverse Iteration

 Displacement from previous Coordinates is:  0.141887
 ----------------------------------------------------------------
             Standard Nuclear Orientation (Angstroms)
    I     Atom           X                Y                Z
 ----------------------------------------------------------------
    1      C       2.1707668484    -0.6753665362    -0.0000420241
    2      C       2.1673248767     0.7284400199     0.0000141002
    3      C       0.9268422478     1.4414385908     0.0000687638
    4      C      -0.2442026110     0.6756290186     0.0000683493
    5      C      -0.2598134809    -0.7685535862     0.0000078336
    6      C       0.9696298501    -1.4500712622    -0.0000481676
    7      N      -1.5527791646     1.0632645913     0.0001141336
    8      C      -1.6398149737    -1.1714306358     0.0000200159
    9      C      -2.4164407055    -0.0343176688     0.0000905899
   10      H      -1.8601628707     2.0253945985     0.0001693297
   11      H      -2.0139330534    -2.1876037712    -0.0000153659
   12      H      -3.4879937937     0.1004653411     0.0001251916
   13      H       3.1049909441     1.2741903591     0.0000173597
   14      H       0.9001395659     2.5277690482     0.0001132724
   15      H       3.1222390467    -1.2013907860    -0.0000833273
   16      H       1.0163022252    -2.5353048285    -0.0000940737
 ----------------------------------------------------------------
 Molecular Point Group                 C1    NOp =  1
 Largest Abelian Subgroup              C1    NOp =  1
 Nuclear Repulsion Energy =         397.59944893 hartrees
 There are       31 alpha and       31 beta electrons


 *******************************************
 **  MAXIMUM OPTIMIZATION CYCLES REACHED  **
 *******************************************

 Q-Chem fatal error occurred in module 0, line  455:

 Maximum optimization cycles reached

