
Running Job 1 of 1 QfuncsM06-2X-VI-2nd.in
qchem QfuncsM06-2X-VI-2nd.in_67478.0 /scratch/scaparas/job_3585169/qchem67478/ 0
/cm/shared/apps/spack/cpu/opt/spack/linux-centos8-zen2/gcc-10.2.0/qchem-5.3-5qddma6gy34jvefiv7mbcb7qm253n45r/exe/qcprog.exe_s QfuncsM06-2X-VI-2nd.in_67478.0 /scratch/scaparas/job_3585169/qchem67478/
                  Welcome to Q-Chem
     A Quantum Leap Into The Future Of Chemistry


 Q-Chem 5.3, Q-Chem, Inc., Pleasanton, CA (2020)

 License issued to: University of California, San Diego (site)

 Yihan Shao,  Zhengting Gan,  E. Epifanovsky,  A. T. B. Gilbert,  M. Wormit,  
 J. Kussmann,  A. W. Lange,  A. Behn,  Jia Deng,  Xintian Feng,  D. Ghosh,  
 M. Goldey,  P. R. Horn,  L. D. Jacobson,  I. Kaliman,  T. Kus,  A. Landau,  
 Jie Liu,  E. I. Proynov,  R. M. Richard,  R. P. Steele,  E. J. Sundstrom,  
 H. L. Woodcock III,  P. M. Zimmerman,  D. Zuev,  B. Alam,  B. Albrecht,  
 A. Aldossary,  E. Alguire,  S. A. Baeppler,  D. Barton,  Z. Benda,  
 Y. A. Bernard,  E. J. Berquist,  K. B. Bravaya,  H. Burton,  K. Carter-Fenk,  
 D. Casanova,  Chun-Min Chang,  Yunqing Chen,  A. Chien,  K. D. Closser,  
 M. P. Coons,  S. Coriani,  S. Dasgupta,  A. L. Dempwolff,  M. Diedenhofen,  
 Hainam Do,  R. G. Edgar,  Po-Tung Fang,  S. Faraji,  S. Fatehi,  
 Qingguo Feng,  J. Fosso-Tande,  J. Gayvert,  Qinghui Ge,  A. Ghysels,  
 G. Gidofalvi,  J. Gomes,  J. Gonthier,  S. Gulania,  A. Gunina,  D. Hait,  
 M. W. D. Hanson-Heine,  S. Hammes-Schiffer,  P. H. P. Harbach,  
 A. W. Hauser,  M. F. Herbst,  J. E. Herr,  E. G. Hohenstein,  Z. C. Holden,  
 S. Houck,  Kerwin Hui,  B. C. Huynh,  M. Ivanov,  T.-C. Jagau,  Hyunjun Ji,  
 B. Kaduk,  K. Khistyaev,  Jaehoon Kim,  P. Klunzinger,  K. Koh,  
 D. Kosenkov,  L. Koulias,  T. Kowalczyk,  C. M. Krauter,  A. Kunitsa,  
 Ka Un Lao,  A. Laurent,  K. V. Lawler,  Joonho Lee,  D. Lefrancois,  
 S. Lehtola,  D. S. Levine,  Yi-Pei Li,  You-Sheng Lin,  Fenglai Liu,  
 Kuan-Yu Liu,  E. Livshits,  M. Loipersberger,  A. Luenser,  P. Manohar,  
 E. Mansoor,  S. F. Manzer,  Shan-Ping Mao,  Yuezhi Mao,  N. Mardirossian,  
 A. V. Marenich,  T. Markovich,  L. A. Martinez-Martinez,  S. A. Maurer,  
 N. J. Mayhall,  S. C. McKenzie,  J.-M. Mewes,  P. Morgante,  A. F. Morrison,  
 J. W. Mullinax,  K. Nanda,  T. S. Nguyen-Beck,  R. Olivares-Amaya,  
 K. J. Oosterbaan,  J. A. Parkhill,  S. K. Paul,  F. Pavosevic,  Zheng Pei,  
 T. M. Perrine,  F. Plasser,  P. Pokhilko,  S. Prager,  A. Prociuk,  
 E. Ramos,  B. Rana,  D. R. Rehn,  F. Rob,  E. Rossomme,  M. Scheurer,  
 M. Schneider,  N. Sergueev,  S. M. Sharada,  S. Sharma,  W. Skomorowski,  
 D. W. Small,  T. Stauch,  C. J. Stein,  T. Stein,  Yu-Chuan Su,  
 S. P. Veccham,  Zhen Tao,  A. J. W. Thom,  A. Tkatchenko,  T. Tsuchimochi,  
 N. M. Tubman,  L. Vogt,  M. L. Vidal,  O. Vydrov,  M. A. Watson,  J. Wenzel,  
 M. de Wergifosse,  T. A. Wesolowski,  A. White,  J. Witte,  A. Yamada,  
 Jun Yang,  K. Yao,  S. Yeganeh,  S. R. Yost,  Zhi-Qiang You,  A. Zech,  
 Igor Ying Zhang,  Xing Zhang,  Yan Zhao,  Ying Zhu,  B. R. Brooks,  
 G. K. L. Chan,  C. J. Cramer,  M. S. Gordon,  W. J. Hehre,  A. Klamt,  
 M. W. Schmidt,  C. D. Sherrill,  D. G. Truhlar,  A. Aspuru-Guzik,  R. Baer,  
 A. T. Bell,  N. A. Besley,  Jeng-Da Chai,  A. E. DePrince, III,  
 R. A. DiStasio Jr.,  A. Dreuw,  B. D. Dunietz,  T. R. Furlani,  
 Chao-Ping Hsu,  Yousung Jung,  Jing Kong,  D. S. Lambrecht,  WanZhen Liang,  
 C. Ochsenfeld,  V. A. Rassolov,  L. V. Slipchenko,  J. E. Subotnik,  
 T. Van Voorhis,  J. M. Herbert,  A. I. Krylov,  P. M. W. Gill,  M. Head-Gordon

 Contributors to earlier versions of Q-Chem not listed above: 
 R. D. Adamson,  B. Austin,  J. Baker,  G. J. O. Beran,  K. Brandhorst,  
 S. T. Brown,  E. F. C. Byrd,  A. K. Chakraborty,  C.-L. Cheng,  
 Siu Hung Chien,  D. M. Chipman,  D. L. Crittenden,  H. Dachsel,  
 R. J. Doerksen,  A. D. Dutoi,  L. Fusti-Molnar,  W. A. Goddard III,  
 A. Golubeva-Zadorozhnaya,  S. R. Gwaltney,  G. Hawkins,  A. Heyden,  
 S. Hirata,  G. Kedziora,  F. J. Keil,  C. Kelley,  Jihan Kim,  R. A. King,  
 R. Z. Khaliullin,  P. P. Korambath,  W. Kurlancheek,  A. M. Lee,  M. S. Lee,  
 S. V. Levchenko,  Ching Yeh Lin,  D. Liotard,  R. C. Lochan,  I. Lotan,  
 P. E. Maslen,  N. Nair,  D. P. O'Neill,  D. Neuhauser,  E. Neuscamman,  
 C. M. Oana,  R. Olson,  B. Peters,  R. Peverati,  P. A. Pieniazek,  
 Y. M. Rhee,  J. Ritchie,  M. A. Rohrdanz,  E. Rosta,  N. J. Russ,  
 H. F. Schaefer III,  N. E. Schultz,  N. Shenvi,  A. C. Simmonett,  A. Sodt,  
 D. Stuck,  K. S. Thanthiriwatte,  V. Vanovschi,  Tao Wang,  A. Warshel,  
 C. F. Williams,  Q. Wu,  X. Xu,  W. Zhang

 Please cite Q-Chem as follows:
 Y. Shao et al., Mol. Phys. 113, 184-215 (2015)
 DOI: 10.1080/00268976.2014.952696

 Q-Chem 5.3.1 for Intel X86 EM64T Linux

 Parts of Q-Chem use Armadillo 9.800.1 (Horizon Scraper).
 http://arma.sourceforge.net/

 Q-Chem begins on Wed Jun 23 13:40:49 2021  

Host: 
0

     Scratch files written to /scratch/scaparas/job_3585169/qchem67478//
 Aug2920 |scratch|qcdevops|jenkins|workspace|build_RNUM    
Processing $rem in /cm/shared/apps/spack/cpu/opt/spack/linux-centos8-zen2/gcc-10.2.0/qchem-5.3-5qddma6gy34jvefiv7mbcb7qm253n45r/config/preferences:
Processing $rem in /home/scaparas/.qchemrc:

Checking the input file for inconsistencies... 	...done.

--------------------------------------------------------------
User input:
--------------------------------------------------------------
$molecule
0 1
C   -2.1510630    0.6892080    0.0000880
C   -2.1279270   -0.7158180    0.0000750
C   -0.9322970   -1.4131000   -0.0000110
C    0.2469110   -0.6702010   -0.0000420
C    0.2481930    0.7482990    0.0000000
C   -0.9794740    1.4235260    0.0000320
N    1.5617740   -1.0775920   -0.0002850
C    1.6201330    1.1629000   -0.0001570
C    2.3820130    0.0308060    0.0002480
H    1.8763150   -2.0300110    0.0004380
H    1.9921730    2.1730100   -0.0003480
H    3.4525490   -0.0824250    0.0004080
H   -3.0615940   -1.2620200    0.0000880
H   -0.9172520   -2.4953420   -0.0000730
H   -3.1042030    1.2007850    0.0000900
H   -1.0093480    2.5054210   -0.0000150
$end

$rem
BASIS  =  6-31+G*
GUI  =  2
JOB_TYPE  =  Optimization
METHOD  = M06-2X
SCF_CONVERGENCE  =  8
THRESH = 12
CIS_N_ROOTS  = 3
CIS_SINGLETS = true
CIS_TRIPLETS = false
CIS_STATE_DERIV = 2
MEM_STATIC=500
MEM_TOTAL=3000
$end
--------------------------------------------------------------
 ----------------------------------------------------------------
             Standard Nuclear Orientation (Angstroms)
    I     Atom           X                Y                Z
 ----------------------------------------------------------------
    1      C       2.1510629040    -0.6892079969     0.0000583065
    2      C       2.1279268385     0.7158180020     0.0000481775
    3      C       0.9322968051     1.4130999466    -0.0000206639
    4      C      -0.2469111607     0.6702008918    -0.0000373513
    5      C      -0.2481930942    -0.7482991083     0.0000020775
    6      C       0.9794739374    -1.4235260513     0.0000165335
    7      N      -1.5617741827     1.0775918311    -0.0002621374
    8      C      -1.6201330769    -1.1629001718    -0.0001374500
    9      C      -2.3820131241    -0.0308062080     0.0002797387
   10      H      -1.8763152174     2.0300108152     0.0004667797
   11      H      -1.9921730325    -2.1730101887    -0.0003253498
   12      H      -3.4525491271     0.0824247420     0.0004541695
   13      H       3.0615938132     1.2620200454     0.0000497686
   14      H       0.9172517540     2.4953419460    -0.0000804893
   15      H       3.1042029277    -1.2007849526     0.0000467087
   16      H       1.0093479871    -2.5054210498    -0.0000328375
 ----------------------------------------------------------------
 Molecular Point Group                 C1    NOp =  1
 Largest Abelian Subgroup              C1    NOp =  1
 Nuclear Repulsion Energy =         401.33686680 hartrees
 There are       31 alpha and       31 beta electrons
 Requested basis set is 6-31+G(d)
 There are 59 shells and 185 basis functions

 Total QAlloc Memory Limit   3000 MB
 Mega-Array Size       489 MB
 MEM_STATIC part       500 MB
 A cutoff of  1.0D-12 yielded   1657 shell pairs
 There are     17105 function pairs
 Smallest overlap matrix eigenvalue = 1.26E-06

 Scale SEOQF with 1.000000e-01/1.000000e-01/1.000000e-01

 Standard Electronic Orientation quadrupole field applied
 Nucleus-field energy     =     0.0000000117 hartrees
 Guess from superposition of atomic densities
 Warning:  Energy on first SCF cycle will be non-variational
 SAD guess density has 62.000000 electrons

 -----------------------------------------------------------------------
  General SCF calculation program by
  Eric Jon Sundstrom, Paul Horn, Yuezhi Mao, Dmitri Zuev, Alec White,
  David Stuck, Shaama M.S., Shane Yost, Joonho Lee, David Small,
  Daniel Levine, Susi Lehtola, Hugh Burton, Evgeny Epifanovsky,
  Bang C. Huynh
 -----------------------------------------------------------------------
 Exchange:     0.5400 Hartree-Fock + 1.0000 M06-2X
 Correlation:  1.0000 M06-2X
 Using SG-3 standard quadrature grid
 using 4 threads for integral computing
 -------------------------------------------------------
 OpenMP Integral computing Module                
 Release: version 1.0, May 2013, Q-Chem Inc. Pittsburgh 
 -------------------------------------------------------
 A restricted SCF calculation will be
 performed using DIIS
 SCF converges when DIIS error is below 1.0e-08
 ---------------------------------------
  Cycle       Energy         DIIS error
 ---------------------------------------
    1    -366.8054562241      5.66e-02  
    2    -363.5894056040      4.05e-03  
    3    -363.6118420095      3.52e-03  
    4    -363.6670374853      8.84e-04  
    5    -363.6699374204      3.65e-04  
    6    -363.6704860012      5.34e-05  
    7    -363.6704969210      2.29e-05  
    8    -363.6704994196      4.18e-06  
    9    -363.6704995298      2.24e-06  
   10    -363.6704995651      6.05e-07  
   11    -363.6704995701      2.96e-07  
   12    -363.6704995707      7.86e-08  
   13    -363.6704995707      3.77e-08  
   14    -363.6704995708      1.25e-08  
   15    -363.6704995708      3.19e-09  Convergence criterion met
 ---------------------------------------
 SCF time:   CPU 262.26s  wall 69.00s 
 SCF   energy in the final basis set =     -363.6704995708
 Total energy in the final basis set =     -363.6704995708
 
 Direct TDDFT/TDA calculation will be performed
 Exchange:     0.5400 Hartree-Fock + 1.0000 M06-2X
 Correlation:  1.0000 M06-2X
 Using SG-3 standard quadrature grid
 Singlet excitation energies requested
 CIS energy converged when residual is below 10e- 6
 ---------------------------------------------------
 Iter    Rts Conv    Rts Left    Ttl Dev     Max Dev
 ---------------------------------------------------
   1         0           3      0.002217    0.001686
   2         0           3      0.000554    0.000413
   3         0           3      0.000261    0.000172
   4         0           3      0.000146    0.000077
   5         0           3      0.000089    0.000045
   6         0           3      0.000086    0.000045
   7         0           3      0.000781    0.000659
   8         1           2      0.000332    0.000240
   9         1           2      0.000134    0.000102
  10         1           2      0.000045    0.000034
  11         1           2      0.000011    0.000008
  12         2           1      0.000004    0.000002
  13         3           0      0.000002    0.000001    Roots Converged
 ---------------------------------------------------
 
 ---------------------------------------------------
         TDDFT/TDA Excitation Energies              
 ---------------------------------------------------

 Excited state   1: excitation energy (eV) =    5.1849
 Total energy for state  1:                  -363.47995909 au
    Multiplicity: Singlet
    Trans. Mom.:  0.0009 X  -0.0014 Y  -0.1240 Z
    Strength   :     0.0019546092
    D(   31) --> V(    1) amplitude =  0.9777

 Excited state   2: excitation energy (eV) =    5.2193
 Total energy for state  2:                  -363.47869533 au
    Multiplicity: Singlet
    Trans. Mom.: -0.2880 X  -0.3841 Y   0.0002 Z
    Strength   :     0.0294710838
    D(   30) --> V(    2) amplitude = -0.7849
    D(   31) --> V(    7) amplitude =  0.5271

 Excited state   3: excitation energy (eV) =    5.3280
 Total energy for state  3:                  -363.47469960 au
    Multiplicity: Singlet
    Trans. Mom.:  0.7932 X  -0.6170 Y   0.0001 Z
    Strength   :     0.1318267875
    D(   30) --> V(    7) amplitude =  0.2780
    D(   31) --> V(    2) amplitude =  0.9038
 
 ---------------------------------------------------
 Calculating Relaxed Density
 ---------------------------------------------------
 Iter    Rts Conv    Rts Left    Ttl Dev     Max Dev
 ---------------------------------------------------
   1         0           3      0.001136    0.000618
   2         0           3      0.000459    0.000258
   3         0           3      0.000121    0.000050
   4         0           3      0.000039    0.000020
   5         0           3      0.000011    0.000006
   6         1           2      0.000002    0.000001
   7         3           0      0.000000    0.000000    Roots Converged
 ---------------------------------------------------
  SETman timing summary (seconds)
  CPU time              1149.29s
  System time              0.00s
  Wall time              311.19s
 
 --------------------------------------------------------------
 
                    Orbital Energies (a.u.)
 --------------------------------------------------------------
 
 Alpha MOs
 -- Occupied --
-14.8103 -10.5858 -10.5828 -10.5521 -10.5471 -10.5465 -10.5463 -10.5409
-10.5380  -1.0958  -0.9452  -0.8833  -0.8326  -0.8132  -0.7104  -0.6787
 -0.6643  -0.6189  -0.5564  -0.5443  -0.5052  -0.4996  -0.4987  -0.4775
 -0.4566  -0.4165  -0.4031  -0.3946  -0.3397  -0.2744  -0.2566
 -- Virtual --
  0.0073   0.0131   0.0262   0.0305   0.0434   0.0458   0.0518   0.0665
  0.0672   0.0704   0.0751   0.0766   0.0980   0.1045   0.1090   0.1101
  0.1260   0.1373   0.1485   0.1523   0.1625   0.1646   0.1746   0.1793
  0.1865   0.1963   0.1986   0.2029   0.2116   0.2163   0.2229   0.2310
  0.2332   0.2419   0.2485   0.2523   0.2588   0.2618   0.2702   0.2770
  0.2891   0.2912   0.3083   0.3178   0.3330   0.3436   0.3460   0.3587
  0.3794   0.4034   0.4122   0.4392   0.4845   0.4919   0.5586   0.6303
  0.6767   0.7161   0.7184   0.7456   0.7598   0.7671   0.7776   0.7833
  0.7899   0.8003   0.8053   0.8242   0.8399   0.8465   0.8610   0.9010
  0.9401   0.9578   0.9661   0.9885   0.9994   1.0046   1.0179   1.0331
  1.0509   1.0778   1.0954   1.1170   1.1332   1.1545   1.1577   1.2091
  1.2172   1.2414   1.2604   1.2900   1.2937   1.3553   1.3773   1.3978
  1.4009   1.4506   1.4730   1.4866   1.5182   1.5240   1.5559   1.5632
  1.5740   1.6243   1.6860   1.8271   1.8889   1.9316   1.9409   1.9611
  1.9901   2.0448   2.0526   2.0534   2.1124   2.1428   2.1851   2.2156
  2.2170   2.2405   2.2935   2.3013   2.3062   2.3257   2.3504   2.4194
  2.4498   2.4837   2.5853   2.5957   2.6665   2.6855   2.6996   2.7300
  2.7625   2.8388   2.8761   2.8828   2.9755   3.0012   3.1398   3.2575
  3.4593   4.1833   4.2868   4.3186   4.3525   4.3900   4.4256   4.5072
  4.5461   4.8143
 --------------------------------------------------------------
 
          Ground-State Mulliken Net Atomic Charges

     Atom                 Charge (a.u.)
  ----------------------------------------
      1 C                    -0.020129
      2 C                    -0.484764
      3 C                    -0.016970
      4 C                    -0.927505
      5 C                     1.043838
      6 C                    -0.613610
      7 N                    -0.539293
      8 C                     0.168275
      9 C                    -0.284667
     10 H                     0.437742
     11 H                     0.216215
     12 H                     0.216921
     13 H                     0.199064
     14 H                     0.201641
     15 H                     0.197534
     16 H                     0.205707
  ----------------------------------------
  Sum of atomic charges =     0.000000

 -----------------------------------------------------------------
                    Cartesian Multipole Moments
 -----------------------------------------------------------------
    Charge (ESU x 10^10)
                -0.0000
    Dipole Moment (Debye)
         X      -1.5068      Y       1.5635      Z       0.0011
       Tot       2.1714
    Quadrupole Moments (Debye-Ang)
        XX     -45.0529     XY      -3.1512     YY     -44.3465
        XZ      -0.0033     YZ       0.0033     ZZ     -58.9845
    Octopole Moments (Debye-Ang^2)
       XXX     -15.0004    XXY       8.2607    XYY      -7.9577
       YYY      10.5207    XXZ       0.0078    XYZ      -0.0067
       YYZ       0.0021    XZZ      -2.0022    YZZ       2.0070
       ZZZ      -0.0009
    Hexadecapole Moments (Debye-Ang^3)
      XXXX    -808.3168   XXXY     -21.5007   XXYY    -194.9130
      XYYY     -19.6855   YYYY    -366.6908   XXXZ      -0.0245
      XXYZ       0.0132   XYYZ      -0.0072   YYYZ       0.0145
      XXZZ    -188.4798   XYZZ      -3.8993   YYZZ     -93.2817
      XZZZ      -0.0011   YZZZ       0.0029   ZZZZ     -72.3214
 -----------------------------------------------------------------
 Calculating analytic gradient of the CIS energy
 CIS relaxed dipole moment
            1
    1  -0.7579692
    2   0.4465850
    3   0.0002978
	Magnitude:	 0.880 au	 2.236 Debye
 CIS 2 State Energy is -363.4786953253
 Gradient of the state energy (including CIS Excitation Energy)
            1           2           3           4           5           6
    1  -0.0234453  -0.0261517   0.0120610   0.0137686   0.0079055   0.0220373
    2  -0.0040586  -0.0053873  -0.0252164  -0.0242593   0.0232557   0.0265897
    3   0.0000065  -0.0000074  -0.0000007   0.0000244   0.0000257  -0.0000035
            7           8           9          10          11          12
    1  -0.0242288  -0.0060525   0.0224018   0.0014696   0.0009897   0.0029164
    2   0.0009437   0.0042958   0.0063302  -0.0060234   0.0031943  -0.0003997
    3  -0.0000468  -0.0000319   0.0000402  -0.0000022  -0.0000084   0.0000051
           13          14          15          16
    1  -0.0020938   0.0003793  -0.0023905   0.0004333
    2  -0.0007037  -0.0025127   0.0013889   0.0025628
    3  -0.0000013   0.0000009   0.0000013  -0.0000019
 Gradient time:  CPU 69.18 s  wall 21.03 s
 Geometry Optimization Parameters
   NAtoms,    NIC,     NZ,  NCons,   NDum,   NFix, NCnnct, MaxDiis
       16     116       0       0       0       0       0       0


** GEOMETRY OPTIMIZATION IN DELOCALIZED INTERNAL COORDINATES **
   Searching for a Minimum

   Optimization Cycle:   1

                       Coordinates (Angstroms)
     ATOM                X               Y               Z
      1  C         2.1510629040   -0.6892079969    0.0000583065
      2  C         2.1279268385    0.7158180020    0.0000481775
      3  C         0.9322968051    1.4130999466   -0.0000206639
      4  C        -0.2469111607    0.6702008918   -0.0000373513
      5  C        -0.2481930942   -0.7482991083    0.0000020775
      6  C         0.9794739374   -1.4235260513    0.0000165335
      7  N        -1.5617741827    1.0775918311   -0.0002621374
      8  C        -1.6201330769   -1.1629001718   -0.0001374500
      9  C        -2.3820131241   -0.0308062080    0.0002797387
     10  H        -1.8763152174    2.0300108152    0.0004667797
     11  H        -1.9921730325   -2.1730101887   -0.0003253498
     12  H        -3.4525491271    0.0824247420    0.0004541695
     13  H         3.0615938132    1.2620200454    0.0000497686
     14  H         0.9172517540    2.4953419460   -0.0000804893
     15  H         3.1042029277   -1.2007849526    0.0000467087
     16  H         1.0093479871   -2.5054210498   -0.0000328375
   Point Group: c1    Number of degrees of freedom:    42


   Energy is   -363.478695325


 Attempting to generate delocalized internal coordinates
 Initial Hessian constructed with Jon Baker's OPTIMIZE code

 42 Hessian modes will be used to form the next step
  Hessian Eigenvalues:
     0.018594    0.019738    0.020011    0.020794    0.021683    0.022200
     0.022636    0.023004    0.023236    0.023608    0.023851    0.023984
     0.024127    0.160000    0.160000    0.160000    0.160000    0.160000
     0.160000    0.160000    0.220000    0.221879    0.226618    0.240111
     0.246509    0.357123    0.357170    0.357835    0.357899    0.364196
     0.364272    0.370088    0.384319    0.426334    0.434649    0.457693
     0.466917    0.471622    0.474685    0.475669    0.481247    0.509555

 Minimum search - taking simple RFO step
 Searching for Lamda that Minimizes Along All modes
 Value Taken    Lamda =  -0.01054425
 Step Taken.  Stepsize is  0.155346

                             Maximum     Tolerance    Cnvgd?
         Gradient           0.041833      0.000300      NO
         Displacement       0.095724      0.001200      NO
         Energy change     *********      0.000001      NO


 New Cartesian Coordinates Obtained by Inverse Iteration

 Displacement from previous Coordinates is:  0.227592
 ----------------------------------------------------------------
             Standard Nuclear Orientation (Angstroms)
    I     Atom           X                Y                Z
 ----------------------------------------------------------------
    1      C       2.1697038182    -0.6904243867    -0.0000470603
    2      C       2.1611490982     0.7391542195     0.0000103159
    3      C       0.9388884366     1.4527886552     0.0000114756
    4      C      -0.2465651810     0.6839537423    -0.0000029902
    5      C      -0.2608586546    -0.7696143250     0.0000166176
    6      C       0.9712020927    -1.4565750282     0.0000102411
    7      N      -1.5579514670     1.0737878397    -0.0000577017
    8      C      -1.6392992609    -1.1781052222     0.0000552739
    9      C      -2.4087780544    -0.0383673416     0.0000026894
   10      H      -1.8698465674     2.0342111869     0.0006750711
   11      H      -2.0138875040    -2.1923002687     0.0000071941
   12      H      -3.4825282481     0.0836658990    -0.0000699541
   13      H       3.1019525529     1.2792360989     0.0000059953
   14      H       0.9146741397     2.5384886530     0.0000054441
   15      H       3.1256490320    -1.2051661993    -0.0001088115
   16      H       0.9995907182    -2.5421810302     0.0000121808
 ----------------------------------------------------------------
 Molecular Point Group                 C1    NOp =  1
 Largest Abelian Subgroup              C1    NOp =  1
 Nuclear Repulsion Energy =         396.67077971 hartrees
 There are       31 alpha and       31 beta electrons
 Applying Cartesian multipole field
    Component          Value
    ---------          -----
     (2,0,0)        1.00000E-11
     (0,2,0)        2.00000E-11
     (0,0,2)       -3.00000E-11
 Nucleus-field energy     =     0.0000000120 hartrees
 Requested basis set is 6-31+G(d)
 There are 59 shells and 185 basis functions
 A cutoff of  1.0D-12 yielded   1656 shell pairs
 There are     17099 function pairs
 Smallest overlap matrix eigenvalue = 1.47E-06
 Guess MOs from SCF MO coefficient file

 -----------------------------------------------------------------------
  General SCF calculation program by
  Eric Jon Sundstrom, Paul Horn, Yuezhi Mao, Dmitri Zuev, Alec White,
  David Stuck, Shaama M.S., Shane Yost, Joonho Lee, David Small,
  Daniel Levine, Susi Lehtola, Hugh Burton, Evgeny Epifanovsky,
  Bang C. Huynh
 -----------------------------------------------------------------------
 Exchange:     0.5400 Hartree-Fock + 1.0000 M06-2X
 Correlation:  1.0000 M06-2X
 Using SG-3 standard quadrature grid
 using 4 threads for integral computing
 -------------------------------------------------------
 OpenMP Integral computing Module                
 Release: version 1.0, May 2013, Q-Chem Inc. Pittsburgh 
 -------------------------------------------------------
 A restricted SCF calculation will be
 performed using DIIS
 SCF converges when DIIS error is below 1.0e-08
 ---------------------------------------
  Cycle       Energy         DIIS error
 ---------------------------------------
    1    -363.6631581701      8.60e-04  
    2    -363.6662019234      2.25e-04  
    3    -363.6663453866      1.53e-04  
    4    -363.6664466624      3.04e-05  
    5    -363.6664506993      1.16e-05  
    6    -363.6664515700      3.08e-06  
    7    -363.6664516605      2.07e-06  
    8    -363.6664516950      4.94e-07  
    9    -363.6664516991      2.92e-07  
   10    -363.6664516997      6.42e-08  
   11    -363.6664516998      3.66e-08  
   12    -363.6664516998      6.65e-09  Convergence criterion met
 ---------------------------------------
 SCF time:   CPU 213.58s  wall 54.00s 
 SCF   energy in the final basis set =     -363.6664516998
 Total energy in the final basis set =     -363.6664516998
 
 Direct TDDFT/TDA calculation will be performed
 Exchange:     0.5400 Hartree-Fock + 1.0000 M06-2X
 Correlation:  1.0000 M06-2X
 Using SG-3 standard quadrature grid
 Singlet excitation energies requested
 CIS energy converged when residual is below 10e- 6
 ---------------------------------------------------
 Iter    Rts Conv    Rts Left    Ttl Dev     Max Dev
 ---------------------------------------------------
   1         0           3      0.003616    0.001710
   2         0           3      0.001018    0.000491
   3         0           3      0.000512    0.000273
   4         0           3      0.000210    0.000097
   5         0           3      0.000074    0.000032
   6         0           3      0.000031    0.000012
   7         0           3      0.000012    0.000005
   8         0           3      0.000005    0.000002
   9         3           0      0.000002    0.000001    Roots Converged
 ---------------------------------------------------
 
 ---------------------------------------------------
         TDDFT/TDA Excitation Energies              
 ---------------------------------------------------

 Excited state   1: excitation energy (eV) =    4.9671
 Total energy for state  1:                  -363.48391307 au
    Multiplicity: Singlet
    Trans. Mom.: -0.3865 X  -0.4529 Y   0.0000 Z
    Strength   :     0.0431419073
    D(   30) --> V(    1) amplitude =  0.7741
    D(   31) --> V(    1) amplitude = -0.2960
    D(   31) --> V(    7) amplitude = -0.4948

 Excited state   2: excitation energy (eV) =    5.1923
 Total energy for state  2:                  -363.47563947 au
    Multiplicity: Singlet
    Trans. Mom.: -0.0059 X   0.0053 Y   0.1190 Z
    Strength   :     0.0018095552
    D(   31) --> V(    2) amplitude =  0.9746

 Excited state   3: excitation energy (eV) =    5.2072
 Total energy for state  3:                  -363.47509077 au
    Multiplicity: Singlet
    Trans. Mom.: -0.7299 X   0.6344 Y  -0.0010 Z
    Strength   :     0.1193107556
    D(   30) --> V(    1) amplitude =  0.2324
    D(   30) --> V(    7) amplitude =  0.2877
    D(   31) --> V(    1) amplitude =  0.8681
    D(   31) --> V(    7) amplitude = -0.2378
 
 ---------------------------------------------------
 Calculating Relaxed Density
 ---------------------------------------------------
 Iter    Rts Conv    Rts Left    Ttl Dev     Max Dev
 ---------------------------------------------------
   1         0           3      0.001140    0.000634
   2         0           3      0.000462    0.000267
   3         0           3      0.000126    0.000057
   4         0           3      0.000043    0.000024
   5         0           3      0.000013    0.000007
   6         0           3      0.000004    0.000002
   7         3           0      0.000000    0.000000    Roots Converged
 ---------------------------------------------------
  SETman timing summary (seconds)
  CPU time              1052.61s
  System time              0.00s
  Wall time              271.32s
 
 --------------------------------------------------------------
 
                    Orbital Energies (a.u.)
 --------------------------------------------------------------
 
 Alpha MOs
 -- Occupied --
-14.8128 -10.5910 -10.5897 -10.5592 -10.5551 -10.5546 -10.5533 -10.5488
-10.5436  -1.0910  -0.9321  -0.8811  -0.8236  -0.8107  -0.7083  -0.6766
 -0.6608  -0.6134  -0.5604  -0.5400  -0.5012  -0.4971  -0.4953  -0.4748
 -0.4580  -0.4149  -0.3961  -0.3949  -0.3401  -0.2689  -0.2565
 -- Virtual --
  0.0071   0.0073   0.0260   0.0302   0.0429   0.0451   0.0468   0.0662
  0.0671   0.0695   0.0739   0.0766   0.0980   0.1043   0.1080   0.1091
  0.1265   0.1374   0.1475   0.1515   0.1609   0.1638   0.1731   0.1777
  0.1852   0.1955   0.1987   0.2027   0.2110   0.2142   0.2189   0.2277
  0.2295   0.2396   0.2453   0.2515   0.2522   0.2596   0.2700   0.2758
  0.2820   0.2893   0.3075   0.3120   0.3252   0.3357   0.3392   0.3520
  0.3695   0.3960   0.4050   0.4287   0.4688   0.4871   0.5498   0.6103
  0.6460   0.7147   0.7193   0.7453   0.7494   0.7674   0.7728   0.7772
  0.7837   0.7971   0.7990   0.8220   0.8353   0.8375   0.8563   0.8966
  0.9340   0.9546   0.9625   0.9874   0.9989   1.0031   1.0161   1.0338
  1.0388   1.0756   1.0958   1.1130   1.1286   1.1490   1.1506   1.2021
  1.2111   1.2351   1.2566   1.2777   1.2948   1.3459   1.3777   1.3930
  1.3986   1.4348   1.4666   1.4690   1.5160   1.5276   1.5504   1.5536
  1.5624   1.6135   1.6733   1.8246   1.8654   1.9143   1.9340   1.9346
  1.9731   2.0281   2.0418   2.0455   2.0861   2.0930   2.1566   2.1706
  2.1881   2.2252   2.2675   2.2733   2.2942   2.2962   2.3278   2.3932
  2.4383   2.4699   2.5634   2.5728   2.6461   2.6514   2.6701   2.6986
  2.7321   2.8086   2.8429   2.8555   2.9692   2.9761   3.1088   3.2260
  3.3828   4.1680   4.2582   4.3128   4.3447   4.3810   4.4181   4.4957
  4.5381   4.7849
 --------------------------------------------------------------
 
          Ground-State Mulliken Net Atomic Charges

     Atom                 Charge (a.u.)
  ----------------------------------------
      1 C                    -0.047594
      2 C                    -0.439844
      3 C                    -0.066334
      4 C                    -0.859262
      5 C                     0.968516
      6 C                    -0.596457
      7 N                    -0.533432
      8 C                     0.157765
      9 C                    -0.270689
     10 H                     0.437367
     11 H                     0.218391
     12 H                     0.220287
     13 H                     0.202172
     14 H                     0.204173
     15 H                     0.196587
     16 H                     0.208354
  ----------------------------------------
  Sum of atomic charges =     0.000000

 -----------------------------------------------------------------
                    Cartesian Multipole Moments
 -----------------------------------------------------------------
    Charge (ESU x 10^10)
                -0.0000
    Dipole Moment (Debye)
         X      -1.6075      Y       1.5292      Z       0.0010
       Tot       2.2187
    Quadrupole Moments (Debye-Ang)
        XX     -44.9186     XY      -2.9236     YY     -44.1697
        XZ      -0.0022     YZ       0.0030     ZZ     -59.5265
    Octopole Moments (Debye-Ang^2)
       XXX     -15.9195    XXY       8.4000    XYY      -7.9452
       YYY      10.2828    XXZ       0.0021    XYZ      -0.0057
       YYZ       0.0056    XZZ      -2.4303    YZZ       2.0220
       ZZZ      -0.0012
    Hexadecapole Moments (Debye-Ang^3)
      XXXX    -818.7276   XXXY     -22.2749   XXYY    -199.4241
      XYYY     -21.7403   YYYY    -376.1942   XXXZ      -0.0035
      XXYZ       0.0121   XYYZ      -0.0109   YYYZ       0.0121
      XXZZ    -193.2094   XYZZ      -4.9127   YYZZ     -96.4093
      XZZZ       0.0036   YZZZ       0.0004   ZZZZ     -73.9053
 -----------------------------------------------------------------
 Calculating analytic gradient of the CIS energy
 CIS relaxed dipole moment
            1
    1   2.2743366
    2  -2.7355137
    3  -0.0093488
	Magnitude:	 3.557 au	 9.042 Debye
 CIS 2 State Energy is -363.4756394664
 Gradient of the state energy (including CIS Excitation Energy)
            1           2           3           4           5           6
    1   0.0036391   0.0062342   0.0214094  -0.0188048  -0.0137631   0.0024416
    2  -0.0233595   0.0386804   0.0133046   0.0194520  -0.0183818  -0.0159429
    3   0.0000193  -0.0000072  -0.0000666   0.0000670  -0.0000124  -0.0000667
            7           8           9          10          11          12
    1   0.0353753  -0.0255867  -0.0225539   0.0102048   0.0004592  -0.0000247
    2   0.0555338   0.0119650  -0.0624549  -0.0193311   0.0010241  -0.0033793
    3   0.0000585   0.0000516  -0.0000545  -0.0000347   0.0000009  -0.0000096
           13          14          15          16
    1   0.0005094   0.0012692   0.0008243  -0.0016331
    2   0.0004614   0.0029339  -0.0001728  -0.0003328
    3  -0.0000012   0.0000316   0.0000067   0.0000172
 Gradient time:  CPU 68.23 s  wall 17.15 s
 Geometry Optimization Parameters
   NAtoms,    NIC,     NZ,  NCons,   NDum,   NFix, NCnnct, MaxDiis
       16     116       0       0       0       0       0       0

 Cartesian Hessian Update
 Hessian updated using BFGS update


** GEOMETRY OPTIMIZATION IN DELOCALIZED INTERNAL COORDINATES **
   Searching for a Minimum

   Optimization Cycle:   2

                       Coordinates (Angstroms)
     ATOM                X               Y               Z
      1  C         2.1697038182   -0.6904243867   -0.0000470603
      2  C         2.1611490982    0.7391542195    0.0000103159
      3  C         0.9388884366    1.4527886552    0.0000114756
      4  C        -0.2465651810    0.6839537423   -0.0000029902
      5  C        -0.2608586546   -0.7696143250    0.0000166176
      6  C         0.9712020927   -1.4565750282    0.0000102411
      7  N        -1.5579514670    1.0737878397   -0.0000577017
      8  C        -1.6392992609   -1.1781052222    0.0000552739
      9  C        -2.4087780544   -0.0383673416    0.0000026894
     10  H        -1.8698465674    2.0342111869    0.0006750711
     11  H        -2.0138875040   -2.1923002687    0.0000071941
     12  H        -3.4825282481    0.0836658990   -0.0000699541
     13  H         3.1019525529    1.2792360989    0.0000059953
     14  H         0.9146741397    2.5384886530    0.0000054441
     15  H         3.1256490320   -1.2051661993   -0.0001088115
     16  H         0.9995907182   -2.5421810302    0.0000121808
   Point Group: c1    Number of degrees of freedom:    42


   Energy is   -363.475639466

 Hessian updated using BFGS update

 38 Hessian modes will be used to form the next step
  Hessian Eigenvalues:
     0.018594    0.019738    0.020011    0.020794    0.021683    0.022200
     0.022636    0.023004    0.023236    0.023608    0.023851    0.023984
     0.024127    0.158960    0.160000    0.160205    0.213491    0.221586
     0.226462    0.244978    0.247658    0.328005    0.357209    0.357404
     0.357875    0.359107    0.364226    0.367488    0.374347    0.384715
     0.426493    0.441601    0.461848    0.468317    0.473068    0.476316
     0.498747    1.277717

 Minimum search - taking simple RFO step
 Searching for Lamda that Minimizes Along All modes
 Value Taken    Lamda =  -0.00750267
 Step Taken.  Stepsize is  0.091651

                             Maximum     Tolerance    Cnvgd?
         Gradient           0.039050      0.000300      NO
         Displacement       0.047900      0.001200      NO
         Energy change      0.003056      0.000001      NO


 New Cartesian Coordinates Obtained by Inverse Iteration

 Displacement from previous Coordinates is:  0.129938
 ----------------------------------------------------------------
             Standard Nuclear Orientation (Angstroms)
    I     Atom           X                Y                Z
 ----------------------------------------------------------------
    1      C       2.1784227026    -0.6906312859    -0.0000084579
    2      C       2.1553467506     0.7239719965     0.0000807763
    3      C       0.9222143414     1.4413979714     0.0000162363
    4      C      -0.2515151232     0.6756111046    -0.0001816073
    5      C      -0.2494266264    -0.7708865719    -0.0000538556
    6      C       0.9768657634    -1.4593126116     0.0001455893
    7      N      -1.5652606591     1.0682280383    -0.0001217089
    8      C      -1.6232140695    -1.1723574106    -0.0001182971
    9      C      -2.4035052823    -0.0192432292     0.0000265948
   10      H      -1.8897971355     2.0405820749     0.0008505212
   11      H      -1.9999135974    -2.1884067129    -0.0001073351
   12      H      -3.4772991533     0.1165767938     0.0001432680
   13      H       3.0941465832     1.2685729044     0.0000705743
   14      H       0.8900720629     2.5258195709    -0.0001737934
   15      H       3.1372272299    -1.2015332793    -0.0001208732
   16      H       1.0087311643    -2.5458368607     0.0000783494
 ----------------------------------------------------------------
 Molecular Point Group                 C1    NOp =  1
 Largest Abelian Subgroup              C1    NOp =  1
 Nuclear Repulsion Energy =         397.49461236 hartrees
 There are       31 alpha and       31 beta electrons
 Applying Cartesian multipole field
    Component          Value
    ---------          -----
     (2,0,0)        1.00000E-11
     (0,2,0)        2.00000E-11
     (0,0,2)       -3.00000E-11
 Nucleus-field energy     =     0.0000000119 hartrees
 Requested basis set is 6-31+G(d)
 There are 59 shells and 185 basis functions
 A cutoff of  1.0D-12 yielded   1657 shell pairs
 There are     17105 function pairs
 Smallest overlap matrix eigenvalue = 1.37E-06
 Guess MOs from SCF MO coefficient file

 -----------------------------------------------------------------------
  General SCF calculation program by
  Eric Jon Sundstrom, Paul Horn, Yuezhi Mao, Dmitri Zuev, Alec White,
  David Stuck, Shaama M.S., Shane Yost, Joonho Lee, David Small,
  Daniel Levine, Susi Lehtola, Hugh Burton, Evgeny Epifanovsky,
  Bang C. Huynh
 -----------------------------------------------------------------------
 Exchange:     0.5400 Hartree-Fock + 1.0000 M06-2X
 Correlation:  1.0000 M06-2X
 Using SG-3 standard quadrature grid
 using 4 threads for integral computing
 -------------------------------------------------------
 OpenMP Integral computing Module                
 Release: version 1.0, May 2013, Q-Chem Inc. Pittsburgh 
 -------------------------------------------------------
 A restricted SCF calculation will be
 performed using DIIS
 SCF converges when DIIS error is below 1.0e-08
 ---------------------------------------
  Cycle       Energy         DIIS error
 ---------------------------------------
    1    -363.6653528102      4.33e-04  
    2    -363.6663400945      9.81e-05  
    3    -363.6663738242      7.23e-05  
    4    -363.6663959270      2.08e-05  
    5    -363.6663983020      8.05e-06  
    6    -363.6663987360      4.03e-06  
    7    -363.6663988636      7.64e-07  
    8    -363.6663988701      4.47e-07  
    9    -363.6663988712      9.61e-08  
   10    -363.6663988713      4.85e-08  
   11    -363.6663988713      1.90e-08  
   12    -363.6663988713      7.77e-09  Convergence criterion met
 ---------------------------------------
 SCF time:   CPU 210.29s  wall 53.00s 
 SCF   energy in the final basis set =     -363.6663988713
 Total energy in the final basis set =     -363.6663988713
 
 Direct TDDFT/TDA calculation will be performed
 Exchange:     0.5400 Hartree-Fock + 1.0000 M06-2X
 Correlation:  1.0000 M06-2X
 Using SG-3 standard quadrature grid
 Singlet excitation energies requested
 CIS energy converged when residual is below 10e- 6
 ---------------------------------------------------
 Iter    Rts Conv    Rts Left    Ttl Dev     Max Dev
 ---------------------------------------------------
   1         0           3      0.002269    0.001743
   2         0           3      0.000548    0.000405
   3         0           3      0.000284    0.000162
   4         0           3      0.000287    0.000202
   5         0           3      0.000181    0.000142
   6         0           3      0.000098    0.000064
   7         0           3      0.000788    0.000706
   8         1           2      0.000362    0.000215
   9         1           2      0.000140    0.000095
  10         1           2      0.000055    0.000038
  11         1           2      0.000018    0.000012
  12         1           2      0.000006    0.000004
  13         2           1      0.000002    0.000001
  14         3           0      0.000001    0.000001    Roots Converged
 ---------------------------------------------------
 
 ---------------------------------------------------
         TDDFT/TDA Excitation Energies              
 ---------------------------------------------------

 Excited state   1: excitation energy (eV) =    5.0065
 Total energy for state  1:                  -363.48241521 au
    Multiplicity: Singlet
    Trans. Mom.:  0.1633 X   0.4787 Y  -0.0004 Z
    Strength   :     0.0313797918
    D(   30) --> V(    2) amplitude = -0.7515
    D(   31) --> V(    2) amplitude =  0.3178
    D(   31) --> V(    7) amplitude =  0.5149

 Excited state   2: excitation energy (eV) =    5.0198
 Total energy for state  2:                  -363.48192635 au
    Multiplicity: Singlet
    Trans. Mom.: -0.0037 X   0.0052 Y   0.1284 Z
    Strength   :     0.0020328888
    D(   31) --> V(    1) amplitude =  0.9788

 Excited state   3: excitation energy (eV) =    5.0721
 Total energy for state  3:                  -363.48000391 au
    Multiplicity: Singlet
    Trans. Mom.: -0.8109 X   0.6587 Y  -0.0007 Z
    Strength   :     0.1356247400
    D(   30) --> V(    2) amplitude =  0.2322
    D(   30) --> V(    7) amplitude =  0.2541
    D(   31) --> V(    2) amplitude =  0.8716
    D(   31) --> V(    7) amplitude = -0.2622
 
 ---------------------------------------------------
 Calculating Relaxed Density
 ---------------------------------------------------
 Iter    Rts Conv    Rts Left    Ttl Dev     Max Dev
 ---------------------------------------------------
   1         0           3      0.001197    0.000668
   2         0           3      0.000472    0.000265
   3         0           3      0.000123    0.000052
   4         0           3      0.000041    0.000022
   5         0           3      0.000012    0.000006
   6         1           2      0.000003    0.000001
   7         3           0      0.000000    0.000000    Roots Converged
 ---------------------------------------------------
  SETman timing summary (seconds)
  CPU time              1185.12s
  System time              0.00s
  Wall time              304.17s
 
 --------------------------------------------------------------
 
                    Orbital Energies (a.u.)
 --------------------------------------------------------------
 
 Alpha MOs
 -- Occupied --
-14.8149 -10.5909 -10.5879 -10.5587 -10.5542 -10.5538 -10.5522 -10.5485
-10.5422  -1.0964  -0.9347  -0.8785  -0.8280  -0.8072  -0.7110  -0.6759
 -0.6607  -0.6142  -0.5592  -0.5411  -0.5015  -0.4986  -0.4979  -0.4725
 -0.4579  -0.4147  -0.3971  -0.3963  -0.3383  -0.2731  -0.2516
 -- Virtual --
  0.0059   0.0062   0.0261   0.0306   0.0428   0.0456   0.0481   0.0666
  0.0669   0.0696   0.0739   0.0761   0.0985   0.1041   0.1084   0.1092
  0.1262   0.1380   0.1473   0.1509   0.1605   0.1638   0.1727   0.1780
  0.1852   0.1960   0.1977   0.2031   0.2111   0.2139   0.2210   0.2286
  0.2298   0.2396   0.2471   0.2513   0.2522   0.2591   0.2691   0.2757
  0.2848   0.2902   0.3063   0.3141   0.3246   0.3366   0.3409   0.3545
  0.3723   0.3955   0.4037   0.4307   0.4672   0.4900   0.5532   0.6137
  0.6498   0.7139   0.7194   0.7450   0.7546   0.7679   0.7741   0.7765
  0.7829   0.8003   0.8023   0.8221   0.8355   0.8377   0.8567   0.8977
  0.9330   0.9524   0.9612   0.9899   0.9994   1.0038   1.0160   1.0351
  1.0398   1.0748   1.0956   1.1033   1.1270   1.1487   1.1521   1.2058
  1.2112   1.2371   1.2565   1.2768   1.2943   1.3509   1.3753   1.3935
  1.3999   1.4369   1.4656   1.4721   1.5190   1.5276   1.5502   1.5532
  1.5702   1.6151   1.6753   1.8199   1.8645   1.9204   1.9377   1.9397
  1.9780   2.0277   2.0429   2.0468   2.0869   2.0940   2.1645   2.1783
  2.1906   2.2230   2.2672   2.2786   2.2970   2.3041   2.3336   2.3955
  2.4426   2.4762   2.5664   2.5801   2.6479   2.6598   2.6686   2.6982
  2.7337   2.8135   2.8480   2.8570   2.9705   2.9805   3.1080   3.2368
  3.3935   4.1736   4.2615   4.3107   4.3442   4.3825   4.4190   4.4981
  4.5398   4.7911
 --------------------------------------------------------------
 
          Ground-State Mulliken Net Atomic Charges

     Atom                 Charge (a.u.)
  ----------------------------------------
      1 C                    -0.053446
      2 C                    -0.439411
      3 C                    -0.081202
      4 C                    -0.883034
      5 C                     1.004420
      6 C                    -0.555820
      7 N                    -0.516230
      8 C                     0.104096
      9 C                    -0.264499
     10 H                     0.438062
     11 H                     0.215778
     12 H                     0.220344
     13 H                     0.200773
     14 H                     0.203205
     15 H                     0.198016
     16 H                     0.208949
  ----------------------------------------
  Sum of atomic charges =     0.000000

 -----------------------------------------------------------------
                    Cartesian Multipole Moments
 -----------------------------------------------------------------
    Charge (ESU x 10^10)
                -0.0000
    Dipole Moment (Debye)
         X      -1.6187      Y       1.6457      Z       0.0013
       Tot       2.3084
    Quadrupole Moments (Debye-Ang)
        XX     -44.8826     XY      -3.4783     YY     -44.2503
        XZ      -0.0043     YZ       0.0035     ZZ     -59.5021
    Octopole Moments (Debye-Ang^2)
       XXX     -15.9935    XXY       9.1957    XYY      -8.1276
       YYY      10.9625    XXZ       0.0072    XYZ      -0.0074
       YYZ       0.0069    XZZ      -2.4015    YZZ       2.2432
       ZZZ       0.0021
    Hexadecapole Moments (Debye-Ang^3)
      XXXX    -816.6225   XXXY     -23.3934   XXYY    -198.7164
      XYYY     -20.5338   YYYY    -374.1833   XXXZ      -0.0327
      XXYZ       0.0174   XYYZ      -0.0198   YYYZ       0.0147
      XXZZ    -192.8271   XYZZ      -4.0359   YYZZ     -96.0234
      XZZZ      -0.0107   YZZZ       0.0020   ZZZZ     -73.9233
 -----------------------------------------------------------------
 Calculating analytic gradient of the CIS energy
 CIS relaxed dipole moment
            1
    1   2.3730754
    2  -2.7092928
    3  -0.0074954
	Magnitude:	 3.602 au	 9.154 Debye
 CIS 2 State Energy is -363.4819263497
 Gradient of the state energy (including CIS Excitation Energy)
            1           2           3           4           5           6
    1   0.0109202   0.0106644   0.0119542  -0.0229371  -0.0009541  -0.0097314
    2  -0.0085354   0.0218403   0.0145983   0.0128175  -0.0160206  -0.0147042
    3  -0.0000181   0.0000196  -0.0000252  -0.0000342   0.0000174   0.0000049
            7           8           9          10          11          12
    1   0.0346623  -0.0191337  -0.0226778   0.0056125   0.0002731  -0.0001079
    2   0.0359096   0.0130663  -0.0483105  -0.0092266  -0.0006660  -0.0012352
    3   0.0000416   0.0000071  -0.0000139  -0.0000072   0.0000025  -0.0000110
           13          14          15          16
    1   0.0010372  -0.0001789   0.0015138  -0.0009168
    2  -0.0002541   0.0021103  -0.0002353  -0.0011544
    3   0.0000010   0.0000136  -0.0000030   0.0000051
 Gradient time:  CPU 69.30 s  wall 17.42 s
 Geometry Optimization Parameters
   NAtoms,    NIC,     NZ,  NCons,   NDum,   NFix, NCnnct, MaxDiis
       16     116       0       0       0       0       0       0

 Cartesian Hessian Update
 Hessian updated using BFGS update


** GEOMETRY OPTIMIZATION IN DELOCALIZED INTERNAL COORDINATES **
   Searching for a Minimum

   Optimization Cycle:   3

                       Coordinates (Angstroms)
     ATOM                X               Y               Z
      1  C         2.1784227026   -0.6906312859   -0.0000084579
      2  C         2.1553467506    0.7239719965    0.0000807763
      3  C         0.9222143414    1.4413979714    0.0000162363
      4  C        -0.2515151232    0.6756111046   -0.0001816073
      5  C        -0.2494266264   -0.7708865719   -0.0000538556
      6  C         0.9768657634   -1.4593126116    0.0001455893
      7  N        -1.5652606591    1.0682280383   -0.0001217089
      8  C        -1.6232140695   -1.1723574106   -0.0001182971
      9  C        -2.4035052823   -0.0192432292    0.0000265948
     10  H        -1.8897971355    2.0405820749    0.0008505212
     11  H        -1.9999135974   -2.1884067129   -0.0001073351
     12  H        -3.4772991533    0.1165767938    0.0001432680
     13  H         3.0941465832    1.2685729044    0.0000705743
     14  H         0.8900720629    2.5258195709   -0.0001737934
     15  H         3.1372272299   -1.2015332793   -0.0001208732
     16  H         1.0087311643   -2.5458368607    0.0000783494
   Point Group: c1    Number of degrees of freedom:    42


   Energy is   -363.481926350

 Hessian updated using BFGS update

 42 Hessian modes will be used to form the next step
  Hessian Eigenvalues:
     0.018594    0.019738    0.020011    0.020794    0.021683    0.022200
     0.022636    0.023004    0.023236    0.023608    0.023851    0.023984
     0.024127    0.156173    0.159999    0.160000    0.160000    0.160000
     0.160000    0.162766    0.210137    0.221586    0.224363    0.242827
     0.251690    0.283189    0.356940    0.357256    0.357741    0.357935
     0.364249    0.364519    0.370679    0.394392    0.423776    0.433413
     0.453258    0.467938    0.472245    0.474198    0.485660    0.558394

 Minimum search - taking simple RFO step
 Searching for Lamda that Minimizes Along All modes
 Value Taken    Lamda =  -0.01634004
 Step Taken.  Stepsize is  0.239426

                             Maximum     Tolerance    Cnvgd?
         Gradient           0.028889      0.000300      NO
         Displacement       0.110937      0.001200      NO
         Energy change     -0.006287      0.000001      NO


 New Cartesian Coordinates Obtained by Inverse Iteration

 Displacement from previous Coordinates is:  0.329335
 ----------------------------------------------------------------
             Standard Nuclear Orientation (Angstroms)
    I     Atom           X                Y                Z
 ----------------------------------------------------------------
    1      C       2.1705651641    -0.6979309394     0.0000399516
    2      C       2.1161183069     0.6830212371     0.0000604912
    3      C       0.8881188696     1.4070057377     0.0002802747
    4      C      -0.2515631217     0.6653014569     0.0001975290
    5      C      -0.2266606694    -0.7584156913    -0.0001484033
    6      C       0.9923002267    -1.4506526188    -0.0002270210
    7      N      -1.5861782935     1.0624341016    -0.0002201496
    8      C      -1.5697692252    -1.1634293668     0.0001809436
    9      C      -2.3604911976     0.0296270600    -0.0000166039
   10      H      -1.9469163328     2.0458223926     0.0003180699
   11      H      -1.9540185690    -2.1767947463     0.0003190128
   12      H      -3.4361420846     0.1719234532     0.0000885107
   13      H       3.0436601787     1.2458441708     0.0000024288
   14      H       0.8658299127     2.4882364796    -0.0000092839
   15      H       3.1291082713    -1.2042136542     0.0000336311
   16      H       1.0291335152    -2.5352265799    -0.0003734005
 ----------------------------------------------------------------
 Molecular Point Group                 C1    NOp =  1
 Largest Abelian Subgroup              C1    NOp =  1
 Nuclear Repulsion Energy =         402.09505486 hartrees
 There are       31 alpha and       31 beta electrons
 Applying Cartesian multipole field
    Component          Value
    ---------          -----
     (2,0,0)        1.00000E-11
     (0,2,0)        2.00000E-11
     (0,0,2)       -3.00000E-11
 Nucleus-field energy     =     0.0000000117 hartrees
 Requested basis set is 6-31+G(d)
 There are 59 shells and 185 basis functions
 A cutoff of  1.0D-12 yielded   1659 shell pairs
 There are     17115 function pairs
 Smallest overlap matrix eigenvalue = 1.13E-06
 Guess MOs from SCF MO coefficient file

 -----------------------------------------------------------------------
  General SCF calculation program by
  Eric Jon Sundstrom, Paul Horn, Yuezhi Mao, Dmitri Zuev, Alec White,
  David Stuck, Shaama M.S., Shane Yost, Joonho Lee, David Small,
  Daniel Levine, Susi Lehtola, Hugh Burton, Evgeny Epifanovsky,
  Bang C. Huynh
 -----------------------------------------------------------------------
 Exchange:     0.5400 Hartree-Fock + 1.0000 M06-2X
 Correlation:  1.0000 M06-2X
 Using SG-3 standard quadrature grid
 using 4 threads for integral computing
 -------------------------------------------------------
 OpenMP Integral computing Module                
 Release: version 1.0, May 2013, Q-Chem Inc. Pittsburgh 
 -------------------------------------------------------
 A restricted SCF calculation will be
 performed using DIIS
 SCF converges when DIIS error is below 1.0e-08
 ---------------------------------------
  Cycle       Energy         DIIS error
 ---------------------------------------
    1    -363.6474100394      1.15e-03  
    2    -363.6547675586      2.69e-04  
    3    -363.6550746959      1.79e-04  
    4    -363.6552175940      4.83e-05  
    5    -363.6552323117      2.13e-05  
    6    -363.6552349790      7.98e-06  
    7    -363.6552355093      4.10e-06  
    8    -363.6552356047      8.34e-07  
    9    -363.6552356094      3.60e-07  
   10    -363.6552356100      5.99e-08  
   11    -363.6552356100      3.31e-08  
   12    -363.6552356100      1.03e-08  
   13    -363.6552356100      2.96e-09  Convergence criterion met
 ---------------------------------------
 SCF time:   CPU 229.78s  wall 59.00s 
 SCF   energy in the final basis set =     -363.6552356100
 Total energy in the final basis set =     -363.6552356100
 
 Direct TDDFT/TDA calculation will be performed
 Exchange:     0.5400 Hartree-Fock + 1.0000 M06-2X
 Correlation:  1.0000 M06-2X
 Using SG-3 standard quadrature grid
 Singlet excitation energies requested
 CIS energy converged when residual is below 10e- 6
 ---------------------------------------------------
 Iter    Rts Conv    Rts Left    Ttl Dev     Max Dev
 ---------------------------------------------------
   1         0           3      0.002231    0.001719
   2         0           3      0.000480    0.000352
   3         0           3      0.000220    0.000148
   4         0           3      0.000110    0.000068
   5         0           3      0.000056    0.000040
   6         0           3      0.000054    0.000041
   7         1           2      0.000474    0.000446
   8         1           2      0.000196    0.000183
   9         1           2      0.000083    0.000078
  10         1           2      0.000035    0.000033
  11         2           1      0.000011    0.000010
  12         2           1      0.000005    0.000004
  13         2           1      0.000002    0.000002
  14         3           0      0.000001    0.000001    Roots Converged
 ---------------------------------------------------
 
 ---------------------------------------------------
         TDDFT/TDA Excitation Energies              
 ---------------------------------------------------

 Excited state   1: excitation energy (eV) =    4.5548
 Total energy for state  1:                  -363.48785097 au
    Multiplicity: Singlet
    Trans. Mom.: -0.0003 X   0.0002 Y   0.1227 Z
    Strength   :     0.0016810534
    D(   31) --> V(    1) amplitude =  0.9839

 Excited state   2: excitation energy (eV) =    4.8270
 Total energy for state  2:                  -363.47784686 au
    Multiplicity: Singlet
    Trans. Mom.: -1.0309 X   0.7372 Y   0.0001 Z
    Strength   :     0.1899596129
    D(   31) --> V(    2) amplitude =  0.9305

 Excited state   3: excitation energy (eV) =    5.2025
 Total energy for state  3:                  -363.46404700 au
    Multiplicity: Singlet
    Trans. Mom.:  0.3248 X  -0.1802 Y  -0.0001 Z
    Strength   :     0.0175895459
    D(   30) --> V(    2) amplitude =  0.6738
    D(   31) --> V(    7) amplitude = -0.6751
 
 ---------------------------------------------------
 Calculating Relaxed Density
 ---------------------------------------------------
 Iter    Rts Conv    Rts Left    Ttl Dev     Max Dev
 ---------------------------------------------------
   1         0           3      0.001250    0.000657
   2         0           3      0.000468    0.000239
   3         0           3      0.000125    0.000052
   4         0           3      0.000038    0.000018
   5         0           3      0.000011    0.000006
   6         2           1      0.000001    0.000001
   7         3           0      0.000000    0.000000    Roots Converged
 ---------------------------------------------------
  SETman timing summary (seconds)
  CPU time              1124.42s
  System time              0.00s
  Wall time              287.60s
 
 --------------------------------------------------------------
 
                    Orbital Energies (a.u.)
 --------------------------------------------------------------
 
 Alpha MOs
 -- Occupied --
-14.8204 -10.5880 -10.5811 -10.5537 -10.5465 -10.5458 -10.5452 -10.5421
-10.5346  -1.1154  -0.9484  -0.8767  -0.8435  -0.7995  -0.7165  -0.6788
 -0.6623  -0.6203  -0.5548  -0.5437  -0.5101  -0.5096  -0.5029  -0.4668
 -0.4509  -0.4132  -0.4076  -0.3966  -0.3359  -0.2861  -0.2382
 -- Virtual --
  0.0022   0.0099   0.0259   0.0318   0.0433   0.0468   0.0534   0.0666
  0.0678   0.0702   0.0745   0.0754   0.0993   0.1041   0.1091   0.1103
  0.1250   0.1390   0.1476   0.1494   0.1600   0.1649   0.1727   0.1797
  0.1855   0.1945   0.1976   0.2047   0.2108   0.2144   0.2251   0.2314
  0.2328   0.2410   0.2498   0.2531   0.2560   0.2591   0.2665   0.2755
  0.2895   0.2922   0.3079   0.3201   0.3249   0.3444   0.3495   0.3654
  0.3847   0.3983   0.4092   0.4423   0.4762   0.4965   0.5684   0.6307
  0.6731   0.7143   0.7189   0.7432   0.7652   0.7692   0.7773   0.7808
  0.7906   0.8043   0.8234   0.8242   0.8404   0.8480   0.8641   0.9022
  0.9345   0.9490   0.9621   0.9953   0.9995   1.0086   1.0134   1.0377
  1.0521   1.0702   1.0914   1.0953   1.1278   1.1496   1.1632   1.2157
  1.2190   1.2453   1.2575   1.2829   1.2940   1.3678   1.3703   1.4019
  1.4053   1.4483   1.4756   1.4849   1.5238   1.5267   1.5540   1.5636
  1.5821   1.6173   1.6942   1.8075   1.8764   1.9347   1.9494   1.9560
  1.9914   2.0388   2.0547   2.0568   2.1045   2.1310   2.1885   2.1975
  2.2250   2.2446   2.2779   2.2962   2.3253   2.3516   2.3805   2.4245
  2.4717   2.5020   2.5712   2.6098   2.6628   2.6788   2.7019   2.7227
  2.7627   2.8431   2.8766   2.8821   2.9739   3.0122   3.1351   3.2706
  3.4579   4.1960   4.2840   4.3157   4.3418   4.3945   4.4289   4.5105
  4.5484   4.8163
 --------------------------------------------------------------
 
          Ground-State Mulliken Net Atomic Charges

     Atom                 Charge (a.u.)
  ----------------------------------------
      1 C                    -0.057024
      2 C                    -0.454275
      3 C                    -0.097779
      4 C                    -0.918736
      5 C                     1.058993
      6 C                    -0.497028
      7 N                    -0.467650
      8 C                     0.025220
      9 C                    -0.264986
     10 H                     0.440866
     11 H                     0.210997
     12 H                     0.215839
     13 H                     0.194455
     14 H                     0.202633
     15 H                     0.200380
     16 H                     0.208094
  ----------------------------------------
  Sum of atomic charges =     0.000000

 -----------------------------------------------------------------
                    Cartesian Multipole Moments
 -----------------------------------------------------------------
    Charge (ESU x 10^10)
                -0.0000
    Dipole Moment (Debye)
         X      -1.6840      Y       1.9759      Z       0.0005
       Tot       2.5962
    Quadrupole Moments (Debye-Ang)
        XX     -45.0487     XY      -4.7032     YY     -44.3031
        XZ      -0.0027     YZ       0.0012     ZZ     -59.1317
    Octopole Moments (Debye-Ang^2)
       XXX     -16.4417    XXY      10.6835    XYY      -8.6692
       YYY      12.4964    XXZ       0.0029    XYZ      -0.0033
       YYZ       0.0007    XZZ      -2.2578    YZZ       2.7167
       ZZZ      -0.0045
    Hexadecapole Moments (Debye-Ang^3)
      XXXX    -805.0233   XXXY     -25.2544   XXYY    -192.9367
      XYYY     -16.4507   YYYY    -367.1797   XXXZ      -0.0151
      XXYZ      -0.0014   XYYZ      -0.0135   YYYZ      -0.0067
      XXZZ    -188.0618   XYZZ      -2.0059   YYZZ     -94.1637
      XZZZ      -0.0020   YZZZ      -0.0116   ZZZZ     -73.1484
 -----------------------------------------------------------------
 Calculating analytic gradient of the CIS energy
 CIS relaxed dipole moment
            1
    1  -1.8540595
    2   0.7011304
    3   0.0005316
	Magnitude:	 1.982 au	 5.038 Debye
 CIS 2 State Energy is -363.4778468600
 Gradient of the state energy (including CIS Excitation Energy)
            1           2           3           4           5           6
    1  -0.0098048  -0.0114892  -0.0197241   0.0042620   0.0117319  -0.0021008
    2  -0.0072623  -0.0010450  -0.0322501   0.0331891  -0.0212853   0.0258639
    3   0.0000183  -0.0000232   0.0000224   0.0000439  -0.0000356  -0.0000087
            7           8           9          10          11          12
    1  -0.0108053   0.0050976   0.0488873  -0.0142414   0.0012025  -0.0012427
    2  -0.0570330   0.0024476   0.0336375   0.0247933  -0.0021331   0.0057882
    3  -0.0000599   0.0000275  -0.0000073   0.0000288   0.0000009   0.0000026
           13          14          15          16
    1  -0.0006645  -0.0020391  -0.0012550   0.0021857
    2  -0.0011085  -0.0028288  -0.0008240   0.0000505
    3  -0.0000012  -0.0000096   0.0000017  -0.0000006
 Gradient time:  CPU 68.80 s  wall 17.30 s
 Geometry Optimization Parameters
   NAtoms,    NIC,     NZ,  NCons,   NDum,   NFix, NCnnct, MaxDiis
       16     116       0       0       0       0       0       0

 Cartesian Hessian Update
 Hessian updated using BFGS update


** GEOMETRY OPTIMIZATION IN DELOCALIZED INTERNAL COORDINATES **
   Searching for a Minimum

   Optimization Cycle:   4

                       Coordinates (Angstroms)
     ATOM                X               Y               Z
      1  C         2.1705651641   -0.6979309394    0.0000399516
      2  C         2.1161183069    0.6830212371    0.0000604912
      3  C         0.8881188696    1.4070057377    0.0002802747
      4  C        -0.2515631217    0.6653014569    0.0001975290
      5  C        -0.2266606694   -0.7584156913   -0.0001484033
      6  C         0.9923002267   -1.4506526188   -0.0002270210
      7  N        -1.5861782935    1.0624341016   -0.0002201496
      8  C        -1.5697692252   -1.1634293668    0.0001809436
      9  C        -2.3604911976    0.0296270600   -0.0000166039
     10  H        -1.9469163328    2.0458223926    0.0003180699
     11  H        -1.9540185690   -2.1767947463    0.0003190128
     12  H        -3.4361420846    0.1719234532    0.0000885107
     13  H         3.0436601787    1.2458441708    0.0000024288
     14  H         0.8658299127    2.4882364796   -0.0000092839
     15  H         3.1291082713   -1.2042136542    0.0000336311
     16  H         1.0291335152   -2.5352265799   -0.0003734005
   Point Group: c1    Number of degrees of freedom:    42


   Energy is   -363.477846860

 Hessian updated using BFGS update

 42 Hessian modes will be used to form the next step
  Hessian Eigenvalues:
     0.018594    0.019738    0.020011    0.020794    0.021683    0.022200
     0.022636    0.023004    0.023236    0.023608    0.023851    0.023984
     0.024127    0.158675    0.159983    0.160000    0.160000    0.160000
     0.160294    0.162616    0.211860    0.222931    0.230812    0.247719
     0.251578    0.340888    0.355236    0.357381    0.357513    0.358170
     0.361728    0.364539    0.374936    0.393305    0.403657    0.430764
     0.460898    0.468380    0.473591    0.480100    0.552722    0.805159

 Minimum search - taking simple RFO step
 Searching for Lamda that Minimizes Along All modes
 Value Taken    Lamda =  -0.00955429
 Step Taken.  Stepsize is  0.117596

                             Maximum     Tolerance    Cnvgd?
         Gradient           0.033382      0.000300      NO
         Displacement       0.050214      0.001200      NO
         Energy change      0.004079      0.000001      NO


 New Cartesian Coordinates Obtained by Inverse Iteration

 Displacement from previous Coordinates is:  0.180431
 ----------------------------------------------------------------
             Standard Nuclear Orientation (Angstroms)
    I     Atom           X                Y                Z
 ----------------------------------------------------------------
    1      C       2.1758273893    -0.6919185661     0.0000616755
    2      C       2.1355355554     0.6932435232     0.0000771472
    3      C       0.9095918413     1.4236794005     0.0001676975
    4      C      -0.2476417481     0.6626902920     0.0000777873
    5      C      -0.2360052847    -0.7530869978    -0.0001173866
    6      C       0.9895364803    -1.4521127546    -0.0000920124
    7      N      -1.5874612824     1.0628591344    -0.0001656240
    8      C      -1.5908161773    -1.1626566839     0.0000014797
    9      C      -2.3966760166     0.0122656684     0.0000836309
   10      H      -1.9196188452     2.0364402429     0.0004021860
   11      H      -1.9709756119    -2.1758355531     0.0000426558
   12      H      -3.4722802159     0.1348843320     0.0002738512
   13      H       3.0675169471     1.2495023570     0.0000316493
   14      H       0.8925135771     2.5068322961    -0.0001279118
   15      H       3.1351408449    -1.1975146359     0.0000499606
   16      H       1.0189074980    -2.5367195626    -0.0002408052
 ----------------------------------------------------------------
 Molecular Point Group                 C1    NOp =  1
 Largest Abelian Subgroup              C1    NOp =  1
 Nuclear Repulsion Energy =         399.82592873 hartrees
 There are       31 alpha and       31 beta electrons
 Applying Cartesian multipole field
    Component          Value
    ---------          -----
     (2,0,0)        1.00000E-11
     (0,2,0)        2.00000E-11
     (0,0,2)       -3.00000E-11
 Nucleus-field energy     =     0.0000000118 hartrees
 Requested basis set is 6-31+G(d)
 There are 59 shells and 185 basis functions
 A cutoff of  1.0D-12 yielded   1657 shell pairs
 There are     17105 function pairs
 Smallest overlap matrix eigenvalue = 1.25E-06
 Guess MOs from SCF MO coefficient file

 -----------------------------------------------------------------------
  General SCF calculation program by
  Eric Jon Sundstrom, Paul Horn, Yuezhi Mao, Dmitri Zuev, Alec White,
  David Stuck, Shaama M.S., Shane Yost, Joonho Lee, David Small,
  Daniel Levine, Susi Lehtola, Hugh Burton, Evgeny Epifanovsky,
  Bang C. Huynh
 -----------------------------------------------------------------------
 Exchange:     0.5400 Hartree-Fock + 1.0000 M06-2X
 Correlation:  1.0000 M06-2X
 Using SG-3 standard quadrature grid
 using 4 threads for integral computing
 -------------------------------------------------------
 OpenMP Integral computing Module                
 Release: version 1.0, May 2013, Q-Chem Inc. Pittsburgh 
 -------------------------------------------------------
 A restricted SCF calculation will be
 performed using DIIS
 SCF converges when DIIS error is below 1.0e-08
 ---------------------------------------
  Cycle       Energy         DIIS error
 ---------------------------------------
    1    -363.6603861727      6.10e-04  
    2    -363.6622485077      1.16e-04  
    3    -363.6623106265      7.02e-05  
    4    -363.6623312079      2.28e-05  
    5    -363.6623341650      8.84e-06  
    6    -363.6623346173      3.34e-06  
    7    -363.6623347098      1.76e-06  
    8    -363.6623347288      3.80e-07  
    9    -363.6623347300      1.06e-07  
   10    -363.6623347301      5.38e-08  
   11    -363.6623347301      1.22e-08  
   12    -363.6623347301      7.41e-09  Convergence criterion met
 ---------------------------------------
 SCF time:   CPU 208.79s  wall 53.00s 
 SCF   energy in the final basis set =     -363.6623347301
 Total energy in the final basis set =     -363.6623347301
 
 Direct TDDFT/TDA calculation will be performed
 Exchange:     0.5400 Hartree-Fock + 1.0000 M06-2X
 Correlation:  1.0000 M06-2X
 Using SG-3 standard quadrature grid
 Singlet excitation energies requested
 CIS energy converged when residual is below 10e- 6
 ---------------------------------------------------
 Iter    Rts Conv    Rts Left    Ttl Dev     Max Dev
 ---------------------------------------------------
   1         0           3      0.002240    0.001726
   2         0           3      0.000484    0.000352
   3         0           3      0.000225    0.000146
   4         0           3      0.000115    0.000062
   5         0           3      0.000059    0.000029
   6         0           3      0.000055    0.000028
   7         1           2      0.000651    0.000624
   8         1           2      0.000268    0.000252
   9         1           2      0.000117    0.000110
  10         1           2      0.000044    0.000042
  11         2           1      0.000014    0.000013
  12         2           1      0.000005    0.000004
  13         2           1      0.000002    0.000002
  14         3           0      0.000001    0.000001    Roots Converged
 ---------------------------------------------------
 
 ---------------------------------------------------
         TDDFT/TDA Excitation Energies              
 ---------------------------------------------------

 Excited state   1: excitation energy (eV) =    4.7470
 Total energy for state  1:                  -363.48788494 au
    Multiplicity: Singlet
    Trans. Mom.: -0.0013 X   0.0011 Y   0.1302 Z
    Strength   :     0.0019722144
    D(   31) --> V(    1) amplitude =  0.9824

 Excited state   2: excitation energy (eV) =    4.8491
 Total energy for state  2:                  -363.48413520 au
    Multiplicity: Singlet
    Trans. Mom.: -0.9451 X   0.7549 Y  -0.0001 Z
    Strength   :     0.1738177044
    D(   31) --> V(    2) amplitude =  0.9335

 Excited state   3: excitation energy (eV) =    5.1502
 Total energy for state  3:                  -363.47306861 au
    Multiplicity: Singlet
    Trans. Mom.:  0.0504 X  -0.2544 Y  -0.0001 Z
    Strength   :     0.0084868312
    D(   30) --> V(    2) amplitude = -0.7243
    D(   31) --> V(    7) amplitude = -0.6233
 
 ---------------------------------------------------
 Calculating Relaxed Density
 ---------------------------------------------------
 Iter    Rts Conv    Rts Left    Ttl Dev     Max Dev
 ---------------------------------------------------
   1         0           3      0.001256    0.000677
   2         0           3      0.000484    0.000257
   3         0           3      0.000127    0.000054
   4         0           3      0.000042    0.000021
   5         0           3      0.000011    0.000006
   6         2           1      0.000001    0.000001
   7         3           0      0.000000    0.000000    Roots Converged
 ---------------------------------------------------
  SETman timing summary (seconds)
  CPU time              1123.85s
  System time              0.00s
  Wall time              286.89s
 
 --------------------------------------------------------------
 
                    Orbital Energies (a.u.)
 --------------------------------------------------------------
 
 Alpha MOs
 -- Occupied --
-14.8167 -10.5901 -10.5846 -10.5578 -10.5509 -10.5487 -10.5482 -10.5447
-10.5376  -1.1032  -0.9443  -0.8754  -0.8383  -0.8020  -0.7141  -0.6778
 -0.6604  -0.6187  -0.5556  -0.5446  -0.5062  -0.5027  -0.5009  -0.4682
 -0.4549  -0.4127  -0.4042  -0.3995  -0.3344  -0.2834  -0.2427
 -- Virtual --
  0.0047   0.0064   0.0258   0.0313   0.0430   0.0461   0.0518   0.0667
  0.0671   0.0699   0.0743   0.0760   0.0988   0.1033   0.1088   0.1098
  0.1254   0.1386   0.1473   0.1508   0.1605   0.1632   0.1731   0.1792
  0.1864   0.1952   0.1970   0.2041   0.2107   0.2141   0.2247   0.2306
  0.2323   0.2392   0.2490   0.2513   0.2538   0.2598   0.2676   0.2761
  0.2890   0.2914   0.3059   0.3172   0.3262   0.3407   0.3457   0.3613
  0.3789   0.3946   0.4074   0.4321   0.4727   0.4921   0.5592   0.6268
  0.6649   0.7134   0.7186   0.7444   0.7619   0.7690   0.7755   0.7808
  0.7835   0.8028   0.8124   0.8220   0.8392   0.8396   0.8576   0.9001
  0.9340   0.9490   0.9600   0.9925   0.9984   1.0060   1.0151   1.0355
  1.0473   1.0739   1.0947   1.1017   1.1269   1.1498   1.1615   1.2103
  1.2145   1.2421   1.2560   1.2822   1.2937   1.3601   1.3715   1.3959
  1.4025   1.4420   1.4671   1.4782   1.5248   1.5256   1.5506   1.5580
  1.5767   1.6135   1.6778   1.8179   1.8726   1.9285   1.9446   1.9451
  1.9852   2.0375   2.0483   2.0505   2.0908   2.1186   2.1771   2.1997
  2.2175   2.2299   2.2717   2.2873   2.3162   2.3272   2.3501   2.4105
  2.4469   2.4924   2.5626   2.5922   2.6521   2.6771   2.6841   2.7063
  2.7541   2.8268   2.8630   2.8718   2.9667   2.9973   3.1148   3.2527
  3.4324   4.1841   4.2772   4.3113   4.3405   4.3858   4.4256   4.5026
  4.5440   4.8052
 --------------------------------------------------------------
 
          Ground-State Mulliken Net Atomic Charges

     Atom                 Charge (a.u.)
  ----------------------------------------
      1 C                    -0.059000
      2 C                    -0.431434
      3 C                    -0.115423
      4 C                    -0.924514
      5 C                     1.070299
      6 C                    -0.510470
      7 N                    -0.497389
      8 C                     0.042299
      9 C                    -0.255881
     10 H                     0.438749
     11 H                     0.211280
     12 H                     0.220349
     13 H                     0.196885
     14 H                     0.205061
     15 H                     0.199968
     16 H                     0.209221
  ----------------------------------------
  Sum of atomic charges =     0.000000

 -----------------------------------------------------------------
                    Cartesian Multipole Moments
 -----------------------------------------------------------------
    Charge (ESU x 10^10)
                 0.0000
    Dipole Moment (Debye)
         X      -1.5592      Y       1.8191      Z       0.0007
       Tot       2.3958
    Quadrupole Moments (Debye-Ang)
        XX     -44.8366     XY      -4.1001     YY     -44.3714
        XZ      -0.0033     YZ       0.0016     ZZ     -59.3093
    Octopole Moments (Debye-Ang^2)
       XXX     -16.4418    XXY       9.8311    XYY      -7.8352
       YYY      11.8013    XXZ       0.0054    XYZ      -0.0044
       YYZ       0.0003    XZZ      -2.0455    YZZ       2.4615
       ZZZ      -0.0032
    Hexadecapole Moments (Debye-Ang^3)
      XXXX    -810.9083   XXXY     -23.9414   XXYY    -196.7840
      XYYY     -17.5671   YYYY    -368.2077   XXXZ      -0.0248
      XXYZ       0.0034   XYYZ      -0.0129   YYYZ      -0.0014
      XXZZ    -191.0135   XYZZ      -2.8934   YYZZ     -94.6476
      XZZZ      -0.0050   YZZZ      -0.0080   ZZZZ     -73.5475
 -----------------------------------------------------------------
 Calculating analytic gradient of the CIS energy
 CIS relaxed dipole moment
            1
    1  -1.9119760
    2   0.6349270
    3   0.0016923
	Magnitude:	 2.015 au	 5.121 Debye
 CIS 2 State Energy is -363.4841351998
 Gradient of the state energy (including CIS Excitation Energy)
            1           2           3           4           5           6
    1  -0.0046681  -0.0080691  -0.0007933  -0.0031367   0.0084791  -0.0021345
    2  -0.0062540   0.0039035  -0.0174569   0.0177883  -0.0128249   0.0169386
    3   0.0000072  -0.0000075   0.0000237   0.0000212  -0.0000142   0.0000093
            7           8           9          10          11          12
    1   0.0056520  -0.0029010   0.0152838  -0.0067932   0.0006556  -0.0010041
    2  -0.0194255   0.0024131   0.0028248   0.0121223  -0.0004293   0.0021182
    3  -0.0000667  -0.0000047   0.0000208   0.0000275   0.0000007   0.0000050
           13          14          15          16
    1  -0.0003532  -0.0005463  -0.0006761   0.0010052
    2  -0.0006018  -0.0009485  -0.0000177  -0.0001500
    3  -0.0000015  -0.0000131  -0.0000013  -0.0000062
 Gradient time:  CPU 67.92 s  wall 17.06 s
 Geometry Optimization Parameters
   NAtoms,    NIC,     NZ,  NCons,   NDum,   NFix, NCnnct, MaxDiis
       16     116       0       0       0       0       0       0

 Cartesian Hessian Update
 Hessian updated using BFGS update


** GEOMETRY OPTIMIZATION IN DELOCALIZED INTERNAL COORDINATES **
   Searching for a Minimum

   Optimization Cycle:   5

                       Coordinates (Angstroms)
     ATOM                X               Y               Z
      1  C         2.1758273893   -0.6919185661    0.0000616755
      2  C         2.1355355554    0.6932435232    0.0000771472
      3  C         0.9095918413    1.4236794005    0.0001676975
      4  C        -0.2476417481    0.6626902920    0.0000777873
      5  C        -0.2360052847   -0.7530869978   -0.0001173866
      6  C         0.9895364803   -1.4521127546   -0.0000920124
      7  N        -1.5874612824    1.0628591344   -0.0001656240
      8  C        -1.5908161773   -1.1626566839    0.0000014797
      9  C        -2.3966760166    0.0122656684    0.0000836309
     10  H        -1.9196188452    2.0364402429    0.0004021860
     11  H        -1.9709756119   -2.1758355531    0.0000426558
     12  H        -3.4722802159    0.1348843320    0.0002738512
     13  H         3.0675169471    1.2495023570    0.0000316493
     14  H         0.8925135771    2.5068322961   -0.0001279118
     15  H         3.1351408449   -1.1975146359    0.0000499606
     16  H         1.0189074980   -2.5367195626   -0.0002408052
   Point Group: c1    Number of degrees of freedom:    42


   Energy is   -363.484135200

 Hessian updated using BFGS update

 42 Hessian modes will be used to form the next step
  Hessian Eigenvalues:
     0.018594    0.019738    0.020011    0.020794    0.021683    0.022200
     0.022636    0.023004    0.023236    0.023608    0.023851    0.023984
     0.024127    0.157799    0.158917    0.159995    0.160000    0.160000
     0.160205    0.160640    0.205219    0.219419    0.232766    0.245179
     0.251596    0.341161    0.356251    0.357435    0.357594    0.358004
     0.362240    0.364442    0.383695    0.393896    0.407151    0.430743
     0.453033    0.462703    0.468871    0.475808    0.548891    0.597807

 Minimum search - taking simple RFO step
[...]
   13      H       3.0733928747     1.2506946629     0.0006654040
   14      H       0.8909451384     2.5228492919    -0.0014884840
   15      H       3.1384835070    -1.1900743654     0.0008612960
   16      H       1.0137742289    -2.5512379494    -0.0003487688
 ----------------------------------------------------------------
 Molecular Point Group                 C1    NOp =  1
 Largest Abelian Subgroup              C1    NOp =  1
 Nuclear Repulsion Energy =         398.78050627 hartrees
 There are       31 alpha and       31 beta electrons
 Applying Cartesian multipole field
    Component          Value
    ---------          -----
     (2,0,0)        1.00000E-11
     (0,2,0)        2.00000E-11
     (0,0,2)       -3.00000E-11
 Nucleus-field energy     =     0.0000000118 hartrees
 Requested basis set is 6-31+G(d)
 There are 59 shells and 185 basis functions
 A cutoff of  1.0D-12 yielded   1657 shell pairs
 There are     17105 function pairs
 Smallest overlap matrix eigenvalue = 1.30E-06
 Guess MOs from SCF MO coefficient file

 -----------------------------------------------------------------------
  General SCF calculation program by
  Eric Jon Sundstrom, Paul Horn, Yuezhi Mao, Dmitri Zuev, Alec White,
  David Stuck, Shaama M.S., Shane Yost, Joonho Lee, David Small,
  Daniel Levine, Susi Lehtola, Hugh Burton, Evgeny Epifanovsky,
  Bang C. Huynh
 -----------------------------------------------------------------------
 Exchange:     0.5400 Hartree-Fock + 1.0000 M06-2X
 Correlation:  1.0000 M06-2X
 Using SG-3 standard quadrature grid
 using 4 threads for integral computing
 -------------------------------------------------------
 OpenMP Integral computing Module                
 Release: version 1.0, May 2013, Q-Chem Inc. Pittsburgh 
 -------------------------------------------------------
 A restricted SCF calculation will be
 performed using DIIS
 SCF converges when DIIS error is below 1.0e-08
 ---------------------------------------
  Cycle       Energy         DIIS error
 ---------------------------------------
    1    -363.6608258100      1.95e-04  
    2    -363.6610050721      3.46e-05  
    3    -363.6610092356      2.67e-05  
    4    -363.6610120947      6.45e-06  
    5    -363.6610122729      3.38e-06  
    6    -363.6610123294      8.56e-07  
    7    -363.6610123340      3.37e-07  
    8    -363.6610123351      8.95e-08  
    9    -363.6610123353      4.96e-08  
   10    -363.6610123353      1.64e-08  
   11    -363.6610123353      4.46e-09  Convergence criterion met
 ---------------------------------------
 SCF time:   CPU 191.51s  wall 48.00s 
 SCF   energy in the final basis set =     -363.6610123353
 Total energy in the final basis set =     -363.6610123353
 
 Direct TDDFT/TDA calculation will be performed
 Exchange:     0.5400 Hartree-Fock + 1.0000 M06-2X
 Correlation:  1.0000 M06-2X
 Using SG-3 standard quadrature grid
 Singlet excitation energies requested
 CIS energy converged when residual is below 10e- 6
 ---------------------------------------------------
 Iter    Rts Conv    Rts Left    Ttl Dev     Max Dev
 ---------------------------------------------------
   1         0           3      0.002233    0.001721
   2         0           3      0.000473    0.000342
   3         0           3      0.000223    0.000144
   4         0           3      0.000118    0.000061
   5         0           3      0.000069    0.000033
   6         0           3      0.000074    0.000040
   7         1           2      0.000625    0.000598
   8         1           2      0.000307    0.000291
   9         1           2      0.000121    0.000114
  10         1           2      0.000045    0.000043
  11         2           1      0.000014    0.000013
  12         2           1      0.000005    0.000005
  13         2           1      0.000002    0.000002
  14         3           0      0.000001    0.000001    Roots Converged
 ---------------------------------------------------
 
 ---------------------------------------------------
         TDDFT/TDA Excitation Energies              
 ---------------------------------------------------

 Excited state   1: excitation energy (eV) =    4.7641
 Total energy for state  1:                  -363.48593488 au
    Multiplicity: Singlet
    Trans. Mom.:  0.0187 X  -0.0148 Y  -0.1338 Z
    Strength   :     0.0021558578
    D(   31) --> V(    2) amplitude =  0.9820

 Excited state   2: excitation energy (eV) =    4.7751
 Total energy for state  2:                  -363.48553128 au
    Multiplicity: Singlet
    Trans. Mom.:  0.9485 X  -0.7511 Y   0.0035 Z
    Strength   :     0.1712619655
    D(   31) --> V(    1) amplitude =  0.9344

 Excited state   3: excitation energy (eV) =    5.1196
 Total energy for state  3:                  -363.47286871 au
    Multiplicity: Singlet
    Trans. Mom.: -0.0316 X   0.2772 Y  -0.0003 Z
    Strength   :     0.0097652002
    D(   30) --> V(    1) amplitude = -0.7317
    D(   31) --> V(    7) amplitude = -0.6084
 
 ---------------------------------------------------
 Calculating Relaxed Density
 ---------------------------------------------------
 Iter    Rts Conv    Rts Left    Ttl Dev     Max Dev
 ---------------------------------------------------
   1         0           3      0.001280    0.000678
   2         0           3      0.000494    0.000258
   3         0           3      0.000133    0.000057
   4         0           3      0.000044    0.000021
   5         0           3      0.000012    0.000006
   6         2           1      0.000001    0.000001
   7         3           0      0.000000    0.000000    Roots Converged
 ---------------------------------------------------
  SETman timing summary (seconds)
  CPU time              1115.56s
  System time              0.00s
  Wall time              280.24s
 
 --------------------------------------------------------------
 
                    Orbital Energies (a.u.)
 --------------------------------------------------------------
 
 Alpha MOs
 -- Occupied --
-14.8152 -10.5908 -10.5859 -10.5608 -10.5539 -10.5508 -10.5493 -10.5468
-10.5379  -1.0999  -0.9425  -0.8748  -0.8369  -0.8014  -0.7130  -0.6785
 -0.6590  -0.6189  -0.5554  -0.5444  -0.5066  -0.5010  -0.5003  -0.4681
 -0.4537  -0.4108  -0.4033  -0.4028  -0.3329  -0.2837  -0.2423
 -- Virtual --
  0.0040   0.0056   0.0257   0.0311   0.0429   0.0458   0.0511   0.0666
  0.0670   0.0697   0.0742   0.0763   0.0982   0.1028   0.1086   0.1095
  0.1256   0.1387   0.1470   0.1503   0.1606   0.1620   0.1731   0.1791
  0.1872   0.1952   0.1974   0.2041   0.2102   0.2140   0.2247   0.2299
  0.2315   0.2384   0.2484   0.2506   0.2517   0.2594   0.2673   0.2763
  0.2882   0.2908   0.3058   0.3154   0.3261   0.3377   0.3451   0.3603
  0.3768   0.3910   0.4060   0.4266   0.4718   0.4891   0.5555   0.6245
  0.6576   0.7115   0.7185   0.7444   0.7588   0.7692   0.7735   0.7804
  0.7837   0.8024   0.8089   0.8204   0.8349   0.8388   0.8552   0.8991
  0.9339   0.9476   0.9586   0.9910   0.9982   1.0062   1.0147   1.0345
  1.0455   1.0740   1.0936   1.1071   1.1261   1.1511   1.1637   1.2090
  1.2126   1.2409   1.2574   1.2810   1.2940   1.3558   1.3722   1.3921
  1.4019   1.4323   1.4644   1.4716   1.5248   1.5269   1.5481   1.5549
  1.5750   1.6136   1.6696   1.8208   1.8662   1.9232   1.9368   1.9419
  1.9812   2.0358   2.0469   2.0508   2.0850   2.1113   2.1705   2.1988
  2.2088   2.2305   2.2640   2.2787   2.3137   2.3191   2.3438   2.4050
  2.4376   2.4911   2.5538   2.5846   2.6410   2.6719   2.6764   2.6981
  2.7532   2.8204   2.8568   2.8625   2.9586   2.9955   3.1080   3.2405
  3.4149   4.1794   4.2707   4.3107   4.3383   4.3821   4.4250   4.4990
  4.5422   4.7974
 --------------------------------------------------------------
 
          Ground-State Mulliken Net Atomic Charges

     Atom                 Charge (a.u.)
  ----------------------------------------
      1 C                    -0.075673
      2 C                    -0.400360
      3 C                    -0.194062
      4 C                    -0.935808
      5 C                     1.128033
      6 C                    -0.477674
      7 N                    -0.501855
      8 C                     0.013043
      9 C                    -0.242029
     10 H                     0.438112
     11 H                     0.210895
     12 H                     0.221409
     13 H                     0.197175
     14 H                     0.208035
     15 H                     0.199259
     16 H                     0.211500
  ----------------------------------------
  Sum of atomic charges =     0.000000

 -----------------------------------------------------------------
                    Cartesian Multipole Moments
 -----------------------------------------------------------------
    Charge (ESU x 10^10)
                 0.0000
    Dipole Moment (Debye)
         X      -1.4963      Y       1.7948      Z       0.0048
       Tot       2.3367
    Quadrupole Moments (Debye-Ang)
        XX     -44.9302     XY      -3.9051     YY     -44.2580
        XZ      -0.0082     YZ       0.0105     ZZ     -59.4225
    Octopole Moments (Debye-Ang^2)
       XXX     -16.4482    XXY       9.4680    XYY      -7.3964
       YYY      11.7820    XXZ       0.0472    XYZ      -0.0226
       YYZ       0.0190    XZZ      -2.0279    YZZ       2.4464
       ZZZ       0.0255
    Hexadecapole Moments (Debye-Ang^3)
      XXXX    -812.7435   XXXY     -22.6220   XXYY    -198.7694
      XYYY     -17.4702   YYYY    -369.2793   XXXZ      -0.0541
      XXYZ       0.0568   XYYZ      -0.0373   YYYZ       0.0721
      XXZZ    -191.8717   XYZZ      -3.1045   YYZZ     -95.3905
      XZZZ      -0.0155   YZZZ       0.0395   ZZZZ     -73.8924
 -----------------------------------------------------------------
 Calculating analytic gradient of the CIS energy
 CIS relaxed dipole moment
            1
    1  -1.9664593
    2   0.6228413
    3   0.0250491
	Magnitude:	 2.063 au	 5.243 Debye
 CIS 2 State Energy is -363.4855312764
 Gradient of the state energy (including CIS Excitation Energy)
            1           2           3           4           5           6
    1  -0.0025359  -0.0031439  -0.0002354   0.0000810   0.0011439   0.0007694
    2  -0.0042904   0.0034788  -0.0061236   0.0063608  -0.0042326   0.0056754
    3  -0.0000447   0.0000448   0.0001142  -0.0001309   0.0000327   0.0001906
            7           8           9          10          11          12
    1   0.0004577  -0.0004060   0.0060694  -0.0017755   0.0001171  -0.0002804
    2  -0.0057021  -0.0004433   0.0019411   0.0035401  -0.0001569   0.0005251
    3  -0.0002990  -0.0000800   0.0001173   0.0001827  -0.0000066   0.0000321
           13          14          15          16
    1  -0.0001299  -0.0001547  -0.0001359   0.0001591
    2  -0.0000718  -0.0003552  -0.0000729  -0.0000724
    3  -0.0000009  -0.0000673  -0.0000263  -0.0000587
 Gradient time:  CPU 68.58 s  wall 17.24 s
 Geometry Optimization Parameters
   NAtoms,    NIC,     NZ,  NCons,   NDum,   NFix, NCnnct, MaxDiis
       16     116       0       0       0       0       0       0

 Cartesian Hessian Update
 Hessian updated using BFGS update


** GEOMETRY OPTIMIZATION IN DELOCALIZED INTERNAL COORDINATES **
   Searching for a Minimum

   Optimization Cycle:  30

                       Coordinates (Angstroms)
     ATOM                X               Y               Z
      1  C         2.1746208435   -0.6909707375    0.0004106667
      2  C         2.1382158841    0.6985338801    0.0001761685
      3  C         0.9114551479    1.4398419895   -0.0013831186
      4  C        -0.2417737529    0.6553975605   -0.0000034023
      5  C        -0.2381626501   -0.7523708241    0.0001348376
      6  C         0.9911598525   -1.4674525381   -0.0002095231
      7  N        -1.5903426530    1.0637823979   -0.0003550989
      8  C        -1.5940846402   -1.1621153266   -0.0001989453
      9  C        -2.4066552897    0.0136326078   -0.0001808356
     10  H        -1.8975335900    2.0333887338    0.0021523929
     11  H        -1.9780977070   -2.1737812572   -0.0007104473
     12  H        -3.4823022429    0.1224343665    0.0010038391
     13  H         3.0733928747    1.2506946629    0.0006654040
     14  H         0.8909451384    2.5228492919   -0.0014884840
     15  H         3.1384835070   -1.1900743654    0.0008612960
     16  H         1.0137742289   -2.5512379494   -0.0003487688
   Point Group: c1    Number of degrees of freedom:    42


   Energy is   -363.485531276

 Hessian updated using BFGS update

 42 Hessian modes will be used to form the next step
  Hessian Eigenvalues:
     0.019585    0.019854    0.020308    0.021246    0.022567    0.022709
     0.023093    0.023244    0.023696    0.023961    0.024066    0.024222
     0.066702    0.159040    0.159801    0.159990    0.160004    0.160076
     0.160529    0.162758    0.218709    0.230174    0.242614    0.249320
     0.259207    0.356240    0.357360    0.357546    0.357800    0.362385
     0.364581    0.369354    0.383942    0.409119    0.424863    0.438176
     0.461693    0.472494    0.476054    0.524773    0.572306    2.235456

 Minimum search - taking simple RFO step
 Searching for Lamda that Minimizes Along All modes
 Value Taken    Lamda =  -0.00006230
 Step Taken.  Stepsize is  0.006770

                             Maximum     Tolerance    Cnvgd?
         Gradient           0.005374      0.000300      NO
         Displacement       0.003200      0.001200      NO
         Energy change     -0.001290      0.000001      NO


 New Cartesian Coordinates Obtained by Inverse Iteration

 Displacement from previous Coordinates is:  0.007251
 ----------------------------------------------------------------
             Standard Nuclear Orientation (Angstroms)
    I     Atom           X                Y                Z
 ----------------------------------------------------------------
    1      C       2.1748959768    -0.6904951451     0.0002083465
    2      C       2.1388471649     0.6985968349     0.0000242472
    3      C       0.9116315125     1.4409026420    -0.0011065257
    4      C      -0.2414619944     0.6547901149     0.0003061540
    5      C      -0.2381674507    -0.7522225907     0.0002395891
    6      C       0.9911000114    -1.4683527286    -0.0003695933
    7      N      -1.5905539454     1.0635496095     0.0001152189
    8      C      -1.5946599793    -1.1617868965     0.0001726905
    9      C      -2.4080071838     0.0135067706    -0.0001009868
   10      H      -1.8961463511     2.0328894614     0.0015842228
   11      H      -1.9785308806    -2.1735081036    -0.0005644450
   12      H      -3.4835818649     0.1217885896     0.0003500342
   13      H       3.0742218568     1.2504874236     0.0004959982
   14      H       0.8909366858     2.5239250552    -0.0011928179
   15      H       3.1388873731    -1.1894512293     0.0006960869
   16      H       1.0136840200    -2.5520673153    -0.0003322384
 ----------------------------------------------------------------
 Molecular Point Group                 C1    NOp =  1
 Largest Abelian Subgroup              C1    NOp =  1
 Nuclear Repulsion Energy =         398.69708029 hartrees
 There are       31 alpha and       31 beta electrons
 Applying Cartesian multipole field
    Component          Value
    ---------          -----
     (2,0,0)        1.00000E-11
     (0,2,0)        2.00000E-11
     (0,0,2)       -3.00000E-11
 Nucleus-field energy     =     0.0000000118 hartrees
 Requested basis set is 6-31+G(d)
 There are 59 shells and 185 basis functions
 A cutoff of  1.0D-12 yielded   1657 shell pairs
 There are     17105 function pairs
 Smallest overlap matrix eigenvalue = 1.30E-06
 Guess MOs from SCF MO coefficient file

 -----------------------------------------------------------------------
  General SCF calculation program by
  Eric Jon Sundstrom, Paul Horn, Yuezhi Mao, Dmitri Zuev, Alec White,
  David Stuck, Shaama M.S., Shane Yost, Joonho Lee, David Small,
  Daniel Levine, Susi Lehtola, Hugh Burton, Evgeny Epifanovsky,
  Bang C. Huynh
 -----------------------------------------------------------------------
 Exchange:     0.5400 Hartree-Fock + 1.0000 M06-2X
 Correlation:  1.0000 M06-2X
 Using SG-3 standard quadrature grid
 using 4 threads for integral computing
 -------------------------------------------------------
 OpenMP Integral computing Module                
 Release: version 1.0, May 2013, Q-Chem Inc. Pittsburgh 
 -------------------------------------------------------
 A restricted SCF calculation will be
 performed using DIIS
 SCF converges when DIIS error is below 1.0e-08
 ---------------------------------------
  Cycle       Energy         DIIS error
 ---------------------------------------
    1    -363.6608224729      3.08e-05  
    2    -363.6608268705      5.66e-06  
    3    -363.6608269725      4.36e-06  
    4    -363.6608270490      1.03e-06  
    5    -363.6608270536      5.38e-07  
    6    -363.6608270551      1.40e-07  
    7    -363.6608270552      5.63e-08  
    8    -363.6608270552      1.49e-08  
    9    -363.6608270552      7.95e-09  Convergence criterion met
 ---------------------------------------
 SCF time:   CPU 156.12s  wall 39.00s 
 SCF   energy in the final basis set =     -363.6608270552
 Total energy in the final basis set =     -363.6608270552
 
 Direct TDDFT/TDA calculation will be performed
 Exchange:     0.5400 Hartree-Fock + 1.0000 M06-2X
 Correlation:  1.0000 M06-2X
 Using SG-3 standard quadrature grid
 Singlet excitation energies requested
 CIS energy converged when residual is below 10e- 6
 ---------------------------------------------------
 Iter    Rts Conv    Rts Left    Ttl Dev     Max Dev
 ---------------------------------------------------
   1         0           3      0.002233    0.001721
   2         0           3      0.000472    0.000341
   3         0           3      0.000223    0.000143
   4         0           3      0.000118    0.000061
   5         0           3      0.000069    0.000033
   6         0           3      0.000075    0.000041
   7         1           2      0.000619    0.000592
   8         1           2      0.000283    0.000268
   9         1           2      0.000118    0.000112
  10         1           2      0.000044    0.000042
  11         2           1      0.000015    0.000014
  12         2           1      0.000005    0.000004
  13         2           1      0.000002    0.000001
  14         3           0      0.000001    0.000001    Roots Converged
 ---------------------------------------------------
 
 ---------------------------------------------------
         TDDFT/TDA Excitation Energies              
 ---------------------------------------------------

 Excited state   1: excitation energy (eV) =    4.7660
 Total energy for state  1:                  -363.48568129 au
    Multiplicity: Singlet
    Trans. Mom.: -0.0284 X   0.0228 Y  -0.1339 Z
    Strength   :     0.0022482440
    D(   31) --> V(    2) amplitude =  0.9817

 Excited state   2: excitation energy (eV) =    4.7685
 Total energy for state  2:                  -363.48558827 au
    Multiplicity: Singlet
    Trans. Mom.:  0.9440 X  -0.7538 Y  -0.0034 Z
    Strength   :     0.1704984587
    D(   31) --> V(    1) amplitude =  0.9347

 Excited state   3: excitation energy (eV) =    5.1166
 Total energy for state  3:                  -363.47279390 au
    Multiplicity: Singlet
    Trans. Mom.: -0.0239 X   0.2777 Y  -0.0002 Z
    Strength   :     0.0097405405
    D(   30) --> V(    1) amplitude = -0.7327
    D(   31) --> V(    7) amplitude = -0.6072
 
 ---------------------------------------------------
 Calculating Relaxed Density
 ---------------------------------------------------
 Iter    Rts Conv    Rts Left    Ttl Dev     Max Dev
 ---------------------------------------------------
   1         0           3      0.001281    0.000679
   2         0           3      0.000495    0.000259
   3         0           3      0.000133    0.000057
