
Running Job 1 of 1 QfuncsLDA-V-3rd.in
qchem QfuncsLDA-V-3rd.in_62539.0 /scratch/scaparas/job_3660153/qchem62539/ 0
/cm/shared/apps/spack/cpu/opt/spack/linux-centos8-zen2/gcc-10.2.0/qchem-5.3-5qddma6gy34jvefiv7mbcb7qm253n45r/exe/qcprog.exe_s QfuncsLDA-V-3rd.in_62539.0 /scratch/scaparas/job_3660153/qchem62539/
                  Welcome to Q-Chem
     A Quantum Leap Into The Future Of Chemistry


 Q-Chem 5.3, Q-Chem, Inc., Pleasanton, CA (2020)

 License issued to: University of California, San Diego (site)

 Yihan Shao,  Zhengting Gan,  E. Epifanovsky,  A. T. B. Gilbert,  M. Wormit,  
 J. Kussmann,  A. W. Lange,  A. Behn,  Jia Deng,  Xintian Feng,  D. Ghosh,  
 M. Goldey,  P. R. Horn,  L. D. Jacobson,  I. Kaliman,  T. Kus,  A. Landau,  
 Jie Liu,  E. I. Proynov,  R. M. Richard,  R. P. Steele,  E. J. Sundstrom,  
 H. L. Woodcock III,  P. M. Zimmerman,  D. Zuev,  B. Alam,  B. Albrecht,  
 A. Aldossary,  E. Alguire,  S. A. Baeppler,  D. Barton,  Z. Benda,  
 Y. A. Bernard,  E. J. Berquist,  K. B. Bravaya,  H. Burton,  K. Carter-Fenk,  
 D. Casanova,  Chun-Min Chang,  Yunqing Chen,  A. Chien,  K. D. Closser,  
 M. P. Coons,  S. Coriani,  S. Dasgupta,  A. L. Dempwolff,  M. Diedenhofen,  
 Hainam Do,  R. G. Edgar,  Po-Tung Fang,  S. Faraji,  S. Fatehi,  
 Qingguo Feng,  J. Fosso-Tande,  J. Gayvert,  Qinghui Ge,  A. Ghysels,  
 G. Gidofalvi,  J. Gomes,  J. Gonthier,  S. Gulania,  A. Gunina,  D. Hait,  
 M. W. D. Hanson-Heine,  S. Hammes-Schiffer,  P. H. P. Harbach,  
 A. W. Hauser,  M. F. Herbst,  J. E. Herr,  E. G. Hohenstein,  Z. C. Holden,  
 S. Houck,  Kerwin Hui,  B. C. Huynh,  M. Ivanov,  T.-C. Jagau,  Hyunjun Ji,  
 B. Kaduk,  K. Khistyaev,  Jaehoon Kim,  P. Klunzinger,  K. Koh,  
 D. Kosenkov,  L. Koulias,  T. Kowalczyk,  C. M. Krauter,  A. Kunitsa,  
 Ka Un Lao,  A. Laurent,  K. V. Lawler,  Joonho Lee,  D. Lefrancois,  
 S. Lehtola,  D. S. Levine,  Yi-Pei Li,  You-Sheng Lin,  Fenglai Liu,  
 Kuan-Yu Liu,  E. Livshits,  M. Loipersberger,  A. Luenser,  P. Manohar,  
 E. Mansoor,  S. F. Manzer,  Shan-Ping Mao,  Yuezhi Mao,  N. Mardirossian,  
 A. V. Marenich,  T. Markovich,  L. A. Martinez-Martinez,  S. A. Maurer,  
 N. J. Mayhall,  S. C. McKenzie,  J.-M. Mewes,  P. Morgante,  A. F. Morrison,  
 J. W. Mullinax,  K. Nanda,  T. S. Nguyen-Beck,  R. Olivares-Amaya,  
 K. J. Oosterbaan,  J. A. Parkhill,  S. K. Paul,  F. Pavosevic,  Zheng Pei,  
 T. M. Perrine,  F. Plasser,  P. Pokhilko,  S. Prager,  A. Prociuk,  
 E. Ramos,  B. Rana,  D. R. Rehn,  F. Rob,  E. Rossomme,  M. Scheurer,  
 M. Schneider,  N. Sergueev,  S. M. Sharada,  S. Sharma,  W. Skomorowski,  
 D. W. Small,  T. Stauch,  C. J. Stein,  T. Stein,  Yu-Chuan Su,  
 S. P. Veccham,  Zhen Tao,  A. J. W. Thom,  A. Tkatchenko,  T. Tsuchimochi,  
 N. M. Tubman,  L. Vogt,  M. L. Vidal,  O. Vydrov,  M. A. Watson,  J. Wenzel,  
 M. de Wergifosse,  T. A. Wesolowski,  A. White,  J. Witte,  A. Yamada,  
 Jun Yang,  K. Yao,  S. Yeganeh,  S. R. Yost,  Zhi-Qiang You,  A. Zech,  
 Igor Ying Zhang,  Xing Zhang,  Yan Zhao,  Ying Zhu,  B. R. Brooks,  
 G. K. L. Chan,  C. J. Cramer,  M. S. Gordon,  W. J. Hehre,  A. Klamt,  
 M. W. Schmidt,  C. D. Sherrill,  D. G. Truhlar,  A. Aspuru-Guzik,  R. Baer,  
 A. T. Bell,  N. A. Besley,  Jeng-Da Chai,  A. E. DePrince, III,  
 R. A. DiStasio Jr.,  A. Dreuw,  B. D. Dunietz,  T. R. Furlani,  
 Chao-Ping Hsu,  Yousung Jung,  Jing Kong,  D. S. Lambrecht,  WanZhen Liang,  
 C. Ochsenfeld,  V. A. Rassolov,  L. V. Slipchenko,  J. E. Subotnik,  
 T. Van Voorhis,  J. M. Herbert,  A. I. Krylov,  P. M. W. Gill,  M. Head-Gordon

 Contributors to earlier versions of Q-Chem not listed above: 
 R. D. Adamson,  B. Austin,  J. Baker,  G. J. O. Beran,  K. Brandhorst,  
 S. T. Brown,  E. F. C. Byrd,  A. K. Chakraborty,  C.-L. Cheng,  
 Siu Hung Chien,  D. M. Chipman,  D. L. Crittenden,  H. Dachsel,  
 R. J. Doerksen,  A. D. Dutoi,  L. Fusti-Molnar,  W. A. Goddard III,  
 A. Golubeva-Zadorozhnaya,  S. R. Gwaltney,  G. Hawkins,  A. Heyden,  
 S. Hirata,  G. Kedziora,  F. J. Keil,  C. Kelley,  Jihan Kim,  R. A. King,  
 R. Z. Khaliullin,  P. P. Korambath,  W. Kurlancheek,  A. M. Lee,  M. S. Lee,  
 S. V. Levchenko,  Ching Yeh Lin,  D. Liotard,  R. C. Lochan,  I. Lotan,  
 P. E. Maslen,  N. Nair,  D. P. O'Neill,  D. Neuhauser,  E. Neuscamman,  
 C. M. Oana,  R. Olson,  B. Peters,  R. Peverati,  P. A. Pieniazek,  
 Y. M. Rhee,  J. Ritchie,  M. A. Rohrdanz,  E. Rosta,  N. J. Russ,  
 H. F. Schaefer III,  N. E. Schultz,  N. Shenvi,  A. C. Simmonett,  A. Sodt,  
 D. Stuck,  K. S. Thanthiriwatte,  V. Vanovschi,  Tao Wang,  A. Warshel,  
 C. F. Williams,  Q. Wu,  X. Xu,  W. Zhang

 Please cite Q-Chem as follows:
 Y. Shao et al., Mol. Phys. 113, 184-215 (2015)
 DOI: 10.1080/00268976.2014.952696

 Q-Chem 5.3.1 for Intel X86 EM64T Linux

 Parts of Q-Chem use Armadillo 9.800.1 (Horizon Scraper).
 http://arma.sourceforge.net/

 Q-Chem begins on Mon Jun 28 12:48:31 2021  

Host: 
0

     Scratch files written to /scratch/scaparas/job_3660153/qchem62539//
 Aug2920 |scratch|qcdevops|jenkins|workspace|build_RNUM    
Processing $rem in /cm/shared/apps/spack/cpu/opt/spack/linux-centos8-zen2/gcc-10.2.0/qchem-5.3-5qddma6gy34jvefiv7mbcb7qm253n45r/config/preferences:
Processing $rem in /home/scaparas/.qchemrc:

Checking the input file for inconsistencies... 	...done.

--------------------------------------------------------------
User input:
--------------------------------------------------------------
$molecule
0 1
C   -2.1510630    0.6892080    0.0000880
C   -2.1279270   -0.7158180    0.0000750
C   -0.9322970   -1.4131000   -0.0000110
C    0.2469110   -0.6702010   -0.0000420
C    0.2481930    0.7482990    0.0000000
C   -0.9794740    1.4235260    0.0000320
N    1.5617740   -1.0775920   -0.0002850
C    1.6201330    1.1629000   -0.0001570
C    2.3820130    0.0308060    0.0002480
H    1.8763150   -2.0300110    0.0004380
H    1.9921730    2.1730100   -0.0003480
H    3.4525490   -0.0824250    0.0004080
H   -3.0615940   -1.2620200    0.0000880
H   -0.9172520   -2.4953420   -0.0000730
H   -3.1042030    1.2007850    0.0000900
H   -1.0093480    2.5054210   -0.0000150
$end

$rem
BASIS  =  6-31+G*
GUI  =  2
JOB_TYPE  =  Optimization
METHOD  = LDA
SCF_CONVERGENCE  =  8
THRESH = 12
CIS_N_ROOTS  = 3
CIS_SINGLETS = true
CIS_TRIPLETS = false
CIS_STATE_DERIV = 3
MEM_STATIC = 500
MEM_TOTAL = 3000
$end
--------------------------------------------------------------
 ----------------------------------------------------------------
             Standard Nuclear Orientation (Angstroms)
    I     Atom           X                Y                Z
 ----------------------------------------------------------------
    1      C       2.1510629040    -0.6892079969     0.0000583065
    2      C       2.1279268385     0.7158180020     0.0000481775
    3      C       0.9322968051     1.4130999466    -0.0000206639
    4      C      -0.2469111607     0.6702008918    -0.0000373513
    5      C      -0.2481930942    -0.7482991083     0.0000020775
    6      C       0.9794739374    -1.4235260513     0.0000165335
    7      N      -1.5617741827     1.0775918311    -0.0002621374
    8      C      -1.6201330769    -1.1629001718    -0.0001374500
    9      C      -2.3820131241    -0.0308062080     0.0002797387
   10      H      -1.8763152174     2.0300108152     0.0004667797
   11      H      -1.9921730325    -2.1730101887    -0.0003253498
   12      H      -3.4525491271     0.0824247420     0.0004541695
   13      H       3.0615938132     1.2620200454     0.0000497686
   14      H       0.9172517540     2.4953419460    -0.0000804893
   15      H       3.1042029277    -1.2007849526     0.0000467087
   16      H       1.0093479871    -2.5054210498    -0.0000328375
 ----------------------------------------------------------------
 Molecular Point Group                 C1    NOp =  1
 Largest Abelian Subgroup              C1    NOp =  1
 Nuclear Repulsion Energy =         401.33686680 hartrees
 There are       31 alpha and       31 beta electrons
 Requested basis set is 6-31+G(d)
 There are 59 shells and 185 basis functions

 Total QAlloc Memory Limit   3000 MB
 Mega-Array Size       489 MB
 MEM_STATIC part       500 MB
 A cutoff of  1.0D-12 yielded   1657 shell pairs
 There are     17105 function pairs
 Smallest overlap matrix eigenvalue = 1.26E-06

 Scale SEOQF with 1.000000e-01/1.000000e-01/1.000000e-01

 Standard Electronic Orientation quadrupole field applied
 Nucleus-field energy     =     0.0000000117 hartrees
 Guess from superposition of atomic densities
 Warning:  Energy on first SCF cycle will be non-variational
 SAD guess density has 62.000000 electrons

 -----------------------------------------------------------------------
  General SCF calculation program by
  Eric Jon Sundstrom, Paul Horn, Yuezhi Mao, Dmitri Zuev, Alec White,
  David Stuck, Shaama M.S., Shane Yost, Joonho Lee, David Small,
  Daniel Levine, Susi Lehtola, Hugh Burton, Evgeny Epifanovsky,
  Bang C. Huynh
 -----------------------------------------------------------------------
 Exchange:  Slater      Correlation:  VWN5
 Using SG-1 standard quadrature grid
 using 4 threads for integral computing
 -------------------------------------------------------
 OpenMP Integral computing Module                
 Release: version 1.0, May 2013, Q-Chem Inc. Pittsburgh 
 -------------------------------------------------------
 A restricted SCF calculation will be
 performed using DIIS
 SCF converges when DIIS error is below 1.0e-08
 ---------------------------------------
  Cycle       Energy         DIIS error
 ---------------------------------------
    1    -362.4769771145      5.54e-02  
    2    -360.3464496601      6.68e-03  
    3    -360.0629507348      1.01e-02  
    4    -360.5362971301      2.68e-03  
    5    -360.5674309980      8.90e-04  
    6    -360.5706786743      3.21e-04  
    7    -360.5710728209      1.34e-04  
    8    -360.5711492712      3.92e-05  
    9    -360.5711559517      7.25e-06  
   10    -360.5711561284      4.09e-06  
   11    -360.5711562027      8.88e-07  
   12    -360.5711562055      5.07e-07  
   13    -360.5711562067      8.40e-08  
   14    -360.5711562068      3.69e-08  
   15    -360.5711562068      4.13e-09  Convergence criterion met
 ---------------------------------------
 SCF time:   CPU 22.02s  wall 5.00s 
 SCF   energy in the final basis set =     -360.5711562068
 Total energy in the final basis set =     -360.5711562068
 
 Direct TDDFT/TDA calculation will be performed
 Exchange:  Slater      Correlation:  VWN5
 Using SG-1 standard quadrature grid
 Singlet excitation energies requested
 CIS energy converged when residual is below 10e- 6
 ---------------------------------------------------
 Iter    Rts Conv    Rts Left    Ttl Dev     Max Dev
 ---------------------------------------------------
   1         0           3      0.003952    0.001952
   2         0           3      0.003127    0.001776
   3         0           3      0.002067    0.001391
   4         0           3      0.000716    0.000482
   5         1           2      0.000205    0.000151
   6         1           2      0.000058    0.000046
   7         1           2      0.000012    0.000009
   8         2           1      0.000003    0.000002
   9         3           0      0.000001    0.000001    Roots Converged
 ---------------------------------------------------
 
 ---------------------------------------------------
         TDDFT/TDA Excitation Energies              
 ---------------------------------------------------

 Excited state   1: excitation energy (eV) =    4.5785
 Total energy for state  1:                  -360.40289951 au
    Multiplicity: Singlet
    Trans. Mom.:  0.4516 X  -0.5645 Y  -0.0002 Z
    Strength   :     0.0586114212
    D(   29) --> V(    1) amplitude = -0.2627
    D(   31) --> V(    1) amplitude =  0.8897

 Excited state   2: excitation energy (eV) =    4.7432
 Total energy for state  2:                  -360.39684642 au
    Multiplicity: Singlet
    Trans. Mom.: -0.0004 X  -0.0011 Y   0.1099 Z
    Strength   :     0.0014041989
    D(   31) --> V(    2) amplitude =  0.9995

 Excited state   3: excitation energy (eV) =    4.7605
 Total energy for state  3:                  -360.39621198 au
    Multiplicity: Singlet
    Trans. Mom.: -0.3315 X  -0.1191 Y  -0.0003 Z
    Strength   :     0.0144690165
    D(   30) --> V(    1) amplitude =  0.7404
    D(   31) --> V(    3) amplitude = -0.6570
 
 ---------------------------------------------------
 Calculating Relaxed Density
 ---------------------------------------------------
 Iter    Rts Conv    Rts Left    Ttl Dev     Max Dev
 ---------------------------------------------------
   1         0           3      0.002426    0.001229
   2         0           3      0.000870    0.000429
   3         0           3      0.000245    0.000123
   4         0           3      0.000088    0.000046
   5         0           3      0.000013    0.000006
   6         3           0      0.000000    0.000000    Roots Converged
 ---------------------------------------------------
  SETman timing summary (seconds)
  CPU time                86.59s
  System time              0.00s
  Wall time               21.78s
 
 --------------------------------------------------------------
 
                    Orbital Energies (a.u.)
 --------------------------------------------------------------
 
 Alpha MOs
 -- Occupied --
-13.9300  -9.8284  -9.8280  -9.7983  -9.7953  -9.7920  -9.7920  -9.7876
 -9.7864  -0.9035  -0.7647  -0.7123  -0.6669  -0.6492  -0.5695  -0.5406
 -0.5284  -0.4922  -0.4367  -0.4249  -0.3968  -0.3867  -0.3853  -0.3691
 -0.3509  -0.3150  -0.3056  -0.2961  -0.2557  -0.2075  -0.1904
 -- Virtual --
 -0.0493  -0.0162  -0.0154   0.0039   0.0117   0.0137   0.0263   0.0289
  0.0424   0.0477   0.0549   0.0569   0.0719   0.0755   0.0921   0.0975
  0.0989   0.1116   0.1203   0.1220   0.1385   0.1392   0.1452   0.1472
  0.1549   0.1598   0.1682   0.1687   0.1769   0.1806   0.1838   0.1841
  0.1996   0.2012   0.2117   0.2178   0.2187   0.2235   0.2337   0.2384
  0.2511   0.2556   0.2615   0.2693   0.2734   0.2798   0.2897   0.3041
  0.3242   0.3321   0.3401   0.3652   0.3819   0.4086   0.4675   0.5259
  0.5715   0.6135   0.6250   0.6396   0.6593   0.6617   0.6716   0.6765
  0.6822   0.6922   0.6954   0.7151   0.7303   0.7358   0.7591   0.7909
  0.8284   0.8412   0.8511   0.8802   0.8868   0.8921   0.8985   0.9253
  0.9381   0.9708   0.9900   1.0078   1.0423   1.0586   1.0607   1.1140
  1.1256   1.1520   1.1706   1.1791   1.1940   1.2586   1.2614   1.2825
  1.3130   1.3530   1.3592   1.3926   1.3974   1.4055   1.4356   1.4408
  1.4742   1.5250   1.5877   1.7200   1.7745   1.8125   1.8243   1.8524
  1.8791   1.9251   1.9280   1.9357   1.9889   2.0252   2.0677   2.0975
  2.1024   2.1257   2.1758   2.1885   2.1935   2.2125   2.2395   2.3074
  2.3344   2.3718   2.4712   2.4821   2.5598   2.5816   2.5937   2.6195
  2.6541   2.7284   2.7678   2.7751   2.8745   2.9007   3.0299   3.1555
  3.3641   4.0598   4.1691   4.1995   4.2338   4.2697   4.3050   4.3882
  4.4270   4.6972
 --------------------------------------------------------------
 
          Ground-State Mulliken Net Atomic Charges

     Atom                 Charge (a.u.)
  ----------------------------------------
      1 C                     0.056941
      2 C                    -0.526450
      3 C                     0.047079
      4 C                    -1.295771
      5 C                     1.287636
      6 C                    -0.669230
      7 N                    -0.442608
      8 C                     0.234697
      9 C                    -0.311400
     10 H                     0.418438
     11 H                     0.208395
     12 H                     0.211100
     13 H                     0.193469
     14 H                     0.195037
     15 H                     0.192384
     16 H                     0.200282
  ----------------------------------------
  Sum of atomic charges =     0.000000

 -----------------------------------------------------------------
                    Cartesian Multipole Moments
 -----------------------------------------------------------------
    Charge (ESU x 10^10)
                -0.0000
    Dipole Moment (Debye)
         X      -1.5454      Y       1.6030      Z       0.0010
       Tot       2.2266
    Quadrupole Moments (Debye-Ang)
        XX     -45.2260     XY      -3.2388     YY     -44.3365
        XZ      -0.0030     YZ       0.0032     ZZ     -58.8931
    Octopole Moments (Debye-Ang^2)
       XXX     -14.4508    XXY       8.1987    XYY      -8.1845
       YYY      10.5706    XXZ       0.0072    XYZ      -0.0065
       YYZ       0.0019    XZZ      -2.0307    YZZ       2.0207
       ZZZ      -0.0012
    Hexadecapole Moments (Debye-Ang^3)
      XXXX    -817.3593   XXXY     -21.7798   XXYY    -196.3775
      XYYY     -19.7070   YYYY    -371.8923   XXXZ      -0.0234
      XXYZ       0.0128   XYYZ      -0.0068   YYYZ       0.0140
      XXZZ    -189.9271   XYZZ      -3.9690   YYZZ     -94.3934
      XZZZ      -0.0005   YZZZ       0.0028   ZZZZ     -73.9189
 -----------------------------------------------------------------
 Calculating analytic gradient of the CIS energy
 CIS relaxed dipole moment
            1
    1  -0.8932743
    2   0.5150647
    3   0.0005743
	Magnitude:	 1.031 au	 2.621 Debye
 CIS 3 State Energy is -360.3962119778
 Gradient of the state energy (including CIS Excitation Energy)
            1           2           3           4           5           6
    1  -0.0197031  -0.0084168   0.0054425   0.0077682   0.0126394   0.0253785
    2  -0.0004186  -0.0095196  -0.0122865  -0.0121558   0.0235789   0.0173770
    3  -0.0000190   0.0000214  -0.0000059  -0.0000450   0.0000465   0.0000276
            7           8           9          10          11          12
    1  -0.0057041  -0.0316569   0.0123058   0.0047659   0.0035866   0.0112873
    2   0.0105313   0.0067492  -0.0189119  -0.0139204   0.0109799  -0.0012206
    3  -0.0000153  -0.0000355   0.0000369  -0.0000011  -0.0000054   0.0000003
           13          14          15          16
    1  -0.0089398   0.0000292  -0.0091924   0.0004099
    2  -0.0054463  -0.0105874   0.0048861   0.0103645
    3   0.0000037   0.0000013  -0.0000076  -0.0000029
 Gradient time:  CPU 17.61 s  wall 4.43 s
 Geometry Optimization Parameters
   NAtoms,    NIC,     NZ,  NCons,   NDum,   NFix, NCnnct, MaxDiis
       16     116       0       0       0       0       0       0


** GEOMETRY OPTIMIZATION IN DELOCALIZED INTERNAL COORDINATES **
   Searching for a Minimum

   Optimization Cycle:   1

                       Coordinates (Angstroms)
     ATOM                X               Y               Z
      1  C         2.1510629040   -0.6892079969    0.0000583065
      2  C         2.1279268385    0.7158180020    0.0000481775
      3  C         0.9322968051    1.4130999466   -0.0000206639
      4  C        -0.2469111607    0.6702008918   -0.0000373513
      5  C        -0.2481930942   -0.7482991083    0.0000020775
      6  C         0.9794739374   -1.4235260513    0.0000165335
      7  N        -1.5617741827    1.0775918311   -0.0002621374
      8  C        -1.6201330769   -1.1629001718   -0.0001374500
      9  C        -2.3820131241   -0.0308062080    0.0002797387
     10  H        -1.8763152174    2.0300108152    0.0004667797
     11  H        -1.9921730325   -2.1730101887   -0.0003253498
     12  H        -3.4525491271    0.0824247420    0.0004541695
     13  H         3.0615938132    1.2620200454    0.0000497686
     14  H         0.9172517540    2.4953419460   -0.0000804893
     15  H         3.1042029277   -1.2007849526    0.0000467087
     16  H         1.0093479871   -2.5054210498   -0.0000328375
   Point Group: c1    Number of degrees of freedom:    42


   Energy is   -360.396211978


 Attempting to generate delocalized internal coordinates
 Initial Hessian constructed with Jon Baker's OPTIMIZE code

 42 Hessian modes will be used to form the next step
  Hessian Eigenvalues:
     0.018594    0.019738    0.020011    0.020794    0.021683    0.022200
     0.022636    0.023004    0.023236    0.023608    0.023851    0.023984
     0.024127    0.160000    0.160000    0.160000    0.160000    0.160000
     0.160000    0.160000    0.220000    0.221879    0.226618    0.240111
     0.246509    0.357123    0.357170    0.357835    0.357899    0.364196
     0.364272    0.370088    0.384319    0.426334    0.434649    0.457693
     0.466917    0.471622    0.474685    0.475669    0.481247    0.509555

 Minimum search - taking simple RFO step
 Searching for Lamda that Minimizes Along All modes
 Value Taken    Lamda =  -0.01163194
 Step Taken.  Stepsize is  0.161459

                             Maximum     Tolerance    Cnvgd?
         Gradient           0.045639      0.000300      NO
         Displacement       0.105474      0.001200      NO
         Energy change     *********      0.000001      NO


 New Cartesian Coordinates Obtained by Inverse Iteration

 Displacement from previous Coordinates is:  0.241881
 ----------------------------------------------------------------
             Standard Nuclear Orientation (Angstroms)
    I     Atom           X                Y                Z
 ----------------------------------------------------------------
    1      C       2.1720688909    -0.7006625684     0.0000182200
    2      C       2.1483394624     0.7348427665    -0.0000399962
    3      C       0.9336223447     1.4427682101     0.0001270938
    4      C      -0.2522478068     0.6778332821     0.0001951969
    5      C      -0.2544508029    -0.7704667381    -0.0000106839
    6      C       0.9716772911    -1.4620580822    -0.0001205754
    7      N      -1.5715790180     1.0851873796    -0.0001293487
    8      C      -1.6162422600    -1.1734707365     0.0000945065
    9      C      -2.4013289534    -0.0222514710     0.0000694578
   10      H      -1.8896528661     2.0534029149     0.0004513489
   11      H      -1.9910542554    -2.1998748424     0.0000164347
   12      H      -3.4877594049     0.0926769033     0.0000050555
   13      H       3.0942090268     1.2898686327    -0.0001310556
   14      H       0.9130773883     2.5401170528     0.0000717451
   15      H       3.1398994596    -1.2163849633     0.0000509541
   16      H       0.9945164551    -2.5589752476    -0.0001423724
 ----------------------------------------------------------------
 Molecular Point Group                 C1    NOp =  1
 Largest Abelian Subgroup              C1    NOp =  1
 Nuclear Repulsion Energy =         396.73781123 hartrees
 There are       31 alpha and       31 beta electrons
 Applying Cartesian multipole field
    Component          Value
    ---------          -----
     (2,0,0)        1.00000E-11
     (0,2,0)        2.00000E-11
     (0,0,2)       -3.00000E-11
 Nucleus-field energy     =     0.0000000120 hartrees
 Requested basis set is 6-31+G(d)
 There are 59 shells and 185 basis functions
 A cutoff of  1.0D-12 yielded   1656 shell pairs
 There are     17099 function pairs
 Smallest overlap matrix eigenvalue = 1.42E-06
 Guess MOs from SCF MO coefficient file

 -----------------------------------------------------------------------
  General SCF calculation program by
  Eric Jon Sundstrom, Paul Horn, Yuezhi Mao, Dmitri Zuev, Alec White,
  David Stuck, Shaama M.S., Shane Yost, Joonho Lee, David Small,
  Daniel Levine, Susi Lehtola, Hugh Burton, Evgeny Epifanovsky,
  Bang C. Huynh
 -----------------------------------------------------------------------
 Exchange:  Slater      Correlation:  VWN5
 Using SG-1 standard quadrature grid
 using 4 threads for integral computing
 -------------------------------------------------------
 OpenMP Integral computing Module                
 Release: version 1.0, May 2013, Q-Chem Inc. Pittsburgh 
 -------------------------------------------------------
 A restricted SCF calculation will be
 performed using DIIS
 SCF converges when DIIS error is below 1.0e-08
 ---------------------------------------
  Cycle       Energy         DIIS error
 ---------------------------------------
    1    -360.5663073138      7.38e-04  
    2    -360.5684055612      4.05e-04  
    3    -360.5685777184      3.61e-04  
    4    -360.5690504225      1.47e-04  
    5    -360.5691497797      3.06e-05  
    6    -360.5691528541      1.79e-05  
    7    -360.5691544289      3.02e-06  
    8    -360.5691544607      1.55e-06  
    9    -360.5691544715      3.82e-07  
   10    -360.5691544722      8.80e-08  
   11    -360.5691544722      3.44e-08  
   12    -360.5691544722      9.34e-09  Convergence criterion met
 ---------------------------------------
 SCF time:   CPU 17.37s  wall 4.00s 
 SCF   energy in the final basis set =     -360.5691544722
 Total energy in the final basis set =     -360.5691544722
 
 Direct TDDFT/TDA calculation will be performed
 Exchange:  Slater      Correlation:  VWN5
 Using SG-1 standard quadrature grid
 Singlet excitation energies requested
 CIS energy converged when residual is below 10e- 6
 ---------------------------------------------------
 Iter    Rts Conv    Rts Left    Ttl Dev     Max Dev
 ---------------------------------------------------
   1         0           3      0.005119    0.002137
   2         0           3      0.003566    0.001800
   3         0           3      0.002795    0.001349
   4         0           3      0.001005    0.000414
   5         0           3      0.000298    0.000145
   6         0           3      0.000090    0.000052
   7         0           3      0.000052    0.000044
   8         2           1      0.000047    0.000046
   9         2           1      0.000013    0.000012
  10         2           1      0.000003    0.000002
  11         3           0      0.000001    0.000001    Roots Converged
 ---------------------------------------------------
 
 ---------------------------------------------------
         TDDFT/TDA Excitation Energies              
 ---------------------------------------------------

 Excited state   1: excitation energy (eV) =    4.4470
 Total energy for state  1:                  -360.40573184 au
    Multiplicity: Singlet
    Trans. Mom.:  0.5252 X  -0.5637 Y  -0.0001 Z
    Strength   :     0.0646630681
    D(   29) --> V(    1) amplitude =  0.2533
    D(   31) --> V(    1) amplitude =  0.8833

 Excited state   2: excitation energy (eV) =    4.5496
 Total energy for state  2:                  -360.40195995 au
    Multiplicity: Singlet
    Trans. Mom.: -0.2290 X  -0.2237 Y  -0.0001 Z
    Strength   :     0.0114184441
    D(   30) --> V(    1) amplitude =  0.7497
    D(   31) --> V(    2) amplitude = -0.6366

 Excited state   3: excitation energy (eV) =    5.6523
 Total energy for state  3:                  -360.36143494 au
    Multiplicity: Singlet
    Trans. Mom.:  0.6440 X  -0.0441 Y  -0.0011 Z
    Strength   :     0.0577108248
    D(   29) --> V(    1) amplitude = -0.5439
    D(   30) --> V(    2) amplitude =  0.3078
    D(   31) --> V(    2) amplitude = -0.2444
    D(   31) --> V(    5) amplitude =  0.6322
 
 ---------------------------------------------------
 Calculating Relaxed Density
 ---------------------------------------------------
 Iter    Rts Conv    Rts Left    Ttl Dev     Max Dev
 ---------------------------------------------------
   1         0           3      0.001997    0.000953
   2         0           3      0.000948    0.000474
   3         0           3      0.000230    0.000102
   4         0           3      0.000076    0.000036
   5         0           3      0.000011    0.000005
   6         3           0      0.000000    0.000000    Roots Converged
 ---------------------------------------------------
  SETman timing summary (seconds)
  CPU time                93.84s
  System time              0.00s
  Wall time               23.61s
 
 --------------------------------------------------------------
 
                    Orbital Energies (a.u.)
 --------------------------------------------------------------
 
 Alpha MOs
 -- Occupied --
-13.9352  -9.8345  -9.8344  -9.8057  -9.8003  -9.8003  -9.7999  -9.7975
 -9.7913  -0.9004  -0.7556  -0.7096  -0.6609  -0.6449  -0.5666  -0.5399
 -0.5237  -0.4878  -0.4372  -0.4204  -0.3949  -0.3848  -0.3839  -0.3643
 -0.3510  -0.3149  -0.3004  -0.2974  -0.2563  -0.2051  -0.1889
 -- Virtual --
 -0.0541  -0.0217  -0.0183   0.0030   0.0104   0.0105   0.0244   0.0276
  0.0419   0.0478   0.0524   0.0545   0.0695   0.0757   0.0913   0.0955
  0.0964   0.1093   0.1191   0.1192   0.1335   0.1360   0.1405   0.1457
  0.1507   0.1579   0.1640   0.1661   0.1738   0.1765   0.1824   0.1827
  0.1954   0.1972   0.2090   0.2144   0.2171   0.2181   0.2298   0.2359
  0.2485   0.2524   0.2584   0.2611   0.2647   0.2742   0.2856   0.2970
  0.3141   0.3235   0.3312   0.3569   0.3719   0.3995   0.4575   0.5049
  0.5427   0.6138   0.6249   0.6388   0.6533   0.6612   0.6649   0.6761
  0.6763   0.6890   0.6914   0.7128   0.7244   0.7285   0.7542   0.7880
  0.8223   0.8325   0.8429   0.8767   0.8818   0.8898   0.8965   0.9220
  0.9290   0.9677   0.9861   0.9973   1.0389   1.0530   1.0549   1.1102
  1.1224   1.1449   1.1690   1.1806   1.1832   1.2517   1.2612   1.2836
  1.3050   1.3443   1.3493   1.3750   1.3940   1.4109   1.4306   1.4334
  1.4661   1.5151   1.5742   1.7074   1.7523   1.8075   1.8194   1.8325
  1.8378   1.8999   1.9072   1.9337   1.9614   1.9820   2.0407   2.0557
  2.0810   2.0963   2.1540   2.1661   2.1758   2.1854   2.2185   2.2833
  2.3242   2.3619   2.4413   2.4620   2.5430   2.5500   2.5640   2.5899
  2.6261   2.7022   2.7368   2.7463   2.8626   2.8801   2.9912   3.1295
  3.2907   4.0465   4.1402   4.1960   4.2210   4.2585   4.2992   4.3765
  4.4187   4.6722
 --------------------------------------------------------------
 
          Ground-State Mulliken Net Atomic Charges

     Atom                 Charge (a.u.)
  ----------------------------------------
      1 C                     0.000342
      2 C                    -0.484847
      3 C                    -0.043267
      4 C                    -1.236288
      5 C                     1.237471
      6 C                    -0.568533
      7 N                    -0.421676
      8 C                     0.172162
      9 C                    -0.289968
     10 H                     0.420518
     11 H                     0.209515
     12 H                     0.213343
     13 H                     0.195711
     14 H                     0.198042
     15 H                     0.193881
     16 H                     0.203595
  ----------------------------------------
  Sum of atomic charges =     0.000000

 -----------------------------------------------------------------
                    Cartesian Multipole Moments
 -----------------------------------------------------------------
    Charge (ESU x 10^10)
                -0.0000
    Dipole Moment (Debye)
         X      -1.6229      Y       1.6555      Z       0.0006
       Tot       2.3183
    Quadrupole Moments (Debye-Ang)
        XX     -45.2688     XY      -3.3455     YY     -44.0854
        XZ      -0.0017     YZ       0.0021     ZZ     -59.4867
    Octopole Moments (Debye-Ang^2)
       XXX     -15.1000    XXY       8.9156    XYY      -8.3881
       YYY      10.9692    XXZ       0.0004    XYZ      -0.0053
       YYZ       0.0019    XZZ      -2.3798    YZZ       2.1458
       ZZZ      -0.0049
    Hexadecapole Moments (Debye-Ang^3)
      XXXX    -827.8808   XXXY     -22.6541   XXYY    -200.3688
      XYYY     -20.2716   YYYY    -382.1747   XXXZ       0.0004
      XXYZ       0.0033   XYYZ      -0.0069   YYYZ       0.0041
      XXZZ    -194.6686   XYZZ      -3.9764   YYZZ     -98.0003
      XZZZ       0.0070   YZZZ      -0.0054   ZZZZ     -75.5802
 -----------------------------------------------------------------
 Calculating analytic gradient of the CIS energy
 CIS relaxed dipole moment
            1
    1   0.3860598
    2   0.9756550
    3   0.0004048
	Magnitude:	 1.049 au	 2.667 Debye
 CIS 3 State Energy is -360.3614349435
 Gradient of the state energy (including CIS Excitation Energy)
            1           2           3           4           5           6
    1   0.0095020  -0.0167255   0.0283476  -0.0042146   0.0057482  -0.0259862
    2  -0.0111159   0.0337378   0.0020004   0.0077332  -0.0276776  -0.0122565
    3  -0.0000251   0.0000354   0.0000049  -0.0000074   0.0000070  -0.0000144
            7           8           9          10          11          12
    1  -0.0142320  -0.0053914   0.0267872  -0.0008327  -0.0007684  -0.0013858
    2  -0.0096376   0.0344982  -0.0162712  -0.0002524  -0.0004276  -0.0003224
    3  -0.0000014   0.0000436  -0.0000196  -0.0000105   0.0000029  -0.0000023
           13          14          15          16
    1  -0.0004021   0.0002101   0.0001168  -0.0007733
    2   0.0007342  -0.0001989  -0.0005118  -0.0000320
    3   0.0000133  -0.0000093  -0.0000094  -0.0000075
 Gradient time:  CPU 16.98 s  wall 4.27 s
 Geometry Optimization Parameters
   NAtoms,    NIC,     NZ,  NCons,   NDum,   NFix, NCnnct, MaxDiis
       16     116       0       0       0       0       0       0

 Cartesian Hessian Update
 Hessian updated using BFGS update


** GEOMETRY OPTIMIZATION IN DELOCALIZED INTERNAL COORDINATES **
   Searching for a Minimum

   Optimization Cycle:   2

                       Coordinates (Angstroms)
     ATOM                X               Y               Z
      1  C         2.1720688909   -0.7006625684    0.0000182200
      2  C         2.1483394624    0.7348427665   -0.0000399962
      3  C         0.9336223447    1.4427682101    0.0001270938
      4  C        -0.2522478068    0.6778332821    0.0001951969
      5  C        -0.2544508029   -0.7704667381   -0.0000106839
      6  C         0.9716772911   -1.4620580822   -0.0001205754
      7  N        -1.5715790180    1.0851873796   -0.0001293487
      8  C        -1.6162422600   -1.1734707365    0.0000945065
      9  C        -2.4013289534   -0.0222514710    0.0000694578
     10  H        -1.8896528661    2.0534029149    0.0004513489
     11  H        -1.9910542554   -2.1998748424    0.0000164347
     12  H        -3.4877594049    0.0926769033    0.0000050555
     13  H         3.0942090268    1.2898686327   -0.0001310556
     14  H         0.9130773883    2.5401170528    0.0000717451
     15  H         3.1398994596   -1.2163849633    0.0000509541
     16  H         0.9945164551   -2.5589752476   -0.0001423724
   Point Group: c1    Number of degrees of freedom:    42


   Energy is   -360.361434944

 Hessian updated using BFGS update

 40 Hessian modes will be used to form the next step
  Hessian Eigenvalues:
     0.018594    0.019738    0.020011    0.020794    0.021683    0.022200
     0.022636    0.023004    0.023236    0.023608    0.023851    0.023984
     0.024127    0.159686    0.160000    0.160000    0.160000    0.160143
     0.218170    0.221925    0.229191    0.238918    0.245503    0.254672
     0.357147    0.357499    0.357869    0.361567    0.364236    0.370987
     0.385967    0.392493    0.427205    0.454700    0.461598    0.467624
     0.472478    0.475603    0.500236    0.966170

 Minimum search - taking simple RFO step
 Searching for Lamda that Minimizes Along All modes
 Value Taken    Lamda =  -0.00587370
 Step Taken.  Stepsize is  0.121113

                             Maximum     Tolerance    Cnvgd?
         Gradient           0.031794      0.000300      NO
         Displacement       0.050675      0.001200      NO
         Energy change      0.034777      0.000001      NO


 New Cartesian Coordinates Obtained by Inverse Iteration

 Displacement from previous Coordinates is:  0.178746
 ----------------------------------------------------------------
             Standard Nuclear Orientation (Angstroms)
    I     Atom           X                Y                Z
 ----------------------------------------------------------------
    1      C       2.1948161712    -0.7009800569     0.0002812697
    2      C       2.1638483096     0.7228154615    -0.0004423275
    3      C       0.9190670914     1.4358470260    -0.0000133469
    4      C      -0.2643572264     0.6751460260     0.0002942448
    5      C      -0.2625286543    -0.7693794263    -0.0001487203
    6      C       0.9868049515    -1.4551000131     0.0001050090
    7      N      -1.5762728767     1.0960658294     0.0002652384
    8      C      -1.6247720976    -1.1934475405    -0.0003804818
    9      C      -2.4323411853    -0.0092996878     0.0000306489
   10      H      -1.8798328980     2.0768923111     0.0011875355
   11      H      -1.9902911706    -2.2305042049    -0.0007430066
   12      H      -3.5234199015     0.1176502502     0.0000300797
   13      H       3.1143890070     1.2838155524    -0.0008624269
   14      H       0.8942723793     2.5405412365    -0.0000732597
   15      H       3.1691417916    -1.2186066534     0.0006219390
   16      H       1.0145712599    -2.5589036176     0.0003735859
 ----------------------------------------------------------------
 Molecular Point Group                 C1    NOp =  1
 Largest Abelian Subgroup              C1    NOp =  1
 Nuclear Repulsion Energy =         394.48981741 hartrees
 There are       31 alpha and       31 beta electrons
 Applying Cartesian multipole field
    Component          Value
    ---------          -----
     (2,0,0)        1.00000E-11
     (0,2,0)        2.00000E-11
     (0,0,2)       -3.00000E-11
 Nucleus-field energy     =     0.0000000121 hartrees
 Requested basis set is 6-31+G(d)
 There are 59 shells and 185 basis functions
 A cutoff of  1.0D-12 yielded   1656 shell pairs
 There are     17099 function pairs
 Smallest overlap matrix eigenvalue = 1.42E-06
 Guess MOs from SCF MO coefficient file

 -----------------------------------------------------------------------
  General SCF calculation program by
  Eric Jon Sundstrom, Paul Horn, Yuezhi Mao, Dmitri Zuev, Alec White,
  David Stuck, Shaama M.S., Shane Yost, Joonho Lee, David Small,
  Daniel Levine, Susi Lehtola, Hugh Burton, Evgeny Epifanovsky,
  Bang C. Huynh
 -----------------------------------------------------------------------
 Exchange:  Slater      Correlation:  VWN5
 Using SG-1 standard quadrature grid
 using 4 threads for integral computing
 -------------------------------------------------------
 OpenMP Integral computing Module                
 Release: version 1.0, May 2013, Q-Chem Inc. Pittsburgh 
 -------------------------------------------------------
 A restricted SCF calculation will be
 performed using DIIS
 SCF converges when DIIS error is below 1.0e-08
 ---------------------------------------
  Cycle       Energy         DIIS error
 ---------------------------------------
    1    -360.5625784695      6.22e-04  
    2    -360.5643106417      2.86e-04  
    3    -360.5641034590      3.58e-04  
    4    -360.5646265097      7.39e-05  
    5    -360.5646473934      2.62e-05  
    6    -360.5646499666      1.25e-05  
    7    -360.5646507628      2.55e-06  
    8    -360.5646507898      7.57e-07  
    9    -360.5646507923      3.07e-07  
   10    -360.5646507928      7.06e-08  
   11    -360.5646507928      2.17e-08  
   12    -360.5646507928      7.34e-09  Convergence criterion met
 ---------------------------------------
 SCF time:   CPU 17.06s  wall 4.00s 
 SCF   energy in the final basis set =     -360.5646507928
 Total energy in the final basis set =     -360.5646507928
 
 Direct TDDFT/TDA calculation will be performed
 Exchange:  Slater      Correlation:  VWN5
 Using SG-1 standard quadrature grid
 Singlet excitation energies requested
 CIS energy converged when residual is below 10e- 6
 ---------------------------------------------------
 Iter    Rts Conv    Rts Left    Ttl Dev     Max Dev
 ---------------------------------------------------
   1         0           3      0.005169    0.002138
   2         0           3      0.003703    0.001888
   3         0           3      0.003194    0.001517
   4         0           3      0.001353    0.000875
   5         0           3      0.000716    0.000621
   6         0           3      0.000331    0.000312
   7         1           2      0.000157    0.000154
   8         2           1      0.000048    0.000048
   9         2           1      0.000016    0.000015
  10         2           1      0.000003    0.000003
  11         3           0      0.000001    0.000000    Roots Converged
 ---------------------------------------------------
 
 ---------------------------------------------------
         TDDFT/TDA Excitation Energies              
 ---------------------------------------------------

 Excited state   1: excitation energy (eV) =    4.3308
 Total energy for state  1:                  -360.40549625 au
    Multiplicity: Singlet
    Trans. Mom.:  0.6125 X  -0.6254 Y  -0.0002 Z
    Strength   :     0.0813071808
    D(   29) --> V(    1) amplitude = -0.2495
    D(   31) --> V(    1) amplitude =  0.8821

 Excited state   2: excitation energy (eV) =    4.4988
 Total energy for state  2:                  -360.39932267 au
    Multiplicity: Singlet
    Trans. Mom.: -0.2807 X  -0.1504 Y  -0.0002 Z
    Strength   :     0.0111791334
    D(   30) --> V(    1) amplitude =  0.7357
    D(   31) --> V(    2) amplitude =  0.6636

 Excited state   3: excitation energy (eV) =    5.4295
 Total energy for state  3:                  -360.36512059 au
    Multiplicity: Singlet
    Trans. Mom.:  0.4894 X  -0.2120 Y  -0.0003 Z
    Strength   :     0.0378329640
    D(   29) --> V(    1) amplitude =  0.5726
    D(   31) --> V(    5) amplitude = -0.6828
 
 ---------------------------------------------------
 Calculating Relaxed Density
 ---------------------------------------------------
 Iter    Rts Conv    Rts Left    Ttl Dev     Max Dev
 ---------------------------------------------------
   1         0           3      0.002012    0.000923
   2         0           3      0.000919    0.000461
   3         0           3      0.000208    0.000084
   4         0           3      0.000061    0.000028
   5         0           3      0.000010    0.000005
   6         3           0      0.000000    0.000000    Roots Converged
 ---------------------------------------------------
  SETman timing summary (seconds)
  CPU time                89.93s
  System time              0.00s
  Wall time               22.60s
 
 --------------------------------------------------------------
 
                    Orbital Energies (a.u.)
 --------------------------------------------------------------
 
 Alpha MOs
 -- Occupied --
-13.9379  -9.8415  -9.8354  -9.8086  -9.8037  -9.8032  -9.8026  -9.7990
 -9.7986  -0.8974  -0.7534  -0.7055  -0.6622  -0.6395  -0.5659  -0.5405
 -0.5219  -0.4852  -0.4364  -0.4211  -0.3933  -0.3826  -0.3822  -0.3630
 -0.3522  -0.3146  -0.2991  -0.2982  -0.2538  -0.2079  -0.1863
 -- Virtual --
 -0.0589  -0.0209  -0.0192   0.0024   0.0043   0.0101   0.0232   0.0268
  0.0417   0.0482   0.0506   0.0539   0.0694   0.0755   0.0906   0.0942
  0.0949   0.1084   0.1180   0.1181   0.1316   0.1339   0.1373   0.1454
  0.1493   0.1566   0.1623   0.1654   0.1716   0.1748   0.1821   0.1821
  0.1914   0.1947   0.2072   0.2122   0.2167   0.2169   0.2273   0.2352
  0.2464   0.2508   0.2566   0.2591   0.2635   0.2699   0.2829   0.2920
  0.3137   0.3216   0.3271   0.3557   0.3569   0.3972   0.4451   0.5021
  0.5377   0.6134   0.6240   0.6383   0.6522   0.6615   0.6618   0.6680
  0.6752   0.6877   0.6913   0.7126   0.7159   0.7264   0.7486   0.7876
  0.8159   0.8304   0.8377   0.8766   0.8815   0.8886   0.8943   0.9196
  0.9275   0.9628   0.9843   0.9929   1.0354   1.0492   1.0541   1.1087
  1.1192   1.1421   1.1676   1.1810   1.1815   1.2435   1.2604   1.2859
  1.3003   1.3459   1.3528   1.3724   1.3900   1.4097   1.4290   1.4340
  1.4646   1.5161   1.5680   1.6905   1.7416   1.7980   1.8202   1.8285
  1.8363   1.8902   1.8945   1.9278   1.9346   1.9692   2.0250   2.0296
  2.0742   2.0762   2.1496   2.1547   2.1627   2.1628   2.2132   2.2654
  2.3133   2.3497   2.4379   2.4449   2.5397   2.5407   2.5591   2.5734
  2.6149   2.6910   2.7250   2.7406   2.8407   2.8719   2.9564   3.1192
  3.2728   4.0395   4.1324   4.1862   4.2163   4.2463   4.2969   4.3725
  4.4137   4.6648
 --------------------------------------------------------------
 
          Ground-State Mulliken Net Atomic Charges

     Atom                 Charge (a.u.)
  ----------------------------------------
      1 C                     0.025558
      2 C                    -0.486631
      3 C                    -0.062746
      4 C                    -1.333061
      5 C                     1.325933
      6 C                    -0.536053
      7 N                    -0.408757
      8 C                     0.111300
      9 C                    -0.274944
     10 H                     0.421030
     11 H                     0.211278
     12 H                     0.215374
     13 H                     0.196279
     14 H                     0.196855
     15 H                     0.196321
     16 H                     0.202264
  ----------------------------------------
  Sum of atomic charges =     0.000000

 -----------------------------------------------------------------
                    Cartesian Multipole Moments
 -----------------------------------------------------------------
    Charge (ESU x 10^10)
                 0.0000
    Dipole Moment (Debye)
         X      -1.5972      Y       1.6660      Z       0.0015
       Tot       2.3079
    Quadrupole Moments (Debye-Ang)
        XX     -45.1175     XY      -3.5341     YY     -44.1183
        XZ      -0.0030     YZ       0.0033     ZZ     -59.7864
    Octopole Moments (Debye-Ang^2)
       XXX     -14.1664    XXY       8.8250    XYY      -8.6540
       YYY      11.2592    XXZ       0.0042    XYZ      -0.0162
       YYZ       0.0075    XZZ      -1.9905    YZZ       2.2522
       ZZZ       0.0002
    Hexadecapole Moments (Debye-Ang^3)
      XXXX    -836.6758   XXXY     -22.9736   XXYY    -203.1325
      XYYY     -19.1996   YYYY    -383.2618   XXXZ      -0.0104
      XXYZ       0.0024   XYYZ      -0.0098   YYYZ       0.0119
      XXZZ    -198.5555   XYZZ      -3.6784   YYZZ     -98.9046
      XZZZ       0.0031   YZZZ      -0.0074   ZZZZ     -76.4637
 -----------------------------------------------------------------
 Calculating analytic gradient of the CIS energy
 CIS relaxed dipole moment
            1
    1   0.6627019
    2   1.0138679
    3   0.0007877
	Magnitude:	 1.211 au	 3.079 Debye
 CIS 3 State Energy is -360.3651205887
 Gradient of the state energy (including CIS Excitation Energy)
            1           2           3           4           5           6
    1   0.0110542  -0.0077607   0.0126792  -0.0049731  -0.0000706  -0.0188058
    2  -0.0098585   0.0227014   0.0042813   0.0103611  -0.0245254  -0.0113385
    3   0.0000485  -0.0000561   0.0000139   0.0000238  -0.0000304  -0.0000205
            7           8           9          10          11          12
    1  -0.0053994   0.0060244   0.0091331  -0.0022050  -0.0017068  -0.0061027
    2  -0.0054738   0.0172792  -0.0044983   0.0061585  -0.0055540   0.0003053
    3   0.0000101   0.0000280  -0.0000262   0.0000027  -0.0000071   0.0000043
           13          14          15          16
    1   0.0044707  -0.0006722   0.0043375  -0.0000030
    2   0.0018293   0.0045667  -0.0019243  -0.0043101
    3  -0.0000043   0.0000007   0.0000099   0.0000028
 Gradient time:  CPU 16.80 s  wall 4.22 s
 Geometry Optimization Parameters
   NAtoms,    NIC,     NZ,  NCons,   NDum,   NFix, NCnnct, MaxDiis
       16     116       0       0       0       0       0       0

 Cartesian Hessian Update
 Hessian updated using BFGS update


** GEOMETRY OPTIMIZATION IN DELOCALIZED INTERNAL COORDINATES **
   Searching for a Minimum

   Optimization Cycle:   3

                       Coordinates (Angstroms)
     ATOM                X               Y               Z
      1  C         2.1948161712   -0.7009800569    0.0002812697
      2  C         2.1638483096    0.7228154615   -0.0004423275
      3  C         0.9190670914    1.4358470260   -0.0000133469
      4  C        -0.2643572264    0.6751460260    0.0002942448
      5  C        -0.2625286543   -0.7693794263   -0.0001487203
      6  C         0.9868049515   -1.4551000131    0.0001050090
      7  N        -1.5762728767    1.0960658294    0.0002652384
      8  C        -1.6247720976   -1.1934475405   -0.0003804818
      9  C        -2.4323411853   -0.0092996878    0.0000306489
     10  H        -1.8798328980    2.0768923111    0.0011875355
     11  H        -1.9902911706   -2.2305042049   -0.0007430066
     12  H        -3.5234199015    0.1176502502    0.0000300797
     13  H         3.1143890070    1.2838155524   -0.0008624269
     14  H         0.8942723793    2.5405412365   -0.0000732597
     15  H         3.1691417916   -1.2186066534    0.0006219390
     16  H         1.0145712599   -2.5589036176    0.0003735859
   Point Group: c1    Number of degrees of freedom:    42


   Energy is   -360.365120589

 Hessian updated using BFGS update

 41 Hessian modes will be used to form the next step
  Hessian Eigenvalues:
     0.018594    0.019738    0.020011    0.020794    0.021683    0.022200
     0.022636    0.023004    0.023236    0.023609    0.023851    0.023984
     0.024127    0.159129    0.160000    0.160000    0.160000    0.160034
     0.160833    0.215943    0.220748    0.223106    0.235016    0.246575
     0.297484    0.357158    0.357518    0.357875    0.361140    0.364238
     0.373632    0.379867    0.396832    0.427145    0.455321    0.465574
     0.471867    0.473537    0.492632    0.499803    0.636342

 Minimum search - taking simple RFO step
 Searching for Lamda that Minimizes Along All modes
 Value Taken    Lamda =  -0.00422821
 Step Taken.  Stepsize is  0.104194

                             Maximum     Tolerance    Cnvgd?
         Gradient           0.022956      0.000300      NO
         Displacement       0.060257      0.001200      NO
         Energy change     -0.003686      0.000001      NO


 New Cartesian Coordinates Obtained by Inverse Iteration

 Displacement from previous Coordinates is:  0.132631
 ----------------------------------------------------------------
             Standard Nuclear Orientation (Angstroms)
    I     Atom           X                Y                Z
 ----------------------------------------------------------------
    1      C       2.1979256698    -0.6904734731     0.0000065751
    2      C       2.1680273804     0.7057867642    -0.0000422951
    3      C       0.9087564601     1.4158414095     0.0000903981
    4      C      -0.2682925257     0.6663412953     0.0002352299
    5      C      -0.2681121140    -0.7562310343    -0.0000260751
    6      C       0.9957040300    -1.4277867768    -0.0000172085
    7      N      -1.5704839727     1.0936512694    -0.0000391493
    8      C      -1.6300278592    -1.2066942638    -0.0000610349
    9      C      -2.4430618720    -0.0046651484     0.0000389744
   10      H      -1.8619719460     2.0743984973     0.0006399699
   11      H      -1.9878150012    -2.2412725371    -0.0001057902
   12      H      -3.5271260292     0.1339974779    -0.0000643969
   13      H       3.1100880910     1.2739996859    -0.0002743677
   14      H       0.8881496594     2.5174747905     0.0000622085
   15      H       3.1655972224    -1.2130438004     0.0000402427
   16      H       1.0257377581    -2.5287716636     0.0000427003
 ----------------------------------------------------------------
 Molecular Point Group                 C1    NOp =  1
 Largest Abelian Subgroup              C1    NOp =  1
 Nuclear Repulsion Energy =         395.57129024 hartrees
 There are       31 alpha and       31 beta electrons
 Applying Cartesian multipole field
    Component          Value
    ---------          -----
     (2,0,0)        1.00000E-11
     (0,2,0)        2.00000E-11
     (0,0,2)       -3.00000E-11
 Nucleus-field energy     =     0.0000000120 hartrees
 Requested basis set is 6-31+G(d)
 There are 59 shells and 185 basis functions
 A cutoff of  1.0D-12 yielded   1656 shell pairs
 There are     17099 function pairs
 Smallest overlap matrix eigenvalue = 1.32E-06
 Guess MOs from SCF MO coefficient file

 -----------------------------------------------------------------------
  General SCF calculation program by
  Eric Jon Sundstrom, Paul Horn, Yuezhi Mao, Dmitri Zuev, Alec White,
  David Stuck, Shaama M.S., Shane Yost, Joonho Lee, David Small,
  Daniel Levine, Susi Lehtola, Hugh Burton, Evgeny Epifanovsky,
  Bang C. Huynh
 -----------------------------------------------------------------------
 Exchange:  Slater      Correlation:  VWN5
 Using SG-1 standard quadrature grid
 using 4 threads for integral computing
 -------------------------------------------------------
 OpenMP Integral computing Module                
 Release: version 1.0, May 2013, Q-Chem Inc. Pittsburgh 
 -------------------------------------------------------
 A restricted SCF calculation will be
 performed using DIIS
 SCF converges when DIIS error is below 1.0e-08
 ---------------------------------------
  Cycle       Energy         DIIS error
 ---------------------------------------
    1    -360.5606183275      6.91e-04  
    2    -360.5625330913      3.20e-04  
    3    -360.5620663381      4.63e-04  
    4    -360.5629079858      8.88e-05  
    5    -360.5629386758      3.82e-05  
    6    -360.5629455750      1.17e-05  
    7    -360.5629462448      2.78e-06  
    8    -360.5629462749      9.97e-07  
    9    -360.5629462792      4.35e-07  
   10    -360.5629462802      6.77e-08  
   11    -360.5629462802      2.62e-08  
   12    -360.5629462802      9.19e-09  Convergence criterion met
 ---------------------------------------
 SCF time:   CPU 16.69s  wall 5.00s 
 SCF   energy in the final basis set =     -360.5629462802
 Total energy in the final basis set =     -360.5629462802
 
 Direct TDDFT/TDA calculation will be performed
 Exchange:  Slater      Correlation:  VWN5
 Using SG-1 standard quadrature grid
 Singlet excitation energies requested
 CIS energy converged when residual is below 10e- 6
 ---------------------------------------------------
 Iter    Rts Conv    Rts Left    Ttl Dev     Max Dev
 ---------------------------------------------------
   1         0           3      0.004093    0.002038
   2         0           3      0.002941    0.001700
   3         0           3      0.002751    0.001640
   4         0           3      0.001907    0.001233
   5         0           3      0.000527    0.000344
   6         1           2      0.000132    0.000078
   7         1           2      0.000024    0.000012
   8         1           2      0.000005    0.000003
   9         3           0      0.000001    0.000000    Roots Converged
 ---------------------------------------------------
 
 ---------------------------------------------------
         TDDFT/TDA Excitation Energies              
 ---------------------------------------------------

 Excited state   1: excitation energy (eV) =    4.2892
 Total energy for state  1:                  -360.40532015 au
    Multiplicity: Singlet
    Trans. Mom.: -0.6498 X   0.6569 Y   0.0001 Z
    Strength   :     0.0897213303
    D(   29) --> V(    1) amplitude =  0.2481
    D(   31) --> V(    1) amplitude =  0.8814

 Excited state   2: excitation energy (eV) =    4.5249
 Total energy for state  2:                  -360.39665810 au
    Multiplicity: Singlet
    Trans. Mom.:  0.0003 X  -0.0003 Y   0.1304 Z
    Strength   :     0.0018839944
    D(   31) --> V(    2) amplitude =  0.9995

 Excited state   3: excitation energy (eV) =    4.5689
 Total energy for state  3:                  -360.39504311 au
    Multiplicity: Singlet
    Trans. Mom.: -0.3280 X  -0.1094 Y   0.0001 Z
    Strength   :     0.0133848438
    D(   30) --> V(    1) amplitude =  0.7241
    D(   31) --> V(    3) amplitude = -0.6736
 
 ---------------------------------------------------
 Calculating Relaxed Density
 ---------------------------------------------------
 Iter    Rts Conv    Rts Left    Ttl Dev     Max Dev
 ---------------------------------------------------
   1         0           3      0.002734    0.001463
   2         0           3      0.000958    0.000502
   3         0           3      0.000251    0.000124
   4         0           3      0.000081    0.000051
   5         0           3      0.000014    0.000006
   6         3           0      0.000000    0.000000    Roots Converged
 ---------------------------------------------------
  SETman timing summary (seconds)
  CPU time                85.24s
  System time              0.00s
  Wall time               21.43s
 
 --------------------------------------------------------------
 
                    Orbital Energies (a.u.)
 --------------------------------------------------------------
 
 Alpha MOs
 -- Occupied --
-13.9370  -9.8436  -9.8322  -9.8069  -9.8026  -9.8011  -9.8008  -9.8002
 -9.7948  -0.8985  -0.7568  -0.7045  -0.6664  -0.6378  -0.5679  -0.5417
 -0.5229  -0.4857  -0.4361  -0.4239  -0.3936  -0.3835  -0.3810  -0.3650
 -0.3528  -0.3134  -0.3009  -0.2989  -0.2518  -0.2112  -0.1847
 -- Virtual --
 -0.0603  -0.0187  -0.0166   0.0016   0.0025   0.0106   0.0233   0.0271
  0.0418   0.0484   0.0509   0.0548   0.0707   0.0751   0.0905   0.0943
  0.0953   0.1094   0.1177   0.1192   0.1333   0.1341   0.1383   0.1459
  0.1506   0.1568   0.1631   0.1662   0.1710   0.1766   0.1823   0.1827
  0.1908   0.1950   0.2076   0.2125   0.2177   0.2183   0.2279   0.2357
  0.2466   0.2510   0.2575   0.2596   0.2678   0.2720   0.2835   0.2915
  0.3161   0.3260   0.3300   0.3524   0.3609   0.4017   0.4420   0.5126
  0.5486   0.6130   0.6232   0.6384   0.6521   0.6622   0.6623   0.6670
  0.6744   0.6916   0.6925   0.7138   0.7157   0.7261   0.7479   0.7890
  0.8145   0.8329   0.8392   0.8781   0.8834   0.8890   0.8949   0.9211
  0.9297   0.9608   0.9856   0.9959   1.0341   1.0482   1.0586   1.1075
  1.1213   1.1455   1.1676   1.1808   1.1845   1.2427   1.2590   1.2880
  1.3017   1.3449   1.3648   1.3815   1.3890   1.4057   1.4310   1.4386
  1.4675   1.5203   1.5716   1.6875   1.7458   1.7954   1.8245   1.8387
  1.8522   1.8871   1.9013   1.9257   1.9344   1.9821   2.0293   2.0379
  2.0788   2.0792   2.1451   2.1518   2.1656   2.1785   2.2219   2.2650
  2.3148   2.3490   2.4485   2.4511   2.5448   2.5579   2.5674   2.5744
  2.6213   2.6966   2.7322   2.7536   2.8286   2.8782   2.9585   3.1286
  3.2993   4.0423   4.1436   4.1802   4.2146   4.2495   4.2990   4.3759
  4.4155   4.6727
 --------------------------------------------------------------
 
          Ground-State Mulliken Net Atomic Charges

     Atom                 Charge (a.u.)
  ----------------------------------------
      1 C                     0.069611
      2 C                    -0.504890
      3 C                    -0.018310
      4 C                    -1.449112
      5 C                     1.426498
      6 C                    -0.585684
      7 N                    -0.410494
      8 C                     0.113873
      9 C                    -0.276975
     10 H                     0.420464
     11 H                     0.212230
     12 H                     0.215761
     13 H                     0.195988
     14 H                     0.194670
     15 H                     0.197067
     16 H                     0.199305
  ----------------------------------------
  Sum of atomic charges =     0.000000

 -----------------------------------------------------------------
                    Cartesian Multipole Moments
 -----------------------------------------------------------------
    Charge (ESU x 10^10)
                 0.0000
    Dipole Moment (Debye)
         X      -1.5527      Y       1.6584      Z       0.0008
       Tot       2.2718
    Quadrupole Moments (Debye-Ang)
        XX     -45.0339     XY      -3.5470     YY     -44.2793
        XZ      -0.0024     YZ       0.0022     ZZ     -59.6763
    Octopole Moments (Debye-Ang^2)
       XXX     -13.3726    XXY       8.6105    XYY      -8.6584
       YYY      11.2227    XXZ      -0.0007    XYZ      -0.0071
       YYZ       0.0039    XZZ      -1.5674    YZZ       2.3031
       ZZZ      -0.0042
    Hexadecapole Moments (Debye-Ang^3)
      XXXX    -837.0478   XXXY     -23.2928   XXYY    -202.6683
      XYYY     -18.3548   YYYY    -378.3870   XXXZ      -0.0071
      XXYZ       0.0029   XYYZ      -0.0101   YYYZ       0.0034
      XXZZ    -198.5332   XYZZ      -3.8664   YYZZ     -97.5738
      XZZZ       0.0024   YZZZ      -0.0078   ZZZZ     -76.2272
 -----------------------------------------------------------------
 Calculating analytic gradient of the CIS energy
 CIS relaxed dipole moment
            1
    1  -0.8404856
    2   0.5150692
    3   0.0002293
	Magnitude:	 0.986 au	 2.506 Debye
 CIS 3 State Energy is -360.3950431062
 Gradient of the state energy (including CIS Excitation Energy)
            1           2           3           4           5           6
    1  -0.0069274   0.0230848  -0.0347088   0.0004078  -0.0054626   0.0278633
    2   0.0163860  -0.0416603   0.0000319  -0.0088478   0.0333192   0.0113761
    3  -0.0000040   0.0000020  -0.0000007   0.0000216  -0.0000142   0.0000000
            7           8           9          10          11          12
    1   0.0175866   0.0004966  -0.0275123   0.0002133   0.0007547  -0.0012197
    2   0.0088214  -0.0393027   0.0182491   0.0031599  -0.0022754   0.0007743
    3  -0.0000111  -0.0000050   0.0000065   0.0000005   0.0000029  -0.0000006
           13          14          15          16
    1   0.0031251  -0.0009246   0.0024635   0.0007598
    2  -0.0003385   0.0028395  -0.0000141  -0.0025185
    3  -0.0000036   0.0000014   0.0000008   0.0000034
 Gradient time:  CPU 17.21 s  wall 4.33 s
 Geometry Optimization Parameters
   NAtoms,    NIC,     NZ,  NCons,   NDum,   NFix, NCnnct, MaxDiis
       16     116       0       0       0       0       0       0

 Cartesian Hessian Update
 Hessian updated using BFGS update


** GEOMETRY OPTIMIZATION IN DELOCALIZED INTERNAL COORDINATES **
   Searching for a Minimum

   Optimization Cycle:   4

                       Coordinates (Angstroms)
     ATOM                X               Y               Z
      1  C         2.1979256698   -0.6904734731    0.0000065751
      2  C         2.1680273804    0.7057867642   -0.0000422951
      3  C         0.9087564601    1.4158414095    0.0000903981
      4  C        -0.2682925257    0.6663412953    0.0002352299
      5  C        -0.2681121140   -0.7562310343   -0.0000260751
      6  C         0.9957040300   -1.4277867768   -0.0000172085
      7  N        -1.5704839727    1.0936512694   -0.0000391493
      8  C        -1.6300278592   -1.2066942638   -0.0000610349
      9  C        -2.4430618720   -0.0046651484    0.0000389744
     10  H        -1.8619719460    2.0743984973    0.0006399699
     11  H        -1.9878150012   -2.2412725371   -0.0001057902
     12  H        -3.5271260292    0.1339974779   -0.0000643969
     13  H         3.1100880910    1.2739996859   -0.0002743677
     14  H         0.8881496594    2.5174747905    0.0000622085
     15  H         3.1655972224   -1.2130438004    0.0000402427
     16  H         1.0257377581   -2.5287716636    0.0000427003
   Point Group: c1    Number of degrees of freedom:    42


   Energy is   -360.395043106

 Hessian updated using BFGS update

 42 Hessian modes will be used to form the next step
  Hessian Eigenvalues:
     0.018594    0.019738    0.020011    0.020794    0.021683    0.022200
     0.022636    0.023004    0.023236    0.023609    0.023851    0.023984
     0.024127    0.159436    0.159998    0.160000    0.160000    0.160000
     0.160050    0.160371    0.220515    0.222954    0.232579    0.241165
     0.246546    0.349732    0.357148    0.357531    0.357874    0.362725
     0.364216    0.365513    0.392805    0.426561    0.435504    0.454826
     0.459763    0.467092    0.472565    0.480237    0.502001    1.152372

 Minimum search - taking simple RFO step
 Searching for Lamda that Minimizes Along All modes
 Value Taken    Lamda =  -0.00498350
 Step Taken.  Stepsize is  0.075270

                             Maximum     Tolerance    Cnvgd?
         Gradient           0.035504      0.000300      NO
         Displacement       0.034587      0.001200      NO
         Energy change     -0.029923      0.000001      NO


 New Cartesian Coordinates Obtained by Inverse Iteration

 Displacement from previous Coordinates is:  0.111318
 ----------------------------------------------------------------
             Standard Nuclear Orientation (Angstroms)
    I     Atom           X                Y                Z
 ----------------------------------------------------------------
    1      C       2.1832321510    -0.6925159187     0.0001275903
    2      C       2.1567643324     0.7140559602    -0.0001728771
    3      C       0.9172537825     1.4215472917    -0.0000235885
    4      C      -0.2604406678     0.6690298547     0.0001771362
    5      C      -0.2622439841    -0.7585572439    -0.0000589892
    6      C       0.9863337649    -1.4347431837     0.0000922138
    7      N      -1.5679840728     1.0890120984     0.0000776306
    8      C      -1.6213840730    -1.1939476875    -0.0002717269
    9      C      -2.4249457996    -0.0117373521     0.0000860165
   10      H      -1.8683821861     2.0627390049     0.0009214018
   11      H      -1.9853986167    -2.2223880285    -0.0004737964
   12      H      -3.5068177390     0.1178226592     0.0000746388
   13      H       3.0960026951     1.2791742693    -0.0004598548
   14      H       0.8997661483     2.5189028411    -0.0000680873
   15      H       3.1469691893    -1.2142432701     0.0002703813
   16      H       1.0143700267    -2.5315988021     0.0002278921
 ----------------------------------------------------------------
 Molecular Point Group                 C1    NOp =  1
 Largest Abelian Subgroup              C1    NOp =  1
 Nuclear Repulsion Energy =         396.80490561 hartrees
 There are       31 alpha and       31 beta electrons
 Applying Cartesian multipole field
    Component          Value
    ---------          -----
     (2,0,0)        1.00000E-11
     (0,2,0)        2.00000E-11
     (0,0,2)       -3.00000E-11
 Nucleus-field energy     =     0.0000000119 hartrees
 Requested basis set is 6-31+G(d)
 There are 59 shells and 185 basis functions
 A cutoff of  1.0D-12 yielded   1656 shell pairs
 There are     17099 function pairs
 Smallest overlap matrix eigenvalue = 1.33E-06
 Guess MOs from SCF MO coefficient file

 -----------------------------------------------------------------------
  General SCF calculation program by
  Eric Jon Sundstrom, Paul Horn, Yuezhi Mao, Dmitri Zuev, Alec White,
  David Stuck, Shaama M.S., Shane Yost, Joonho Lee, David Small,
  Daniel Levine, Susi Lehtola, Hugh Burton, Evgeny Epifanovsky,
  Bang C. Huynh
 -----------------------------------------------------------------------
 Exchange:  Slater      Correlation:  VWN5
 Using SG-1 standard quadrature grid
 using 4 threads for integral computing
 -------------------------------------------------------
 OpenMP Integral computing Module                
 Release: version 1.0, May 2013, Q-Chem Inc. Pittsburgh 
 -------------------------------------------------------
 A restricted SCF calculation will be
 performed using DIIS
 SCF converges when DIIS error is below 1.0e-08
 ---------------------------------------
  Cycle       Energy         DIIS error
 ---------------------------------------
    1    -360.5667560350      4.09e-04  
    2    -360.5674871323      1.81e-04  
    3    -360.5673819167      2.40e-04  
    4    -360.5676110869      4.81e-05  
    5    -360.5676195342      1.92e-05  
    6    -360.5676211140      7.01e-06  
    7    -360.5676213583      1.56e-06  
    8    -360.5676213684      4.25e-07  
    9    -360.5676213692      1.86e-07  
   10    -360.5676213693      4.47e-08  
   11    -360.5676213693      1.22e-08  
   12    -360.5676213693      3.02e-09  Convergence criterion met
 ---------------------------------------
 SCF time:   CPU 17.14s  wall 4.00s 
 SCF   energy in the final basis set =     -360.5676213693
 Total energy in the final basis set =     -360.5676213693
 
 Direct TDDFT/TDA calculation will be performed
 Exchange:  Slater      Correlation:  VWN5
 Using SG-1 standard quadrature grid
 Singlet excitation energies requested
 CIS energy converged when residual is below 10e- 6
 ---------------------------------------------------
 Iter    Rts Conv    Rts Left    Ttl Dev     Max Dev
 ---------------------------------------------------
   1         0           3      0.004055    0.002018
   2         0           3      0.003281    0.001734
   3         0           3      0.002196    0.001350
   4         0           3      0.000719    0.000492
   5         1           2      0.000282    0.000220
   6         1           2      0.000068    0.000054
   7         1           2      0.000018    0.000015
   8         2           1      0.000004    0.000003
   9         3           0      0.000001    0.000001    Roots Converged
 ---------------------------------------------------
 
 ---------------------------------------------------
         TDDFT/TDA Excitation Energies              
 ---------------------------------------------------

 Excited state   1: excitation energy (eV) =    4.3655
 Total energy for state  1:                  -360.40719165 au
    Multiplicity: Singlet
    Trans. Mom.: -0.6057 X   0.6294 Y   0.0001 Z
    Strength   :     0.0816051906
    D(   29) --> V(    1) amplitude = -0.2492
    D(   31) --> V(    1) amplitude =  0.8834

 Excited state   2: excitation energy (eV) =    4.5783
 Total energy for state  2:                  -360.39937362 au
    Multiplicity: Singlet
    Trans. Mom.:  0.0004 X  -0.0004 Y   0.1259 Z
    Strength   :     0.0017773773
    D(   31) --> V(    2) amplitude =  0.9995

 Excited state   3: excitation energy (eV) =    4.5869
 Total energy for state  3:                  -360.39905709 au
    Multiplicity: Singlet
    Trans. Mom.: -0.3089 X  -0.1278 Y   0.0001 Z
    Strength   :     0.0125539366
    D(   30) --> V(    1) amplitude =  0.7313
    D(   31) --> V(    3) amplitude = -0.6677
 
 ---------------------------------------------------
 Calculating Relaxed Density
 ---------------------------------------------------
 Iter    Rts Conv    Rts Left    Ttl Dev     Max Dev
 ---------------------------------------------------
   1         0           3      0.002674    0.001431
   2         0           3      0.000931    0.000487
   3         0           3      0.000255    0.000132
   4         0           3      0.000088    0.000052
   5         0           3      0.000016    0.000008
   6         3           0      0.000000    0.000000    Roots Converged
 ---------------------------------------------------
  SETman timing summary (seconds)
  CPU time                84.10s
  System time              0.00s
  Wall time               21.14s
 
 --------------------------------------------------------------
 
                    Orbital Energies (a.u.)
 --------------------------------------------------------------
 
 Alpha MOs
 -- Occupied --
-13.9357  -9.8396  -9.8319  -9.8052  -9.8005  -9.7993  -9.7986  -9.7967
 -9.7943  -0.8997  -0.7579  -0.7069  -0.6652  -0.6411  -0.5678  -0.5416
 -0.5238  -0.4873  -0.4365  -0.4232  -0.3944  -0.3841  -0.3825  -0.3650
 -0.3531  -0.3139  -0.3014  -0.2985  -0.2536  -0.2093  -0.1862
 -- Virtual --
 -0.0574  -0.0182  -0.0175   0.0028   0.0051   0.0107   0.0241   0.0274
  0.0419   0.0482   0.0519   0.0551   0.0706   0.0753   0.0909   0.0952
  0.0962   0.1098   0.1184   0.1196   0.1343   0.1356   0.1399   0.1460
  0.1515   0.1576   0.1644   0.1665   0.1733   0.1769   0.1826   0.1828
  0.1935   0.1968   0.2086   0.2141   0.2177   0.2191   0.2291   0.2362
  0.2480   0.2523   0.2591   0.2617   0.2684   0.2723   0.2849   0.2948
  0.3179   0.3259   0.3321   0.3593   0.3617   0.4026   0.4490   0.5136
  0.5509   0.6133   0.6241   0.6389   0.6545   0.6620   0.6651   0.6699
  0.6751   0.6917   0.6917   0.7138   0.7194   0.7274   0.7509   0.7892
  0.8178   0.8340   0.8418   0.8785   0.8840   0.8896   0.8956   0.9223
  0.9307   0.9637   0.9868   0.9981   1.0362   1.0514   1.0577   1.1095
  1.1221   1.1461   1.1681   1.1802   1.1850   1.2475   1.2600   1.2860
  1.3045   1.3461   1.3612   1.3810   1.3908   1.4069   1.4315   1.4368
  1.4686   1.5203   1.5737   1.6975   1.7530   1.8039   1.8242   1.8406
  1.8539   1.8989   1.9071   1.9300   1.9458   1.9894   2.0373   2.0475
  2.0836   2.0891   2.1547   2.1636   2.1748   2.1753   2.2245   2.2744
  2.3193   2.3567   2.4525   2.4561   2.5463   2.5624   2.5687   2.5841
  2.6270   2.7035   2.7385   2.7553   2.8442   2.8822   2.9743   3.1342
  3.3087   4.0457   4.1479   4.1873   4.2206   4.2525   4.3002   4.3776
  4.4180   4.6770
 --------------------------------------------------------------
 
          Ground-State Mulliken Net Atomic Charges

     Atom                 Charge (a.u.)
  ----------------------------------------
      1 C                     0.050628
      2 C                    -0.503113
      3 C                    -0.015375
      4 C                    -1.381937
      5 C                     1.367011
      6 C                    -0.594366
      7 N                    -0.417374
      8 C                     0.145642
      9 C                    -0.284357
     10 H                     0.420286
     11 H                     0.210985
     12 H                     0.214690
     13 H                     0.195578
     14 H                     0.195726
     15 H                     0.195528
     16 H                     0.200447
  ----------------------------------------
  Sum of atomic charges =     0.000000

 -----------------------------------------------------------------
                    Cartesian Multipole Moments
 -----------------------------------------------------------------
    Charge (ESU x 10^10)
                 0.0000
    Dipole Moment (Debye)
         X      -1.5689      Y       1.6562      Z       0.0012
       Tot       2.2813
    Quadrupole Moments (Debye-Ang)
        XX     -45.1504     XY      -3.4508     YY     -44.2314
        XZ      -0.0031     YZ       0.0031     ZZ     -59.5132
    Octopole Moments (Debye-Ang^2)
       XXX     -14.0557    XXY       8.6621    XYY      -8.4570
       YYY      11.1170    XXZ       0.0031    XYZ      -0.0113
       YYZ       0.0057    XZZ      -1.8028    YZZ       2.2333
       ZZZ      -0.0013
    Hexadecapole Moments (Debye-Ang^3)
      XXXX    -831.2916   XXXY     -22.9138   XXYY    -200.9587
      XYYY     -18.9501   YYYY    -378.3030   XXXZ      -0.0150
      XXYZ       0.0067   XYYZ      -0.0107   YYYZ       0.0108
      XXZZ    -196.1665   XYZZ      -3.9379   YYZZ     -97.1825
      XZZZ       0.0003   YZZZ      -0.0046   ZZZZ     -75.7366
 -----------------------------------------------------------------
 Calculating analytic gradient of the CIS energy
 CIS relaxed dipole moment
            1
    1  -0.8371170
    2   0.5145835
    3   0.0003695
	Magnitude:	 0.983 au	 2.498 Debye
 CIS 3 State Energy is -360.3990570881
 Gradient of the state energy (including CIS Excitation Energy)
            1           2           3           4           5           6
    1  -0.0077426   0.0141775  -0.0217317   0.0015526  -0.0025052   0.0219106
    2   0.0094637  -0.0279454  -0.0001893  -0.0094903   0.0249856   0.0092434
    3   0.0000008  -0.0000047  -0.0000011   0.0000090  -0.0000008   0.0000054
            7           8           9          10          11          12
    1   0.0093569  -0.0004080  -0.0177070   0.0007173   0.0011267   0.0011562
    2   0.0083343  -0.0274822   0.0123549  -0.0002897   0.0005425   0.0003561
    3  -0.0000093  -0.0000238   0.0000180  -0.0000000   0.0000004   0.0000009
           13          14          15          16
    1   0.0002256  -0.0003115  -0.0001421   0.0003247
    2  -0.0006148   0.0000543   0.0006219   0.0000551
    3  -0.0000016   0.0000037  -0.0000001   0.0000032
 Gradient time:  CPU 16.84 s  wall 4.23 s
 Geometry Optimization Parameters
   NAtoms,    NIC,     NZ,  NCons,   NDum,   NFix, NCnnct, MaxDiis
       16     116       0       0       0       0       0       0

 Cartesian Hessian Update
 Hessian updated using BFGS update


** GEOMETRY OPTIMIZATION IN DELOCALIZED INTERNAL COORDINATES **
   Searching for a Minimum

   Optimization Cycle:   5

                       Coordinates (Angstroms)
     ATOM                X               Y               Z
      1  C         2.1832321510   -0.6925159187    0.0001275903
      2  C         2.1567643324    0.7140559602   -0.0001728771
      3  C         0.9172537825    1.4215472917   -0.0000235885
      4  C        -0.2604406678    0.6690298547    0.0001771362
      5  C        -0.2622439841   -0.7585572439   -0.0000589892
      6  C         0.9863337649   -1.4347431837    0.0000922138
      7  N        -1.5679840728    1.0890120984    0.0000776306
      8  C        -1.6213840730   -1.1939476875   -0.0002717269
      9  C        -2.4249457996   -0.0117373521    0.0000860165
     10  H        -1.8683821861    2.0627390049    0.0009214018
     11  H        -1.9853986167   -2.2223880285   -0.0004737964
     12  H        -3.5068177390    0.1178226592    0.0000746388
     13  H         3.0960026951    1.2791742693   -0.0004598548
     14  H         0.8997661483    2.5189028411   -0.0000680873
     15  H         3.1469691893   -1.2142432701    0.0002703813
     16  H         1.0143700267   -2.5315988021    0.0002278921
   Point Group: c1    Number of degrees of freedom:    42


   Energy is   -360.399057088

 Hessian updated using BFGS update

 42 Hessian modes will be used to form the next step
  Hessian Eigenvalues:
     0.018594    0.019738    0.020011    0.020794    0.021683    0.022200
     0.022636    0.023004    0.023236    0.023609    0.023851    0.023984
     0.024127    0.159030    0.159824    0.160000    0.160000    0.160002
     0.160027    0.160589    0.220459    0.221987    0.231137    0.239721
     0.246491    0.316443    0.357157    0.357510    0.357873    0.360596
     0.364211    0.369543    0.388688    0.401658    0.427828    0.455035
     0.460678    0.472100    0.474008    0.481027    0.506888    0.544222

 Minimum search - taking simple RFO step
 Searching for Lamda that Minimizes Along All modes
 Value Taken    Lamda =  -0.00607131
 Step Taken.  Stepsize is  0.131008

                             Maximum     Tolerance    Cnvgd?
         Gradient           0.024978      0.000300      NO
         Displacement       0.069075      0.001200      NO
         Energy change     -0.004014      0.000001      NO


 New Cartesian Coordinates Obtained by Inverse Iteration

 Displacement from previous Coordinates is:  0.168268
 ----------------------------------------------------------------
             Standard Nuclear Orientation (Angstroms)
    I     Atom           X                Y                Z
 ----------------------------------------------------------------
    1      C       2.1682256510    -0.6966220926     0.0001065441
    2      C       2.1472357520     0.7354587248    -0.0001107654
    3      C       0.9345158228     1.4396951713    -0.0000214080
    4      C      -0.2482557360     0.6783093921     0.0001668076
    5      C      -0.2570279943    -0.7692559284    -0.0000453884
    6      C       0.9675364324    -1.4562007788     0.0000269564
    7      N      -1.5660624699     1.0793809335     0.0000946278
    8      C      -1.6146564937    -1.1727482725    -0.0001490109
    9      C      -2.4019648092    -0.0248481019     0.0000305607
   10      H      -1.8824248872     2.0473918914     0.0009450823
   11      H      -1.9929352633    -2.1971118456    -0.0003274299
[...]
    2      C       2.1585238528     0.7143650682    -0.0002204943
    3      C       0.9183272960     1.4211555269    -0.0000790451
    4      C      -0.2613690220     0.6691477220     0.0001886057
    5      C      -0.2626041204    -0.7581966391    -0.0000103114
    6      C       0.9869870041    -1.4345804789     0.0001105402
    7      N      -1.5695748326     1.0902147924     0.0001554129
    8      C      -1.6223602881    -1.1945923534    -0.0002812355
    9      C      -2.4248804313    -0.0123205023     0.0001217694
   10      H      -1.8712902652     2.0637760524     0.0011404263
   11      H      -1.9866974950    -2.2232221597    -0.0005071773
   12      H      -3.5072551074     0.1174352379    -0.0000971101
   13      H       3.0962968386     1.2825538564    -0.0004579003
   14      H       0.9018907416     2.5189100243    -0.0002317939
   15      H       3.1481775975    -1.2170895269     0.0003320604
   16      H       1.0137916691    -2.5319884059     0.0002342726
 ----------------------------------------------------------------
 Molecular Point Group                 C1    NOp =  1
 Largest Abelian Subgroup              C1    NOp =  1
 Nuclear Repulsion Energy =         396.63148240 hartrees
 There are       31 alpha and       31 beta electrons
 Applying Cartesian multipole field
    Component          Value
    ---------          -----
     (2,0,0)        1.00000E-11
     (0,2,0)        2.00000E-11
     (0,0,2)       -3.00000E-11
 Nucleus-field energy     =     0.0000000120 hartrees
 Requested basis set is 6-31+G(d)
 There are 59 shells and 185 basis functions
 A cutoff of  1.0D-12 yielded   1656 shell pairs
 There are     17099 function pairs
 Smallest overlap matrix eigenvalue = 1.34E-06
 Guess MOs from SCF MO coefficient file

 -----------------------------------------------------------------------
  General SCF calculation program by
  Eric Jon Sundstrom, Paul Horn, Yuezhi Mao, Dmitri Zuev, Alec White,
  David Stuck, Shaama M.S., Shane Yost, Joonho Lee, David Small,
  Daniel Levine, Susi Lehtola, Hugh Burton, Evgeny Epifanovsky,
  Bang C. Huynh
 -----------------------------------------------------------------------
 Exchange:  Slater      Correlation:  VWN5
 Using SG-1 standard quadrature grid
 using 4 threads for integral computing
 -------------------------------------------------------
 OpenMP Integral computing Module                
 Release: version 1.0, May 2013, Q-Chem Inc. Pittsburgh 
 -------------------------------------------------------
 A restricted SCF calculation will be
 performed using DIIS
 SCF converges when DIIS error is below 1.0e-08
 ---------------------------------------
  Cycle       Energy         DIIS error
 ---------------------------------------
    1    -360.5645358928      7.81e-04  
    2    -360.5671208999      3.26e-04  
    3    -360.5665699229      4.88e-04  
    4    -360.5675204963      6.82e-05  
    5    -360.5675350499      3.82e-05  
    6    -360.5675419459      9.32e-06  
    7    -360.5675423817      1.88e-06  
    8    -360.5675423941      7.91e-07  
    9    -360.5675423967      2.64e-07  
   10    -360.5675423971      7.55e-08  
   11    -360.5675423971      1.42e-08  
   12    -360.5675423971      9.24e-09  Convergence criterion met
 ---------------------------------------
 SCF time:   CPU 16.76s  wall 5.00s 
 SCF   energy in the final basis set =     -360.5675423971
 Total energy in the final basis set =     -360.5675423971
 
 Direct TDDFT/TDA calculation will be performed
 Exchange:  Slater      Correlation:  VWN5
 Using SG-1 standard quadrature grid
 Singlet excitation energies requested
 CIS energy converged when residual is below 10e- 6
 ---------------------------------------------------
 Iter    Rts Conv    Rts Left    Ttl Dev     Max Dev
 ---------------------------------------------------
   1         0           3      0.004055    0.002018
   2         0           3      0.002775    0.001740
   3         0           3      0.002033    0.001709
   4         0           3      0.001444    0.001308
   5         0           3      0.000392    0.000342
   6         1           2      0.000091    0.000080
   7         1           2      0.000014    0.000012
   8         2           1      0.000002    0.000002
   9         3           0      0.000001    0.000000    Roots Converged
 ---------------------------------------------------
 
 ---------------------------------------------------
         TDDFT/TDA Excitation Energies              
 ---------------------------------------------------

 Excited state   1: excitation energy (eV) =    4.3658
 Total energy for state  1:                  -360.40710064 au
    Multiplicity: Singlet
    Trans. Mom.: -0.6044 X   0.6273 Y   0.0002 Z
    Strength   :     0.0811607132
    D(   29) --> V(    1) amplitude =  0.2506
    D(   31) --> V(    1) amplitude =  0.8833

 Excited state   2: excitation energy (eV) =    4.5797
 Total energy for state  2:                  -360.39924244 au
    Multiplicity: Singlet
    Trans. Mom.:  0.0011 X   0.0011 Y  -0.1254 Z
    Strength   :     0.0017645498
    D(   31) --> V(    2) amplitude =  0.9995

 Excited state   3: excitation energy (eV) =    4.5846
 Total energy for state  3:                  -360.39906274 au
    Multiplicity: Singlet
    Trans. Mom.: -0.3037 X  -0.1298 Y  -0.0006 Z
    Strength   :     0.0122546477
    D(   30) --> V(    1) amplitude =  0.7312
    D(   31) --> V(    3) amplitude =  0.6679
 
 ---------------------------------------------------
 Calculating Relaxed Density
 ---------------------------------------------------
 Iter    Rts Conv    Rts Left    Ttl Dev     Max Dev
 ---------------------------------------------------
   1         0           3      0.002676    0.001435
   2         0           3      0.000931    0.000488
   3         0           3      0.000256    0.000133
   4         0           3      0.000089    0.000051
   5         0           3      0.000016    0.000008
   6         3           0      0.000000    0.000000    Roots Converged
 ---------------------------------------------------
  SETman timing summary (seconds)
  CPU time                84.21s
  System time              0.00s
  Wall time               21.17s
 
 --------------------------------------------------------------
 
                    Orbital Energies (a.u.)
 --------------------------------------------------------------
 
 Alpha MOs
 -- Occupied --
-13.9358  -9.8397  -9.8322  -9.8053  -9.8007  -9.7995  -9.7989  -9.7969
 -9.7946  -0.8994  -0.7576  -0.7068  -0.6650  -0.6410  -0.5676  -0.5415
 -0.5237  -0.4873  -0.4364  -0.4230  -0.3945  -0.3839  -0.3822  -0.3651
 -0.3529  -0.3139  -0.3013  -0.2985  -0.2535  -0.2093  -0.1863
 -- Virtual --
 -0.0574  -0.0182  -0.0177   0.0028   0.0050   0.0107   0.0241   0.0274
  0.0419   0.0482   0.0518   0.0550   0.0706   0.0753   0.0909   0.0951
  0.0961   0.1097   0.1184   0.1196   0.1341   0.1354   0.1398   0.1460
  0.1514   0.1575   0.1642   0.1665   0.1733   0.1769   0.1825   0.1827
  0.1933   0.1965   0.2086   0.2140   0.2177   0.2190   0.2290   0.2360
  0.2478   0.2522   0.2589   0.2616   0.2682   0.2721   0.2849   0.2945
  0.3177   0.3255   0.3317   0.3591   0.3613   0.4021   0.4487   0.5132
  0.5503   0.6134   0.6243   0.6388   0.6542   0.6620   0.6646   0.6697
  0.6752   0.6914   0.6917   0.7138   0.7193   0.7273   0.7507   0.7891
  0.8177   0.8340   0.8416   0.8781   0.8839   0.8895   0.8956   0.9223
  0.9304   0.9637   0.9865   0.9979   1.0362   1.0511   1.0573   1.1088
  1.1219   1.1458   1.1680   1.1803   1.1849   1.2473   1.2600   1.2859
  1.3041   1.3465   1.3610   1.3811   1.3903   1.4068   1.4315   1.4368
  1.4683   1.5197   1.5738   1.6967   1.7526   1.8027   1.8237   1.8392
  1.8534   1.8984   1.9060   1.9294   1.9456   1.9894   2.0360   2.0459
  2.0841   2.0876   2.1542   2.1631   2.1743   2.1750   2.2236   2.2739
  2.3183   2.3559   2.4516   2.4550   2.5463   2.5611   2.5684   2.5833
  2.6264   2.7024   2.7379   2.7545   2.8424   2.8818   2.9732   3.1329
  3.3066   4.0454   4.1470   4.1868   4.2204   4.2520   4.2999   4.3772
  4.4178   4.6763
 --------------------------------------------------------------
 
          Ground-State Mulliken Net Atomic Charges

     Atom                 Charge (a.u.)
  ----------------------------------------
      1 C                     0.051352
      2 C                    -0.504268
      3 C                    -0.011719
      4 C                    -1.386388
      5 C                     1.366423
      6 C                    -0.592994
      7 N                    -0.416959
      8 C                     0.146812
      9 C                    -0.285794
     10 H                     0.420474
     11 H                     0.211134
     12 H                     0.214508
     13 H                     0.195704
     14 H                     0.195625
     15 H                     0.195693
     16 H                     0.200397
  ----------------------------------------
  Sum of atomic charges =     0.000000

 -----------------------------------------------------------------
                    Cartesian Multipole Moments
 -----------------------------------------------------------------
    Charge (ESU x 10^10)
                 0.0000
    Dipole Moment (Debye)
         X      -1.5710      Y       1.6546      Z       0.0012
       Tot       2.2817
    Quadrupole Moments (Debye-Ang)
        XX     -45.1491     XY      -3.4484     YY     -44.2174
        XZ      -0.0025     YZ       0.0036     ZZ     -59.5298
    Octopole Moments (Debye-Ang^2)
       XXX     -14.0843    XXY       8.6881    XYY      -8.4800
       YYY      11.1179    XXZ       0.0018    XYZ      -0.0132
       YYZ       0.0060    XZZ      -1.8233    YZZ       2.2308
       ZZZ      -0.0024
    Hexadecapole Moments (Debye-Ang^3)
      XXXX    -832.5068   XXXY     -22.9633   XXYY    -200.9244
      XYYY     -18.9451   YYYY    -378.4437   XXXZ       0.0030
      XXYZ       0.0097   XYYZ      -0.0121   YYYZ       0.0142
      XXZZ    -196.3948   XYZZ      -3.9307   YYZZ     -97.2568
      XZZZ       0.0066   YZZZ      -0.0028   ZZZZ     -75.7770
 -----------------------------------------------------------------
 Calculating analytic gradient of the CIS energy
 CIS relaxed dipole moment
            1
    1  -0.8360218
    2   0.5139655
    3   0.0012332
	Magnitude:	 0.981 au	 2.494 Debye
 CIS 3 State Energy is -360.3990627445
 Gradient of the state energy (including CIS Excitation Energy)
            1           2           3           4           5           6
    1  -0.0074033   0.0143448  -0.0208706   0.0008533  -0.0025572   0.0221144
    2   0.0092781  -0.0274698   0.0000636  -0.0105253   0.0254843   0.0089609
    3  -0.0000278   0.0000281  -0.0000088  -0.0000630   0.0000420   0.0000367
            7           8           9          10          11          12
    1   0.0084835  -0.0011449  -0.0166908   0.0005721   0.0010396   0.0008492
    2   0.0092059  -0.0276781   0.0118755  -0.0000635   0.0003375   0.0004689
    3  -0.0000076  -0.0000417   0.0000240   0.0000268   0.0000018  -0.0000050
           13          14          15          16
    1   0.0002883  -0.0002234   0.0000903   0.0002547
    2  -0.0002489   0.0002974   0.0003018  -0.0002882
    3   0.0000065   0.0000006  -0.0000125  -0.0000002
 Gradient time:  CPU 16.81 s  wall 4.23 s
 Geometry Optimization Parameters
   NAtoms,    NIC,     NZ,  NCons,   NDum,   NFix, NCnnct, MaxDiis
       16     116       0       0       0       0       0       0

 Cartesian Hessian Update
 Hessian updated using BFGS update


** GEOMETRY OPTIMIZATION IN DELOCALIZED INTERNAL COORDINATES **
   Searching for a Minimum

   Optimization Cycle:   9

                       Coordinates (Angstroms)
     ATOM                X               Y               Z
      1  C         2.1851315137   -0.6930157215    0.0001279614
      2  C         2.1585238528    0.7143650682   -0.0002204943
      3  C         0.9183272960    1.4211555269   -0.0000790451
      4  C        -0.2613690220    0.6691477220    0.0001886057
      5  C        -0.2626041204   -0.7581966391   -0.0000103114
      6  C         0.9869870041   -1.4345804789    0.0001105402
      7  N        -1.5695748326    1.0902147924    0.0001554129
      8  C        -1.6223602881   -1.1945923534   -0.0002812355
      9  C        -2.4248804313   -0.0123205023    0.0001217694
     10  H        -1.8712902652    2.0637760524    0.0011404263
     11  H        -1.9866974950   -2.2232221597   -0.0005071773
     12  H        -3.5072551074    0.1174352379   -0.0000971101
     13  H         3.0962968386    1.2825538564   -0.0004579003
     14  H         0.9018907416    2.5189100243   -0.0002317939
     15  H         3.1481775975   -1.2170895269    0.0003320604
     16  H         1.0137916691   -2.5319884059    0.0002342726
   Point Group: c1    Number of degrees of freedom:    42


   Energy is   -360.399062745

 Hessian updated using BFGS update

 42 Hessian modes will be used to form the next step
  Hessian Eigenvalues:
     0.018594    0.019738    0.020011    0.020795    0.021683    0.022200
     0.022637    0.023004    0.023237    0.023609    0.023851    0.023984
     0.024127    0.157307    0.159831    0.159999    0.160001    0.160011
     0.160129    0.160464    0.217486    0.220888    0.231723    0.245409
     0.248094    0.328301    0.357182    0.357501    0.357899    0.360394
     0.364215    0.368760    0.386773    0.413714    0.428473    0.456494
     0.468422    0.470900    0.474595    0.492431    0.504722    0.562756

 Minimum search - taking simple RFO step
 Searching for Lamda that Minimizes Along All modes
 Value Taken    Lamda =  -0.00628335
 Step Taken.  Stepsize is  0.137707

                             Maximum     Tolerance    Cnvgd?
         Gradient           0.024265      0.000300      NO
         Displacement       0.068100      0.001200      NO
         Energy change     -0.007542      0.000001      NO


 New Cartesian Coordinates Obtained by Inverse Iteration

 Displacement from previous Coordinates is:  0.171003
 ----------------------------------------------------------------
             Standard Nuclear Orientation (Angstroms)
    I     Atom           X                Y                Z
 ----------------------------------------------------------------
    1      C       2.1681431192    -0.6966389193     0.0000656742
    2      C       2.1464040647     0.7361921997    -0.0002309077
    3      C       0.9333595876     1.4413748319     0.0003948235
    4      C      -0.2477718373     0.6789286784     0.0007378174
    5      C      -0.2567880366    -0.7713673274    -0.0000023612
    6      C       0.9660549654    -1.4587392294    -0.0003786241
    7      N      -1.5652479710     1.0784682846     0.0000044759
    8      C      -1.6129455845    -1.1715468754     0.0002312138
    9      C      -2.4031694080    -0.0238305833     0.0002150976
   10      H      -1.8810205627     2.0479245539    -0.0001056433
   11      H      -1.9919411409    -2.1968770032     0.0000867273
   12      H      -3.4887076660     0.0909694433    -0.0001939014
   13      H       3.0936117190     1.2880279949    -0.0005206181
   14      H       0.9133316988     2.5384962155     0.0002889456
   15      H       3.1347750349    -1.2138509268     0.0003447970
   16      H       0.9950069688    -2.5549788451    -0.0004115352
 ----------------------------------------------------------------
 Molecular Point Group                 C1    NOp =  1
 Largest Abelian Subgroup              C1    NOp =  1
 Nuclear Repulsion Energy =         397.30459889 hartrees
 There are       31 alpha and       31 beta electrons
 Applying Cartesian multipole field
    Component          Value
    ---------          -----
     (2,0,0)        1.00000E-11
     (0,2,0)        2.00000E-11
     (0,0,2)       -3.00000E-11
 Nucleus-field energy     =     0.0000000119 hartrees
 Requested basis set is 6-31+G(d)
 There are 59 shells and 185 basis functions
 A cutoff of  1.0D-12 yielded   1656 shell pairs
 There are     17099 function pairs
 Smallest overlap matrix eigenvalue = 1.38E-06
 Guess MOs from SCF MO coefficient file

 -----------------------------------------------------------------------
  General SCF calculation program by
  Eric Jon Sundstrom, Paul Horn, Yuezhi Mao, Dmitri Zuev, Alec White,
  David Stuck, Shaama M.S., Shane Yost, Joonho Lee, David Small,
  Daniel Levine, Susi Lehtola, Hugh Burton, Evgeny Epifanovsky,
  Bang C. Huynh
 -----------------------------------------------------------------------
 Exchange:  Slater      Correlation:  VWN5
 Using SG-1 standard quadrature grid
 using 4 threads for integral computing
 -------------------------------------------------------
 OpenMP Integral computing Module                
 Release: version 1.0, May 2013, Q-Chem Inc. Pittsburgh 
 -------------------------------------------------------
 A restricted SCF calculation will be
 performed using DIIS
 SCF converges when DIIS error is below 1.0e-08
 ---------------------------------------
  Cycle       Energy         DIIS error
 ---------------------------------------
    1    -360.5650944608      9.28e-04  
    2    -360.5687999076      3.73e-04  
    3    -360.5680735189      5.60e-04  
    4    -360.5693291364      6.25e-05  
    5    -360.5693383934      4.22e-05  
    6    -360.5693465284      8.62e-06  
    7    -360.5693468991      2.38e-06  
    8    -360.5693469229      6.71e-07  
    9    -360.5693469245      3.05e-07  
   10    -360.5693469250      8.99e-08  
   11    -360.5693469250      2.34e-08  
   12    -360.5693469250      1.24e-08  
   13    -360.5693469251      2.94e-09  Convergence criterion met
 ---------------------------------------
 SCF time:   CPU 18.58s  wall 5.00s 
 SCF   energy in the final basis set =     -360.5693469251
 Total energy in the final basis set =     -360.5693469251
 
 Direct TDDFT/TDA calculation will be performed
 Exchange:  Slater      Correlation:  VWN5
 Using SG-1 standard quadrature grid
 Singlet excitation energies requested
 CIS energy converged when residual is below 10e- 6
 ---------------------------------------------------
 Iter    Rts Conv    Rts Left    Ttl Dev     Max Dev
 ---------------------------------------------------
   1         0           3      0.005127    0.002143
   2         0           3      0.003618    0.001756
   3         0           3      0.002725    0.001371
   4         0           3      0.001345    0.000711
   5         0           3      0.000478    0.000307
   6         0           3      0.000254    0.000216
   7         0           3      0.000092    0.000083
   8         2           1      0.000027    0.000026
   9         2           1      0.001650    0.001649
  10         2           1      0.001171    0.001170
  11         2           1      0.001114    0.001113
  12         2           1      0.001145    0.001144
  13         2           1      0.001004    0.001003
  14         2           1      0.000962    0.000961
  15         2           1      0.001053    0.001052
  16         2           1      0.000321    0.000320
  17         2           1      0.001059    0.001058
  18         2           1      0.001023    0.001023
  19         2           1      0.001011    0.001010
  20         2           1      0.001002    0.001001
  21         2           1      0.000965    0.000964
  22         2           1      0.000480    0.000479
  23         2           1      0.000671    0.000670
  24         2           1      0.000962    0.000961
  25         2           1      0.000943    0.000942
  26         2           1      0.000955    0.000954
  27         2           1      0.000950    0.000949
  28         0           3      0.000936    0.000932
  29         0           3      0.001964    0.001844
  30         0           3      0.000796    0.000788
  31         0           3      0.000061    0.000053

 Q-Chem fatal error occurred in module 0, line   98:

 MaxIt Reached in CIS/RPA iterations

